 vasp.5.4.4.18Apr17-6-g9f103f2a35 (build Nov 21 2017 15:30:27) complex          
  
 executed on             LinuxIFC date 2020.12.16  16:26:25
 running on   64 total cores
 distrk:  each k-point on   32 cores,    2 groups
 distr:  one band on NCORES_PER_BAND=   4 cores,    8 groups


--------------------------------------------------------------------------------------------------------


 INCAR:
 POTCAR:   PAW_PBE Ba_sv 06Sep2000                
 POTCAR:   PAW_PBE Ge 05Jan2001                   

 ----------------------------------------------------------------------------- 
|                                                                             |
|           W    W    AA    RRRRR   N    N  II  N    N   GGGG   !!!           |
|           W    W   A  A   R    R  NN   N  II  NN   N  G    G  !!!           |
|           W    W  A    A  R    R  N N  N  II  N N  N  G       !!!           |
|           W WW W  AAAAAA  RRRRR   N  N N  II  N  N N  G  GGG   !            |
|           WW  WW  A    A  R   R   N   NN  II  N   NN  G    G                |
|           W    W  A    A  R    R  N    N  II  N    N   GGGG   !!!           |
|                                                                             |
|      You have enabled k-point parallelism (KPAR>1).                         |
|      This developmental code was originally  written by Paul Kent at ORNL,  |
|      and carefully double checked in Vienna.                                |
|      GW as well as linear response parallelism added by Martijn Marsman     |
|      and Georg Kresse.                                                      |
|      Carefully verify results versus KPAR=1.                                |
|      Report problems to Paul Kent and Vienna.                               |
|                                                                             |
 ----------------------------------------------------------------------------- 


 ----------------------------------------------------------------------------- 
|                                                                             |
|  ADVICE TO THIS USER RUNNING 'VASP/VAMP'   (HEAR YOUR MASTER'S VOICE ...):  |
|                                                                             |
|      You have switched on vdW-DFT.                                          |
|      This routine was written and supplied by Jiri Klimes.                  |
|      We recommed that you carefully read and cite the following             |
|      publication                                                            |
|      J. Klimes, D.R. Bowler, A. Michelides                                  |
|        J. Phys.: Cond Matt. 22 022201 (2010)                                |
|      J. Klimes, D.R. Bowler, A. Michelides                                  |
|        Phys. Rev. B. 83, 195131 (2011)                                      |
|      and references therein.                                                |
|                                                                             |
 ----------------------------------------------------------------------------- 

 POTCAR:   PAW_PBE Ba_sv 06Sep2000                
   VRHFIN =Ba: 5s5p6s                                                           
   LEXCH  = PE                                                                  
   EATOM  =   700.2255 eV,   51.4651 Ry                                         
                                                                                
   TITEL  = PAW_PBE Ba_sv 06Sep2000                                             
   LULTRA =        F    use ultrasoft PP ?                                      
   IUNSCR =        1    unscreen: 0-lin 1-nonlin 2-no                           
   RPACOR =    2.400    partial core radius                                     
   POMASS =  137.327; ZVAL   =   10.000    mass and valenz                      
   RCORE  =    2.800    outmost cutoff radius                                   
   RWIGS  =    3.740; RWIGS  =    1.979    wigner-seitz radius (au A)           
   ENMAX  =  187.210; ENMIN  =  140.408 eV                                      
   RCLOC  =    2.516    cutoff for local pot                                    
   LCOR   =        T    correct aug charges                                     
   LPAW   =        T    paw PP                                                  
   EAUG   =  351.165                                                            
   DEXC   =     .000                                                            
   RMAX   =    3.370    core radius for proj-oper                               
   RAUG   =    1.300    factor for augmentation sphere                          
   RDEP   =    2.976    radius for radial grids                                 
   QCUT   =   -3.709; QGAM   =    7.419    optimization parameters              
                                                                                
   Description                                                                  
     l     E      TYP  RCUT    TYP  RCUT                                        
     0   .000     23  2.800                                                     
     0   .000     23  2.800                                                     
     1   .000     23  2.700                                                     
     1  2.000     23  2.700                                                     
     2   .000     23  2.700                                                     
     2   .000     23  2.700                                                     
  local pseudopotential read in
  partial core-charges read in
  atomic valenz-charges read in
  non local Contribution for L=           0  read in
    real space projection operators read in
  non local Contribution for L=           0  read in
    real space projection operators read in
  non local Contribution for L=           1  read in
    real space projection operators read in
  non local Contribution for L=           1  read in
    real space projection operators read in
  non local Contribution for L=           2  read in
    real space projection operators read in
  non local Contribution for L=           2  read in
    real space projection operators read in
    PAW grid and wavefunctions read in
 
   number of l-projection  operators is LMAX  =           6
   number of lm-projection operators is LMMAX =          18
 
 POTCAR:   PAW_PBE Ge 05Jan2001                   
   VRHFIN =Ge: s2p2                                                             
   LEXCH  = PE                                                                  
   EATOM  =   104.9960 eV,    7.7170 Ry                                         
                                                                                
   TITEL  = PAW_PBE Ge 05Jan2001                                                
   LULTRA =        F    use ultrasoft PP ?                                      
   IUNSCR =        1    unscreen: 0-lin 1-nonlin 2-no                           
   RPACOR =    2.170    partial core radius                                     
   POMASS =   72.610; ZVAL   =    4.000    mass and valenz                      
   RCORE  =    2.300    outmost cutoff radius                                   
   RWIGS  =    2.300; RWIGS  =    1.217    wigner-seitz radius (au A)           
   ENMAX  =  173.807; ENMIN  =  130.355 eV                                      
   ICORE  =        3    local potential                                         
   LCOR   =        T    correct aug charges                                     
   LPAW   =        T    paw PP                                                  
   EAUG   =  385.843                                                            
   DEXC   =    -.138                                                            
   RMAX   =    3.497    core radius for proj-oper                               
   RAUG   =    1.300    factor for augmentation sphere                          
   RDEP   =    2.318    radius for radial grids                                 
   QCUT   =   -3.574; QGAM   =    7.148    optimization parameters              
                                                                                
   Description                                                                  
     l     E      TYP  RCUT    TYP  RCUT                                        
     0   .000     23  2.300                                                     
     0   .000     23  2.300                                                     
     1   .000     23  2.300                                                     
     1   .000     23  2.300                                                     
     2   .000     23  2.300                                                     
     3  -.100      7  2.300                                                     
  local pseudopotential read in
  partial core-charges read in
  atomic valenz-charges read in
  non local Contribution for L=           0  read in
    real space projection operators read in
  non local Contribution for L=           0  read in
    real space projection operators read in
  non local Contribution for L=           1  read in
    real space projection operators read in
  non local Contribution for L=           1  read in
    real space projection operators read in
  non local Contribution for L=           2  read in
    real space projection operators read in
    PAW grid and wavefunctions read in
 
   number of l-projection  operators is LMAX  =           5
   number of lm-projection operators is LMMAX =          13
 
 Optimization of the real space projectors (new method)

 maximal supplied QI-value         = 13.42
 optimisation between [QCUT,QGAM] = [ 11.40, 22.81] = [ 36.42,145.68] Ry 
 Optimized for a Real-space Cutoff    1.56 Angstroem

   l    n(q)    QCUT    max X(q) W(low)/X(q) W(high)/X(q)  e(spline) 
   0     11    11.404     7.198    0.14E-04    0.26E-04    0.99E-07
   0     11    11.404    15.603    0.29E-04    0.72E-04    0.44E-06
   1     10    11.404     3.746    0.20E-04    0.24E-04    0.43E-07
   1     10    11.404     4.362    0.22E-03    0.97E-04    0.22E-06
   2     10    11.404     5.782    0.83E-04    0.62E-05    0.27E-06
   2     10    11.404    65.505    0.42E-03    0.31E-04    0.12E-05
 Optimization of the real space projectors (new method)

 maximal supplied QI-value         = 16.25
 optimisation between [QCUT,QGAM] = [ 11.38, 22.75] = [ 36.24,144.96] Ry 
 Optimized for a Real-space Cutoff    1.27 Angstroem

   l    n(q)    QCUT    max X(q) W(low)/X(q) W(high)/X(q)  e(spline) 
   0      9    11.376     8.651    0.25E-04    0.12E-04    0.13E-07
   0      9    11.376    33.192    0.14E-03    0.18E-03    0.86E-07
   1      8    11.376     5.899    0.25E-04    0.48E-04    0.38E-07
   1      8    11.376    27.289    0.31E-03    0.36E-04    0.16E-06
   2      8    11.376     4.673    0.15E-03    0.22E-03    0.50E-07

 ----------------------------------------------------------------------------- 
|                                                                             |
|  ADVICE TO THIS USER RUNNING 'VASP/VAMP'   (HEAR YOUR MASTER'S VOICE ...):  |
|                                                                             |
|      You enforced a specific xc-type in the INCAR file,                     |
|      a different type was found on the POTCAR file                          |
|          I HOPE YOU KNOW, WHAT YOU ARE  DOING                               |
|                                                                             |
 ----------------------------------------------------------------------------- 

 PAW_PBE Ba_sv 06Sep2000                :
 energy of atom  1       EATOM= -700.2255
 kinetic energy error for atom=    0.0005 (will be added to EATOM!!)
 PAW_PBE Ge 05Jan2001                   :
 energy of atom  2       EATOM= -104.9960
 kinetic energy error for atom=    0.0002 (will be added to EATOM!!)
 
 
 POSCAR: ba8 ge16                                
  positions in cartesian coordinates
  No initial velocities read in
 exchange correlation table for  LEXCH =       43
   RHO(1)=    0.500       N(1)  =     2000
   RHO(2)=  100.500       N(2)  =     4000
 


--------------------------------------------------------------------------------------------------------


 ion  position               nearest neighbor table
   1  0.015  0.250  0.691-  24 3.40  18 3.40  13 3.45  10 3.45  16 3.45  11 3.45  21 3.60  17 3.63
                            17 3.63   5 4.41   5 4.41   7 4.42   4 4.71   4 4.71
   2  0.985  0.750  0.309-  23 3.40  17 3.40   9 3.45  14 3.45  12 3.45  15 3.45  22 3.60  18 3.63
                            18 3.63   6 4.41   6 4.41   8 4.42   3 4.71   3 4.71
   3  0.485  0.750  0.191-  22 3.40  20 3.40  12 3.45  15 3.45   9 3.45  14 3.45  23 3.60  19 3.63
                            19 3.63   7 4.41   7 4.41   5 4.42   2 4.71   2 4.71
   4  0.515  0.250  0.809-  21 3.40  19 3.40  16 3.45  11 3.45  13 3.45  10 3.45  24 3.60  20 3.63
                            20 3.63   8 4.41   8 4.41   6 4.42   1 4.71   1 4.71
   5  0.159  0.750  0.907-  10 3.46  13 3.46  21 3.48  21 3.48  11 3.50  16 3.50  22 3.54   9 3.55
                            14 3.55  17 3.71  20 3.82   1 4.41   1 4.41   3 4.42
   6  0.841  0.250  0.093-  14 3.46   9 3.46  22 3.48  22 3.48  15 3.50  12 3.50  21 3.54  13 3.55
                            10 3.55  18 3.71  19 3.82   2 4.41   2 4.41   4 4.42
   7  0.341  0.250  0.407-  15 3.46  12 3.46  23 3.48  23 3.48  14 3.50   9 3.50  24 3.54  16 3.55
                            11 3.55  19 3.71  18 3.82   3 4.41   3 4.41   1 4.42
   8  0.659  0.750  0.593-  11 3.46  16 3.46  24 3.48  24 3.48  10 3.50  13 3.50  23 3.54  12 3.55
                            15 3.55  20 3.71  17 3.82   4 4.41   4 4.41   2 4.42
   9  0.194  0.073  0.147-  14 2.41  21 2.41  19 2.42   2 3.45   3 3.45   6 3.46   7 3.50   5 3.55

  10  0.806  0.927  0.853-  13 2.41  22 2.41  20 2.42   1 3.45   4 3.45   5 3.46   8 3.50   6 3.55

  11  0.306  0.927  0.647-  16 2.41  23 2.41  17 2.42   4 3.45   1 3.45   8 3.46   5 3.50   7 3.55

  12  0.694  0.073  0.353-  15 2.41  24 2.41  18 2.42   3 3.45   2 3.45   7 3.46   6 3.50   8 3.55

  13  0.806  0.573  0.853-  10 2.41  22 2.41  20 2.42   1 3.45   4 3.45   5 3.46   8 3.50   6 3.55

  14  0.194  0.427  0.147-   9 2.41  21 2.41  19 2.42   2 3.45   3 3.45   6 3.46   7 3.50   5 3.55

  15  0.694  0.427  0.353-  12 2.41  24 2.41  18 2.42   3 3.45   2 3.45   7 3.46   6 3.50   8 3.55

  16  0.306  0.573  0.647-  11 2.41  23 2.41  17 2.42   4 3.45   1 3.45   8 3.46   5 3.50   7 3.55

  17  0.083  0.750  0.592-  11 2.42  16 2.42  23 2.45   2 3.40   1 3.63   1 3.63   5 3.71   8 3.82

  18  0.917  0.250  0.408-  15 2.42  12 2.42  24 2.45   1 3.40   2 3.63   2 3.63   6 3.71   7 3.82

  19  0.417  0.250  0.092-  14 2.42   9 2.42  21 2.45   4 3.40   3 3.63   3 3.63   7 3.71   6 3.82

  20  0.583  0.750  0.908-  10 2.42  13 2.42  22 2.45   3 3.40   4 3.63   4 3.63   8 3.71   5 3.82

  21  0.198  0.250  0.967-  14 2.41   9 2.41  19 2.45   4 3.40   5 3.48   5 3.48   6 3.54   1 3.60

  22  0.802  0.750  0.033-  10 2.41  13 2.41  20 2.45   3 3.40   6 3.48   6 3.48   5 3.54   2 3.60

  23  0.302  0.750  0.467-  11 2.41  16 2.41  17 2.45   2 3.40   7 3.48   7 3.48   8 3.54   3 3.60

  24  0.698  0.250  0.533-  15 2.41  12 2.41  18 2.45   1 3.40   8 3.48   8 3.48   7 3.54   4 3.60

 
  LATTYP: Found a simple orthorhombic cell.
 ALAT       =     6.7778496742
 B/A-ratio  =     1.3292516818
 C/A-ratio  =     1.7117734747
  
  Lattice vectors:
  
 A1 = (   0.0000000000,  -6.7778496742,   0.0000000000)
 A2 = (  -9.0094680786,   0.0000000000,   0.0000000000)
 A3 = (   0.0000000000,   0.0000000000, -11.6021432877)


Analysis of symmetry for initial positions (statically):
=====================================================================
 Subroutine PRICEL returns:
 Original cell was already a primitive cell.
 

 Routine SETGRP: Setting up the symmetry group for a 
 simple orthorhombic supercell.


 Subroutine GETGRP returns: Found  8 space group operations
 (whereof  2 operations were pure point group operations)
 out of a pool of  8 trial point group operations.


The static configuration has the point symmetry S_2 .
 The point group associated with its full space group is D_2h.


Analysis of symmetry for dynamics (positions and initial velocities):
=====================================================================
 Subroutine PRICEL returns:
 Original cell was already a primitive cell.
 

 Routine SETGRP: Setting up the symmetry group for a 
 simple orthorhombic supercell.


 Subroutine GETGRP returns: Found  8 space group operations
 (whereof  2 operations were pure point group operations)
 out of a pool of  8 trial point group operations.


The dynamic configuration has the point symmetry S_2 .
 The point group associated with its full space group is D_2h.


 Subroutine INISYM returns: Found  8 space group operations
 (whereof  2 operations are pure point group operations),
 and found     1 'primitive' translations

 
 
 KPOINTS: k-density: 6.0                          

Automatic generation of k-mesh.
Space group operators:
 irot       det(A)        alpha          n_x          n_y          n_z        tau_x        tau_y        tau_z
    1     1.000000     0.000000     1.000000     0.000000     0.000000     0.000000     0.000000     0.000000
    2    -1.000000     0.000000     1.000000     0.000000     0.000000     0.000000     0.000000     0.000000
    3     1.000000   180.000000     0.000000     0.000000     1.000000    -0.500000     0.000000    -0.500000
    4    -1.000000   180.000000     0.000000     0.000000     1.000000    -0.500000     0.000000    -0.500000
    5     1.000000   180.000000     1.000000     0.000000     0.000000    -0.500000    -0.500000    -0.500000
    6    -1.000000   180.000000     1.000000     0.000000     0.000000    -0.500000    -0.500000    -0.500000
    7     1.000000   180.000000     0.000000     1.000000     0.000000    -0.000000    -0.500000    -0.000000
    8    -1.000000   180.000000     0.000000     1.000000     0.000000     0.000000    -0.500000     0.000000
 
 Subroutine IBZKPT returns following result:
 ===========================================
 
 Found     36 irreducible k-points:
 
 Following reciprocal coordinates:
            Coordinates               Weight
  0.000000  0.000000  0.000000      1.000000
  0.200000  0.000000  0.000000      2.000000
  0.400000  0.000000  0.000000      2.000000
  0.000000  0.166667  0.000000      2.000000
  0.200000  0.166667  0.000000      4.000000
  0.400000  0.166667  0.000000      4.000000
  0.000000  0.333333  0.000000      2.000000
  0.200000  0.333333  0.000000      4.000000
  0.400000  0.333333  0.000000      4.000000
  0.000000  0.500000  0.000000      1.000000
  0.200000  0.500000  0.000000      2.000000
  0.400000  0.500000  0.000000      2.000000
  0.000000  0.000000  0.250000      2.000000
  0.200000  0.000000  0.250000      4.000000
  0.400000  0.000000  0.250000      4.000000
  0.000000  0.166667  0.250000      4.000000
  0.200000  0.166667  0.250000      8.000000
  0.400000  0.166667  0.250000      8.000000
  0.000000  0.333333  0.250000      4.000000
  0.200000  0.333333  0.250000      8.000000
  0.400000  0.333333  0.250000      8.000000
  0.000000  0.500000  0.250000      2.000000
  0.200000  0.500000  0.250000      4.000000
  0.400000  0.500000  0.250000      4.000000
  0.000000  0.000000  0.500000      1.000000
  0.200000  0.000000  0.500000      2.000000
  0.400000  0.000000  0.500000      2.000000
  0.000000  0.166667  0.500000      2.000000
  0.200000  0.166667  0.500000      4.000000
  0.400000  0.166667  0.500000      4.000000
  0.000000  0.333333  0.500000      2.000000
  0.200000  0.333333  0.500000      4.000000
  0.400000  0.333333  0.500000      4.000000
  0.000000  0.500000  0.500000      1.000000
  0.200000  0.500000  0.500000      2.000000
  0.400000  0.500000  0.500000      2.000000
 
 Following cartesian coordinates:
            Coordinates               Weight
  0.000000  0.000000  0.000000      1.000000
  0.022199  0.000000  0.000000      2.000000
  0.044398  0.000000  0.000000      2.000000
  0.000000  0.024590  0.000000      2.000000
  0.022199  0.024590  0.000000      4.000000
  0.044398  0.024590  0.000000      4.000000
  0.000000  0.049180  0.000000      2.000000
  0.022199  0.049180  0.000000      4.000000
  0.044398  0.049180  0.000000      4.000000
  0.000000  0.073770  0.000000      1.000000
  0.022199  0.073770  0.000000      2.000000
  0.044398  0.073770  0.000000      2.000000
  0.000000  0.000000  0.021548      2.000000
  0.022199  0.000000  0.021548      4.000000
  0.044398  0.000000  0.021548      4.000000
  0.000000  0.024590  0.021548      4.000000
  0.022199  0.024590  0.021548      8.000000
  0.044398  0.024590  0.021548      8.000000
  0.000000  0.049180  0.021548      4.000000
  0.022199  0.049180  0.021548      8.000000
  0.044398  0.049180  0.021548      8.000000
  0.000000  0.073770  0.021548      2.000000
  0.022199  0.073770  0.021548      4.000000
  0.044398  0.073770  0.021548      4.000000
  0.000000  0.000000  0.043095      1.000000
  0.022199  0.000000  0.043095      2.000000
  0.044398  0.000000  0.043095      2.000000
  0.000000  0.024590  0.043095      2.000000
  0.022199  0.024590  0.043095      4.000000
  0.044398  0.024590  0.043095      4.000000
  0.000000  0.049180  0.043095      2.000000
  0.022199  0.049180  0.043095      4.000000
  0.044398  0.049180  0.043095      4.000000
  0.000000  0.073770  0.043095      1.000000
  0.022199  0.073770  0.043095      2.000000
  0.044398  0.073770  0.043095      2.000000
 
 TETIRR: Found    360 inequivalent tetrahedra from      720


--------------------------------------------------------------------------------------------------------




 Dimension of arrays:
   k-points           NKPTS =     36   k-points in BZ     NKDIM =     36   number of bands    NBANDS=     88
   number of dos      NEDOS =    301   number of ions     NIONS =     24
   non local maximal  LDIM  =      6   non local SUM 2l+1 LMDIM =     18
   total plane-waves  NPLWV = 128000
   max r-space proj   IRMAX =   2946   max aug-charges    IRDMAX=  11507
   dimension x,y,z NGX =    50 NGY =   40 NGZ =   64
   dimension x,y,z NGXF=   100 NGYF=   80 NGZF=  128
   support grid    NGXF=   100 NGYF=   80 NGZF=  128
   ions per type =               8  16
   NGX,Y,Z   is equivalent  to a cutoff of   9.23,  9.81,  9.17 a.u.
   NGXF,Y,Z  is equivalent  to a cutoff of  18.45, 19.62, 18.34 a.u.

 SYSTEM =  unknown system                          
 POSCAR =  ba8 ge16                                

 Startparameter for this run:
   NWRITE =      2    write-flag & timer
   PREC   = normal    normal or accurate (medium, high low for compatibility)
   ISTART =      0    job   : 0-new  1-cont  2-samecut
   ICHARG =      2    charge: 1-file 2-atom 10-const
   ISPIN  =      1    spin polarized calculation?
   LNONCOLLINEAR =      F non collinear calculations
   LSORBIT =      F    spin-orbit coupling
   INIWAV =      1    electr: 0-lowe 1-rand  2-diag
   LASPH  =      T    aspherical Exc in radial PAW
   METAGGA=      F    non-selfconsistent MetaGGA calc.

 Electronic Relaxation 1
   ENCUT  =  500.0 eV  36.75 Ry    6.06 a.u.  16.43 12.36 21.15*2*pi/ulx,y,z
   ENINI  =  500.0     initial cutoff
   ENAUG  =  385.8 eV  augmentation charge cutoff
   NELM   =    100;   NELMIN=  2; NELMDL= -5     # of ELM steps 
   EDIFF  = 0.1E-05   stopping-criterion for ELM
   LREAL  =      T    real-space projection
   NLSPLINE    = F    spline interpolate recip. space projectors
   LCOMPAT=      F    compatible to vasp.4.4
   GGA_COMPAT  = T    GGA compatible to vasp.4.4-vasp.4.6
   LMAXPAW     = -100 max onsite density
   LMAXMIX     =    2 max onsite mixed and CHGCAR
   VOSKOWN=      0    Vosko Wilk Nusair interpolation
   ROPT   =   -0.00050  -0.00050
 Ionic relaxation
   EDIFFG = -.1E-01   stopping-criterion for IOM
   NSW    =    200    number of steps for IOM
   NBLOCK =      1;   KBLOCK =    200    inner block; outer block 
   IBRION =      2    ionic relax: 0-MD 1-quasi-New 2-CG
   NFREE  =      1    steps in history (QN), initial steepest desc. (CG)
   ISIF   =      3    stress and relaxation
   IWAVPR =     11    prediction:  0-non 1-charg 2-wave 3-comb
   ISYM   =      2    0-nonsym 1-usesym 2-fastsym
   LCORR  =      T    Harris-Foulkes like correction to forces

   POTIM  = 0.5000    time-step for ionic-motion
   TEIN   =    0.0    initial temperature
   TEBEG  =    0.0;   TEEND  =   0.0 temperature during run
   SMASS  =  -3.00    Nose mass-parameter (am)
   estimated Nose-frequenzy (Omega)   =  0.10E-29 period in steps =****** mass=  -0.185E-26a.u.
   SCALEE = 1.0000    scale energy and forces
   NPACO  =    256;   APACO  = 16.0  distance and # of slots for P.C.
   PSTRESS=    0.0 pullay stress

  Mass of Ions in am
   POMASS = 137.33 72.61
  Ionic Valenz
   ZVAL   =  10.00  4.00
  Atomic Wigner-Seitz radii
   RWIGS  =  -1.00 -1.00
  virtual crystal weights 
   VCA    =   1.00  1.00
   NELECT =     144.0000    total number of electrons
   NUPDOWN=      -1.0000    fix difference up-down

 DOS related values:
   EMIN   =  10.00;   EMAX   =-10.00  energy-range for DOS
   EFERMI =   0.00
   ISMEAR =    -5;   SIGMA  =   0.01  broadening in eV -4-tet -1-fermi 0-gaus

 Electronic relaxation 2 (details)
   IALGO  =     38    algorithm
   LDIAG  =      T    sub-space diagonalisation (order eigenvalues)
   LSUBROT=      F    optimize rotation matrix (better conditioning)
   TURBO    =      0    0=normal 1=particle mesh
   IRESTART =      0    0=no restart 2=restart with 2 vectors
   NREBOOT  =      0    no. of reboots
   NMIN     =      0    reboot dimension
   EREF     =   0.00    reference energy to select bands
   IMIX   =      4    mixing-type and parameters
     AMIX     =   0.40;   BMIX     =  1.00
     AMIX_MAG =   1.60;   BMIX_MAG =  1.00
     AMIN     =   0.10
     WC   =   100.;   INIMIX=   1;  MIXPRE=   1;  MAXMIX= -45

 Intra band minimization:
   WEIMIN = 0.0010     energy-eigenvalue tresh-hold
   EBREAK =  0.28E-08  absolut break condition
   DEPER  =   0.30     relativ break condition  

   TIME   =   0.40     timestep for ELM

  volume/ion in A,a.u.               =      29.52       199.21
  Fermi-wavevector in a.u.,A,eV,Ry     =   0.962541  1.818939 12.605595  0.926485
  Thomas-Fermi vector in A             =   2.092009
 
 Write flags
   LWAVE        =      T    write WAVECAR
   LDOWNSAMPLE  =      F    k-point downsampling of WAVECAR
   LCHARG       =      T    write CHGCAR
   LVTOT        =      F    write LOCPOT, total local potential
   LVHAR        =      F    write LOCPOT, Hartree potential only
   LELF         =      F    write electronic localiz. function (ELF)
   LORBIT       =      0    0 simple, 1 ext, 2 COOP (PROOUT), +10 PAW based schemes


 Dipole corrections
   LMONO  =      F    monopole corrections only (constant potential shift)
   LDIPOL =      F    correct potential (dipole corrections)
   IDIPOL =      0    1-x, 2-y, 3-z, 4-all directions 
   EPSILON=  1.0000000 bulk dielectric constant

 Exchange correlation treatment:
   GGA     =    MK    GGA type
   LEXCH   =    43    internal setting for exchange type
   VOSKOWN=      0    Vosko Wilk Nusair interpolation
   LHFCALC =     F    Hartree Fock is set to
   LHFONE  =     F    Hartree Fock one center treatment
   AEXX    =    0.0000 exact exchange contribution

 vdW DFT:
   LUSE_VDW   =     T    switch on vdW DFT
   Zab_VDW    =******    correlation parameter
   PARAM1     =0.1234
   PARAM2     =0.7114
   PARAM3     =0.0000
   -- rVV10 --
   BPARAM     = 6.3000
   CPARAM     = 0.0093

 Linear response parameters
   LEPSILON=     F    determine dielectric tensor
   LRPA    =     F    only Hartree local field effects (RPA)
   LNABLA  =     F    use nabla operator in PAW spheres
   LVEL    =     F    velocity operator in full k-point grid
   LINTERFAST=   F  fast interpolation
   KINTER  =     0    interpolate to denser k-point grid
   CSHIFT  =0.1000    complex shift for real part using Kramers Kronig
   OMEGAMAX=  -1.0    maximum frequency
   DEG_THRESHOLD= 0.2000000E-02 threshold for treating states as degnerate
   RTIME   =   -0.100 relaxation time in fs
  (WPLASMAI=    0.000 imaginary part of plasma frequency in eV, 0.658/RTIME)
   DFIELD  = 0.0000000 0.0000000 0.0000000 field for delta impulse in time
 
 Orbital magnetization related:
   ORBITALMAG=     F  switch on orbital magnetization
   LCHIMAG   =     F  perturbation theory with respect to B field
   DQ        =  0.001000  dq finite difference perturbation B field
   LLRAUG    =     F  two centre corrections for induced B field



--------------------------------------------------------------------------------------------------------


 conjugate gradient relaxation of ions
 charge density and potential will be updated during run
 non-spin polarized calculation
 Variant of blocked Davidson
 Davidson routine will perform the subspace rotation
 perform sub-space diagonalisation
    after iterative eigenvector-optimisation
 modified Broyden-mixing scheme, WC =      100.0
 initial mixing is a Kerker type mixing with AMIX =  0.4000 and BMIX =      1.0000
 Hartree-type preconditioning will be used
 using additional bands           16
 real space projection scheme for non local part
 use partial core corrections
 calculate Harris-corrections to forces 
   (improved forces if not selfconsistent)
 use gradient corrections 
 use of overlap-Matrix (Vanderbilt PP)
 Fermi weights with tetrahedron method with Bloechl corrections


--------------------------------------------------------------------------------------------------------


  energy-cutoff  :      500.00
  volume of cell :      708.48
      direct lattice vectors                 reciprocal lattice vectors
     9.009468079  0.000000000  0.000000000     0.110994344  0.000000000  0.000000000
     0.000000000  6.777849674  0.000000000     0.000000000  0.147539419  0.000000000
     0.000000000  0.000000000 11.602143288     0.000000000  0.000000000  0.086190971

  length of vectors
     9.009468079  6.777849674 11.602143288     0.110994344  0.147539419  0.086190971


 
 k-points in units of 2pi/SCALE and weight: k-density: 6.0                          
   0.00000000  0.00000000  0.00000000       0.008
   0.02219887  0.00000000  0.00000000       0.017
   0.04439774  0.00000000  0.00000000       0.017
   0.00000000  0.02458990  0.00000000       0.017
   0.02219887  0.02458990  0.00000000       0.033
   0.04439774  0.02458990  0.00000000       0.033
   0.00000000  0.04917981  0.00000000       0.017
   0.02219887  0.04917981  0.00000000       0.033
   0.04439774  0.04917981  0.00000000       0.033
   0.00000000  0.07376971  0.00000000       0.008
   0.02219887  0.07376971  0.00000000       0.017
   0.04439774  0.07376971  0.00000000       0.017
   0.00000000  0.00000000  0.02154774       0.017
   0.02219887  0.00000000  0.02154774       0.033
   0.04439774  0.00000000  0.02154774       0.033
   0.00000000  0.02458990  0.02154774       0.033
   0.02219887  0.02458990  0.02154774       0.067
   0.04439774  0.02458990  0.02154774       0.067
   0.00000000  0.04917981  0.02154774       0.033
   0.02219887  0.04917981  0.02154774       0.067
   0.04439774  0.04917981  0.02154774       0.067
   0.00000000  0.07376971  0.02154774       0.017
   0.02219887  0.07376971  0.02154774       0.033
   0.04439774  0.07376971  0.02154774       0.033
   0.00000000  0.00000000  0.04309549       0.008
   0.02219887  0.00000000  0.04309549       0.017
   0.04439774  0.00000000  0.04309549       0.017
   0.00000000  0.02458990  0.04309549       0.017
   0.02219887  0.02458990  0.04309549       0.033
   0.04439774  0.02458990  0.04309549       0.033
   0.00000000  0.04917981  0.04309549       0.017
   0.02219887  0.04917981  0.04309549       0.033
   0.04439774  0.04917981  0.04309549       0.033
   0.00000000  0.07376971  0.04309549       0.008
   0.02219887  0.07376971  0.04309549       0.017
   0.04439774  0.07376971  0.04309549       0.017
 
 k-points in reciprocal lattice and weights: k-density: 6.0                          
   0.00000000  0.00000000  0.00000000       0.008
   0.20000000  0.00000000  0.00000000       0.017
   0.40000000  0.00000000  0.00000000       0.017
   0.00000000  0.16666667  0.00000000       0.017
   0.20000000  0.16666667  0.00000000       0.033
   0.40000000  0.16666667  0.00000000       0.033
   0.00000000  0.33333333  0.00000000       0.017
   0.20000000  0.33333333  0.00000000       0.033
   0.40000000  0.33333333  0.00000000       0.033
   0.00000000  0.50000000  0.00000000       0.008
   0.20000000  0.50000000  0.00000000       0.017
   0.40000000  0.50000000  0.00000000       0.017
   0.00000000  0.00000000  0.25000000       0.017
   0.20000000  0.00000000  0.25000000       0.033
   0.40000000  0.00000000  0.25000000       0.033
   0.00000000  0.16666667  0.25000000       0.033
   0.20000000  0.16666667  0.25000000       0.067
   0.40000000  0.16666667  0.25000000       0.067
   0.00000000  0.33333333  0.25000000       0.033
   0.20000000  0.33333333  0.25000000       0.067
   0.40000000  0.33333333  0.25000000       0.067
   0.00000000  0.50000000  0.25000000       0.017
   0.20000000  0.50000000  0.25000000       0.033
   0.40000000  0.50000000  0.25000000       0.033
   0.00000000  0.00000000  0.50000000       0.008
   0.20000000  0.00000000  0.50000000       0.017
   0.40000000  0.00000000  0.50000000       0.017
   0.00000000  0.16666667  0.50000000       0.017
   0.20000000  0.16666667  0.50000000       0.033
   0.40000000  0.16666667  0.50000000       0.033
   0.00000000  0.33333333  0.50000000       0.017
   0.20000000  0.33333333  0.50000000       0.033
   0.40000000  0.33333333  0.50000000       0.033
   0.00000000  0.50000000  0.50000000       0.008
   0.20000000  0.50000000  0.50000000       0.017
   0.40000000  0.50000000  0.50000000       0.017
 
 position of ions in fractional coordinates (direct lattice) 
   0.01517300  0.25000000  0.69130999
   0.98482700  0.75000002  0.30869001
   0.48482700  0.75000002  0.19130993
   0.51517300  0.25000000  0.80869005
   0.15930900  0.75000002  0.90664998
   0.84069100  0.25000000  0.09335000
   0.34069100  0.25000000  0.40665007
   0.65930900  0.75000002  0.59334998
   0.19427001  0.07254100  0.14674400
   0.80572999  0.92745899  0.85325598
   0.30572999  0.92745899  0.64674402
   0.69427001  0.07254100  0.35325598
   0.80572999  0.57254101  0.85325598
   0.19427001  0.42745899  0.14674400
   0.69427001  0.42745899  0.35325598
   0.30572999  0.57254101  0.64674402
   0.08290500  0.75000002  0.59200102
   0.91709498  0.25000000  0.40799898
   0.41709501  0.25000000  0.09200096
   0.58290502  0.75000002  0.90799902
   0.19769400  0.25000000  0.96694000
   0.80230599  0.75000002  0.03306002
   0.30230599  0.75000002  0.46693992
   0.69769401  0.25000000  0.53306000
 
 position of ions in cartesian coordinates  (Angst):
   0.13670066  1.69446242  8.02067757
   8.87276745  5.08338737  3.58146572
   4.36803341  5.08338737  2.21960521
   4.64143467  1.69446242  9.38253784
   1.43528938  5.08338737 10.51908302
   7.57417870  1.69446242  1.08306003
   3.06944466  1.69446242  4.71801233
   5.94002342  5.08338737  6.88413143
   1.75026941  0.49167198  1.70254493
   7.25919867  6.28617763  9.89959812
   2.75446463  6.28617763  7.50361681
   6.25500345  0.49167198  4.09852648
   7.25919867  3.88059688  9.89959812
   1.75026941  2.89725280  1.70254493
   6.25500345  2.89725280  4.09852648
   2.75446463  3.88059688  7.50361681
   0.74692994  5.08338737  6.86848068
   8.26253796  1.69446242  4.73366260
   3.75780416  1.69446242  1.06740832
   5.25166416  5.08338737 10.53473473
   1.78111780  1.69446242 11.21857643
   7.22835016  5.08338737  0.38356703
   2.72361612  5.08338737  5.41750383
   6.28585196  1.69446242  6.18463850
 


--------------------------------------------------------------------------------------------------------


 k-point  1 :   0.0000 0.0000 0.0000  plane waves:   18015
 k-point  2 :   0.2000 0.0000 0.0000  plane waves:   18061
 k-point  3 :   0.4000 0.0000 0.0000  plane waves:   17963
 k-point  4 :   0.0000 0.1667 0.0000  plane waves:   17981
 k-point  5 :   0.2000 0.1667 0.0000  plane waves:   17995
 k-point  6 :   0.4000 0.1667 0.0000  plane waves:   17998
 k-point  7 :   0.0000 0.3333 0.0000  plane waves:   17997
 k-point  8 :   0.2000 0.3333 0.0000  plane waves:   17955
 k-point  9 :   0.4000 0.3333 0.0000  plane waves:   17977
 k-point 10 :   0.0000 0.5000 0.0000  plane waves:   17944
 k-point 11 :   0.2000 0.5000 0.0000  plane waves:   17950
 k-point 12 :   0.4000 0.5000 0.0000  plane waves:   17980
 k-point 13 :   0.0000 0.0000 0.2500  plane waves:   18014
 k-point 14 :   0.2000 0.0000 0.2500  plane waves:   18010
 k-point 15 :   0.4000 0.0000 0.2500  plane waves:   17976
 k-point 16 :   0.0000 0.1667 0.2500  plane waves:   17994
 k-point 17 :   0.2000 0.1667 0.2500  plane waves:   18005
 k-point 18 :   0.4000 0.1667 0.2500  plane waves:   17983
 k-point 19 :   0.0000 0.3333 0.2500  plane waves:   17983
 k-point 20 :   0.2000 0.3333 0.2500  plane waves:   17976
 k-point 21 :   0.4000 0.3333 0.2500  plane waves:   17972
 k-point 22 :   0.0000 0.5000 0.2500  plane waves:   17960
 k-point 23 :   0.2000 0.5000 0.2500  plane waves:   17998
 k-point 24 :   0.4000 0.5000 0.2500  plane waves:   17972
 k-point 25 :   0.0000 0.0000 0.5000  plane waves:   17962
 k-point 26 :   0.2000 0.0000 0.5000  plane waves:   17982
 k-point 27 :   0.4000 0.0000 0.5000  plane waves:   17990
 k-point 28 :   0.0000 0.1667 0.5000  plane waves:   17998
 k-point 29 :   0.2000 0.1667 0.5000  plane waves:   17996
 k-point 30 :   0.4000 0.1667 0.5000  plane waves:   17998
 k-point 31 :   0.0000 0.3333 0.5000  plane waves:   18010
 k-point 32 :   0.2000 0.3333 0.5000  plane waves:   18006
 k-point 33 :   0.4000 0.3333 0.5000  plane waves:   17968
 k-point 34 :   0.0000 0.5000 0.5000  plane waves:   18004
 k-point 35 :   0.2000 0.5000 0.5000  plane waves:   18000
 k-point 36 :   0.4000 0.5000 0.5000  plane waves:   17992

 maximum and minimum number of plane-waves per node :      4533     4466

 maximum number of plane-waves:     18061
 maximum index in each direction: 
   IXMAX=   16   IYMAX=   12   IZMAX=   21
   IXMIN=  -16   IYMIN=  -12   IZMIN=  -21


 real space projection operators:
  total allocation   :       5631.62 KBytes
  max/ min on nodes  :       1458.02       1357.79


 parallel 3D FFT for wavefunctions:
    minimum data exchange during FFTs selected (reduces bandwidth)
 parallel 3D FFT for charge:
    minimum data exchange during FFTs selected (reduces bandwidth)


 total amount of memory used by VASP MPI-rank0    68281. kBytes
=======================================================================

   base      :      30000. kBytes
   nonlr-proj:       2987. kBytes
   fftplans  :       2347. kBytes
   grid      :       3658. kBytes
   one-center:         93. kBytes
   wavefun   :      29196. kBytes
 
     INWAV:  cpu time    0.0000: real time    0.0000
 Broyden mixing: mesh for mixing (old mesh)
   NGX = 33   NGY = 25   NGZ = 43
  (NGX  =100   NGY  = 80   NGZ  =128)
  gives a total of  35475 points

 initial charge density was supplied:
 charge density of overlapping atoms calculated
 number of electron     144.0000000 magnetization 
 keeping initial charge density in first step


--------------------------------------------------------------------------------------------------------


 Maximum index for non-local projection operator          837
 Maximum index for augmentation-charges         1190 (set IRDMAX)


--------------------------------------------------------------------------------------------------------


 First call to EWALD:  gamma=   0.199
 Maximum number of real-space cells 3x 3x 2
 Maximum number of reciprocal cells 3x 2x 3

    FEWALD:  cpu time    0.0655: real time    0.0657


--------------------------------------- Iteration      1(   1)  ---------------------------------------


vdW kernel read from vdw_kernel.bindat
  0.0000  0.2424  0.5071  0.7962  1.1119  1.4567  1.8333  2.2446  2.6937  3.1842
  3.7199  4.3049  4.9438  5.6415  6.4036  7.2358  8.1446  9.1372 10.2212 11.4050
 12.6979 14.1099 15.6519 17.3360 19.1751 21.1837 23.3773 25.7729 28.3892 31.2465
 34.3669 37.7748 41.4965 45.5611 50.0000
 
    POTLOK:  cpu time    1.2314: real time    1.2825
    SETDIJ:  cpu time    0.1516: real time    0.1523
     EDDAV:  cpu time    2.3715: real time    2.3844
 BZINTS: Fermi energy: 11.309821;144.000000 electrons
         Band energy:  32.585939;  BLOECHL correction: -0.050278
       DOS:  cpu time    0.0465: real time    0.0466
    --------------------------------------------
      LOOP:  cpu time    3.8011: real time    3.8658

 eigenvalue-minimisations  :  6336
 total energy-change (2. order) : 0.9652849E+03  (-0.5685760E+04)
 number of electron     144.0000000 magnetization 
 augmentation part      144.0000000 magnetization 

 Free energy of the ion-electron system (eV)
  ---------------------------------------------------
  alpha Z        PSCENC =       582.27802504
  Ewald energy   TEWEN  =     -6374.53395873
  -Hartree energ DENC   =      -916.11639501
  -exchange      EXHF   =         0.00000000
  -V(xc)+E(xc)   XCENC  =        76.81150490
  PAW double counting   =      3830.93536921    -3573.11969757
  entropy T*S    EENTRO =         0.00000000
  eigenvalues    EBANDS =        32.58593937
  atomic energy  EATOM  =      7306.44410201
  Solvation  Ediel_sol  =         0.00000000
  ---------------------------------------------------
  free energy    TOTEN  =       965.28488922 eV

  energy without entropy =      965.28488922  energy(sigma->0) =      965.28488922


--------------------------------------------------------------------------------------------------------




--------------------------------------- Iteration      1(   2)  ---------------------------------------


     EDDAV:  cpu time    2.9446: real time    2.9526
 BZINTS: Fermi energy:  4.131750;144.000000 electrons
         Band energy:-926.400267;  BLOECHL correction: -0.000757
       DOS:  cpu time    0.0385: real time    0.0386
    --------------------------------------------
      LOOP:  cpu time    2.9832: real time    2.9912

 eigenvalue-minimisations  :  8408
 total energy-change (2. order) :-0.9589862E+03  (-0.9288331E+03)
 number of electron     144.0000000 magnetization 
 augmentation part      144.0000000 magnetization 

 Free energy of the ion-electron system (eV)
  ---------------------------------------------------
  alpha Z        PSCENC =       582.27802504
  Ewald energy   TEWEN  =     -6374.53395873
  -Hartree energ DENC   =      -916.11639501
  -exchange      EXHF   =         0.00000000
  -V(xc)+E(xc)   XCENC  =        76.81150490
  PAW double counting   =      3830.93536921    -3573.11969757
  entropy T*S    EENTRO =         0.00000000
  eigenvalues    EBANDS =      -926.40026685
  atomic energy  EATOM  =      7306.44410201
  Solvation  Ediel_sol  =         0.00000000
  ---------------------------------------------------
  free energy    TOTEN  =         6.29868301 eV

  energy without entropy =        6.29868301  energy(sigma->0) =        6.29868301


--------------------------------------------------------------------------------------------------------




--------------------------------------- Iteration      1(   3)  ---------------------------------------


     EDDAV:  cpu time    2.7506: real time    2.7584
 BZINTS: Fermi energy:  2.321356;144.000000 electrons
         Band energy:***********;  BLOECHL correction:  0.000000
       DOS:  cpu time    0.0080: real time    0.0081
    --------------------------------------------
      LOOP:  cpu time    2.7586: real time    2.7665

 eigenvalue-minimisations  :  7664
 total energy-change (2. order) :-0.8943850E+02  (-0.8843086E+02)
 number of electron     144.0000000 magnetization 
 augmentation part      144.0000000 magnetization 

 Free energy of the ion-electron system (eV)
  ---------------------------------------------------
  alpha Z        PSCENC =       582.27802504
  Ewald energy   TEWEN  =     -6374.53395873
  -Hartree energ DENC   =      -916.11639501
  -exchange      EXHF   =         0.00000000
  -V(xc)+E(xc)   XCENC  =        76.81150490
  PAW double counting   =      3830.93536921    -3573.11969757
  entropy T*S    EENTRO =         0.00000000
  eigenvalues    EBANDS =     -1015.83876488
  atomic energy  EATOM  =      7306.44410201
  Solvation  Ediel_sol  =         0.00000000
  ---------------------------------------------------
  free energy    TOTEN  =       -83.13981503 eV

  energy without entropy =      -83.13981503  energy(sigma->0) =      -83.13981503


--------------------------------------------------------------------------------------------------------




--------------------------------------- Iteration      1(   4)  ---------------------------------------


     EDDAV:  cpu time    3.1362: real time    3.1447
 BZINTS: Fermi energy:  2.294217;144.000000 electrons
         Band energy:***********;  BLOECHL correction:  0.000000
       DOS:  cpu time    0.0080: real time    0.0080
    --------------------------------------------
      LOOP:  cpu time    3.1442: real time    3.1527

 eigenvalue-minimisations  :  9072
 total energy-change (2. order) :-0.2643611E+01  (-0.2634126E+01)
 number of electron     144.0000000 magnetization 
 augmentation part      144.0000000 magnetization 

 Free energy of the ion-electron system (eV)
  ---------------------------------------------------
  alpha Z        PSCENC =       582.27802504
  Ewald energy   TEWEN  =     -6374.53395873
  -Hartree energ DENC   =      -916.11639501
  -exchange      EXHF   =         0.00000000
  -V(xc)+E(xc)   XCENC  =        76.81150490
  PAW double counting   =      3830.93536921    -3573.11969757
  entropy T*S    EENTRO =         0.00000000
  eigenvalues    EBANDS =     -1018.48237567
  atomic energy  EATOM  =      7306.44410201
  Solvation  Ediel_sol  =         0.00000000
  ---------------------------------------------------
  free energy    TOTEN  =       -85.78342582 eV

  energy without entropy =      -85.78342582  energy(sigma->0) =      -85.78342582


--------------------------------------------------------------------------------------------------------




--------------------------------------- Iteration      1(   5)  ---------------------------------------


     EDDAV:  cpu time    2.9359: real time    2.9442
 BZINTS: Fermi energy:  2.239968;144.000000 electrons
         Band energy:***********;  BLOECHL correction:  0.000000
       DOS:  cpu time    0.0081: real time    0.0081
    CHARGE:  cpu time    0.0824: real time    0.0829
    MIXING:  cpu time    0.0029: real time    0.0033
    --------------------------------------------
      LOOP:  cpu time    3.0293: real time    3.0385

 eigenvalue-minimisations  :  8288
 total energy-change (2. order) :-0.9473403E-01  (-0.9468317E-01)
 number of electron     143.9999997 magnetization 
 augmentation part      -24.8664649 magnetization 

 Broyden mixing:
  rms(total) = 0.80114E+00    rms(broyden)= 0.80114E+00
  rms(prec ) = 0.11371E+01
  weight for this iteration     100.00

 Free energy of the ion-electron system (eV)
  ---------------------------------------------------
  alpha Z        PSCENC =       582.27802504
  Ewald energy   TEWEN  =     -6374.53395873
  -Hartree energ DENC   =      -916.11639501
  -exchange      EXHF   =         0.00000000
  -V(xc)+E(xc)   XCENC  =        76.81150490
  PAW double counting   =      3830.93536921    -3573.11969757
  entropy T*S    EENTRO =         0.00000000
  eigenvalues    EBANDS =     -1018.57710970
  atomic energy  EATOM  =      7306.44410201
  Solvation  Ediel_sol  =         0.00000000
  ---------------------------------------------------
  free energy    TOTEN  =       -85.87815985 eV

  energy without entropy =      -85.87815985  energy(sigma->0) =      -85.87815985


--------------------------------------------------------------------------------------------------------




--------------------------------------- Iteration      1(   6)  ---------------------------------------


    POTLOK:  cpu time    0.8571: real time    0.8601
    SETDIJ:  cpu time    0.1574: real time    0.1578
     EDDAV:  cpu time    2.6055: real time    2.6116
 BZINTS: Fermi energy:  2.624544;144.000000 electrons
         Band energy:***********;  BLOECHL correction:  0.000000
       DOS:  cpu time    0.0082: real time    0.0082
    CHARGE:  cpu time    0.1159: real time    0.1161
    MIXING:  cpu time    0.0033: real time    0.0033
    --------------------------------------------
      LOOP:  cpu time    3.7473: real time    3.7572

 eigenvalue-minimisations  :  7328
 total energy-change (2. order) : 0.2430126E+01  (-0.5452471E+00)
 number of electron     143.9999997 magnetization 
 augmentation part      -24.5949333 magnetization 

 Broyden mixing:
  rms(total) = 0.44295E+00    rms(broyden)= 0.44295E+00
  rms(prec ) = 0.56214E+00
  weight for this iteration     100.00

 eigenvalues of (default mixing * dielectric matrix)
  average eigenvalue GAMMA=   2.0277
  2.0277

 Free energy of the ion-electron system (eV)
  ---------------------------------------------------
  alpha Z        PSCENC =       582.27802504
  Ewald energy   TEWEN  =     -6374.53395873
  -Hartree energ DENC   =      -918.55993036
  -exchange      EXHF   =         0.00000000
  -V(xc)+E(xc)   XCENC  =        78.77304658
  PAW double counting   =      3940.67641258    -3690.79117103
  entropy T*S    EENTRO =         0.00000000
  eigenvalues    EBANDS =     -1007.73455953
  atomic energy  EATOM  =      7306.44410201
  Solvation  Ediel_sol  =         0.00000000
  ---------------------------------------------------
  free energy    TOTEN  =       -83.44803344 eV

  energy without entropy =      -83.44803344  energy(sigma->0) =      -83.44803344


--------------------------------------------------------------------------------------------------------




--------------------------------------- Iteration      1(   7)  ---------------------------------------


    POTLOK:  cpu time    0.8536: real time    0.8568
    SETDIJ:  cpu time    0.1525: real time    0.1529
     EDDAV:  cpu time    2.7842: real time    2.7918
 BZINTS: Fermi energy:  2.810257;144.000000 electrons
         Band energy:***********;  BLOECHL correction:  0.000000
       DOS:  cpu time    0.0081: real time    0.0081
    CHARGE:  cpu time    0.0760: real time    0.0762
    MIXING:  cpu time    0.0027: real time    0.0031
    --------------------------------------------
      LOOP:  cpu time    3.8773: real time    3.8888

 eigenvalue-minimisations  :  7800
 total energy-change (2. order) : 0.2195137E+00  (-0.2758620E+00)
 number of electron     143.9999997 magnetization 
 augmentation part      -24.4881292 magnetization 

 Broyden mixing:
  rms(total) = 0.15449E+00    rms(broyden)= 0.15449E+00
  rms(prec ) = 0.19436E+00
  weight for this iteration     100.00

 eigenvalues of (default mixing * dielectric matrix)
  average eigenvalue GAMMA=   1.9908
  1.5820  2.3996

 Free energy of the ion-electron system (eV)
  ---------------------------------------------------
  alpha Z        PSCENC =       582.27802504
  Ewald energy   TEWEN  =     -6374.53395873
  -Hartree energ DENC   =      -918.08893809
  -exchange      EXHF   =         0.00000000
  -V(xc)+E(xc)   XCENC  =        80.92129690
  PAW double counting   =      4064.02243562    -3821.79001302
  entropy T*S    EENTRO =         0.00000000
  eigenvalues    EBANDS =     -1002.48146945
  atomic energy  EATOM  =      7306.44410201
  Solvation  Ediel_sol  =         0.00000000
  ---------------------------------------------------
  free energy    TOTEN  =       -83.22851971 eV

  energy without entropy =      -83.22851971  energy(sigma->0) =      -83.22851971


--------------------------------------------------------------------------------------------------------




--------------------------------------- Iteration      1(   8)  ---------------------------------------


    POTLOK:  cpu time    0.8542: real time    0.8572
    SETDIJ:  cpu time    0.1511: real time    0.1514
     EDDAV:  cpu time    2.5430: real time    2.5490
 BZINTS: Fermi energy:  2.732559;144.000000 electrons
         Band energy:***********;  BLOECHL correction:  0.000000
       DOS:  cpu time    0.0080: real time    0.0080
    CHARGE:  cpu time    0.0748: real time    0.0750
    MIXING:  cpu time    0.0028: real time    0.0031
    --------------------------------------------
      LOOP:  cpu time    3.6338: real time    3.6437

 eigenvalue-minimisations  :  7136
 total energy-change (2. order) :-0.2240984E-01  (-0.6795610E-01)
 number of electron     143.9999997 magnetization 
 augmentation part      -24.6033944 magnetization 

 Broyden mixing:
  rms(total) = 0.43906E-01    rms(broyden)= 0.43905E-01
  rms(prec ) = 0.76547E-01
  weight for this iteration     100.00

 eigenvalues of (default mixing * dielectric matrix)
  average eigenvalue GAMMA=   1.7355
  2.6330  1.2868  1.2868

 Free energy of the ion-electron system (eV)
  ---------------------------------------------------
  alpha Z        PSCENC =       582.27802504
  Ewald energy   TEWEN  =     -6374.53395873
  -Hartree energ DENC   =      -917.43181069
  -exchange      EXHF   =         0.00000000
  -V(xc)+E(xc)   XCENC  =        81.91249333
  PAW double counting   =      4123.94016533    -3884.24210476
  entropy T*S    EENTRO =         0.00000000
  eigenvalues    EBANDS =     -1001.61784109
  atomic energy  EATOM  =      7306.44410201
  Solvation  Ediel_sol  =         0.00000000
  ---------------------------------------------------
  free energy    TOTEN  =       -83.25092956 eV

  energy without entropy =      -83.25092956  energy(sigma->0) =      -83.25092956


--------------------------------------------------------------------------------------------------------




--------------------------------------- Iteration      1(   9)  ---------------------------------------


    POTLOK:  cpu time    0.8519: real time    0.8552
    SETDIJ:  cpu time    0.1516: real time    0.1519
     EDDAV:  cpu time    2.6142: real time    2.6203
 BZINTS: Fermi energy:  2.820223;144.000000 electrons
         Band energy:-999.815961;  BLOECHL correction:  0.000000
       DOS:  cpu time    0.0093: real time    0.0094
    CHARGE:  cpu time    0.0749: real time    0.0751
    MIXING:  cpu time    0.0033: real time    0.0033
    --------------------------------------------
      LOOP:  cpu time    3.7052: real time    3.7153

 eigenvalue-minimisations  :  7136
 total energy-change (2. order) : 0.1212613E-01  (-0.1277270E-01)
 number of electron     143.9999997 magnetization 
 augmentation part      -24.5643106 magnetization 

 Broyden mixing:
  rms(total) = 0.13577E-01    rms(broyden)= 0.13576E-01
  rms(prec ) = 0.16914E-01
  weight for this iteration     100.00

 eigenvalues of (default mixing * dielectric matrix)
  average eigenvalue GAMMA=   1.7708
  2.6039  2.0769  1.2013  1.2013

 Free energy of the ion-electron system (eV)
  ---------------------------------------------------
  alpha Z        PSCENC =       582.27802504
  Ewald energy   TEWEN  =     -6374.53395873
  -Hartree energ DENC   =      -918.94482213
  -exchange      EXHF   =         0.00000000
  -V(xc)+E(xc)   XCENC  =        82.21974625
  PAW double counting   =      4135.79531988    -3896.68125453
  entropy T*S    EENTRO =         0.00000000
  eigenvalues    EBANDS =      -999.81596122
  atomic energy  EATOM  =      7306.44410201
  Solvation  Ediel_sol  =         0.00000000
  ---------------------------------------------------
  free energy    TOTEN  =       -83.23880343 eV

  energy without entropy =      -83.23880343  energy(sigma->0) =      -83.23880343


--------------------------------------------------------------------------------------------------------




--------------------------------------- Iteration      1(  10)  ---------------------------------------


    POTLOK:  cpu time    0.8523: real time    0.8553
    SETDIJ:  cpu time    0.1526: real time    0.1530
     EDDAV:  cpu time    2.8166: real time    2.8232
 BZINTS: Fermi energy:  2.821238;144.000000 electrons
         Band energy:-999.576520;  BLOECHL correction:  0.000000
       DOS:  cpu time    0.0093: real time    0.0093
    CHARGE:  cpu time    0.0749: real time    0.0750
    MIXING:  cpu time    0.0037: real time    0.0038
    --------------------------------------------
      LOOP:  cpu time    3.9094: real time    3.9195

 eigenvalue-minimisations  :  8056
 total energy-change (2. order) :-0.1201483E-02  (-0.1067712E-02)
 number of electron     143.9999997 magnetization 
 augmentation part      -24.5685443 magnetization 

 Broyden mixing:
  rms(total) = 0.63471E-02    rms(broyden)= 0.63471E-02
  rms(prec ) = 0.99656E-02
  weight for this iteration     100.00

 eigenvalues of (default mixing * dielectric matrix)
  average eigenvalue GAMMA=   1.7082
  2.8677  2.4426  1.1747  1.1747  0.8815

 Free energy of the ion-electron system (eV)
  ---------------------------------------------------
  alpha Z        PSCENC =       582.27802504
  Ewald energy   TEWEN  =     -6374.53395873
  -Hartree energ DENC   =      -919.48983767
  -exchange      EXHF   =         0.00000000
  -V(xc)+E(xc)   XCENC  =        82.24178830
  PAW double counting   =      4134.07758015    -3894.68118434
  entropy T*S    EENTRO =         0.00000000
  eigenvalues    EBANDS =      -999.57651968
  atomic energy  EATOM  =      7306.44410201
  Solvation  Ediel_sol  =         0.00000000
  ---------------------------------------------------
  free energy    TOTEN  =       -83.24000491 eV

  energy without entropy =      -83.24000491  energy(sigma->0) =      -83.24000491


--------------------------------------------------------------------------------------------------------




--------------------------------------- Iteration      1(  11)  ---------------------------------------


    POTLOK:  cpu time    0.8527: real time    0.8562
    SETDIJ:  cpu time    0.1512: real time    0.1515
     EDDAV:  cpu time    2.7157: real time    2.7221
 BZINTS: Fermi energy:  2.821953;144.000000 electrons
         Band energy:-999.479620;  BLOECHL correction:  0.000000
       DOS:  cpu time    0.0094: real time    0.0094
    CHARGE:  cpu time    0.0752: real time    0.0754
    MIXING:  cpu time    0.0036: real time    0.0037
    --------------------------------------------
      LOOP:  cpu time    3.8078: real time    3.8184

 eigenvalue-minimisations  :  7640
 total energy-change (2. order) : 0.5291495E-04  (-0.1435015E-03)
 number of electron     143.9999997 magnetization 
 augmentation part      -24.5705920 magnetization 

 Broyden mixing:
  rms(total) = 0.16615E-02    rms(broyden)= 0.16615E-02
  rms(prec ) = 0.23096E-02
  weight for this iteration     100.00

 eigenvalues of (default mixing * dielectric matrix)
  average eigenvalue GAMMA=   1.6469
  2.8976  2.3489  1.2901  1.0278  1.1584  1.1584

 Free energy of the ion-electron system (eV)
  ---------------------------------------------------
  alpha Z        PSCENC =       582.27802504
  Ewald energy   TEWEN  =     -6374.53395873
  -Hartree energ DENC   =      -919.66603074
  -exchange      EXHF   =         0.00000000
  -V(xc)+E(xc)   XCENC  =        82.26737059
  PAW double counting   =      4134.57228322    -3895.12212364
  entropy T*S    EENTRO =         0.00000000
  eigenvalues    EBANDS =      -999.47961974
  atomic energy  EATOM  =      7306.44410201
  Solvation  Ediel_sol  =         0.00000000
  ---------------------------------------------------
  free energy    TOTEN  =       -83.23995199 eV

  energy without entropy =      -83.23995199  energy(sigma->0) =      -83.23995199


--------------------------------------------------------------------------------------------------------




--------------------------------------- Iteration      1(  12)  ---------------------------------------


    POTLOK:  cpu time    0.8493: real time    0.8522
    SETDIJ:  cpu time    0.1521: real time    0.1524
     EDDAV:  cpu time    2.9691: real time    2.9761
 BZINTS: Fermi energy:  2.820635;144.000000 electrons
         Band energy:-999.476392;  BLOECHL correction:  0.000000
       DOS:  cpu time    0.0092: real time    0.0092
    CHARGE:  cpu time    0.0756: real time    0.0758
    MIXING:  cpu time    0.0034: real time    0.0034
    --------------------------------------------
      LOOP:  cpu time    4.0587: real time    4.0691

 eigenvalue-minimisations  :  8608
 total energy-change (2. order) :-0.2142179E-04  (-0.1947504E-04)
 number of electron     143.9999997 magnetization 
 augmentation part      -24.5693041 magnetization 

 Broyden mixing:
  rms(total) = 0.76980E-03    rms(broyden)= 0.76979E-03
  rms(prec ) = 0.10060E-02
  weight for this iteration     100.00

 eigenvalues of (default mixing * dielectric matrix)
  average eigenvalue GAMMA=   1.6854
  3.0297  2.4683  1.8607  1.2656  1.0164  1.0786  1.0786

 Free energy of the ion-electron system (eV)
  ---------------------------------------------------
  alpha Z        PSCENC =       582.27802504
  Ewald energy   TEWEN  =     -6374.53395873
  -Hartree energ DENC   =      -919.67952232
  -exchange      EXHF   =         0.00000000
  -V(xc)+E(xc)   XCENC  =        82.26980830
  PAW double counting   =      4134.36992544    -3894.91196149
  entropy T*S    EENTRO =         0.00000000
  eigenvalues    EBANDS =      -999.47639168
  atomic energy  EATOM  =      7306.44410201
  Solvation  Ediel_sol  =         0.00000000
  ---------------------------------------------------
  free energy    TOTEN  =       -83.23997342 eV

  energy without entropy =      -83.23997342  energy(sigma->0) =      -83.23997342


--------------------------------------------------------------------------------------------------------




--------------------------------------- Iteration      1(  13)  ---------------------------------------


    POTLOK:  cpu time    0.8605: real time    0.8636
    SETDIJ:  cpu time    0.1472: real time    0.1475
     EDDAV:  cpu time    2.5987: real time    2.6048
 BZINTS: Fermi energy:  2.819549;144.000000 electrons
         Band energy:-999.489292;  BLOECHL correction:  0.000000
       DOS:  cpu time    0.0094: real time    0.0094
    CHARGE:  cpu time    0.0756: real time    0.0758
    MIXING:  cpu time    0.0030: real time    0.0031
    --------------------------------------------
      LOOP:  cpu time    3.6943: real time    3.7042

 eigenvalue-minimisations  :  7072
 total energy-change (2. order) :-0.1647578E-05  (-0.2246089E-05)
 number of electron     143.9999997 magnetization 
 augmentation part      -24.5691440 magnetization 

 Broyden mixing:
  rms(total) = 0.52046E-03    rms(broyden)= 0.52046E-03
  rms(prec ) = 0.94474E-03
  weight for this iteration     100.00

 eigenvalues of (default mixing * dielectric matrix)
  average eigenvalue GAMMA=   1.6456
  3.0561  2.3361  2.3361  1.1176  1.1176  1.1597  1.1597  0.8820

 Free energy of the ion-electron system (eV)
  ---------------------------------------------------
  alpha Z        PSCENC =       582.27802504
  Ewald energy   TEWEN  =     -6374.53395873
  -Hartree energ DENC   =      -919.67642755
  -exchange      EXHF   =         0.00000000
  -V(xc)+E(xc)   XCENC  =        82.26900836
  PAW double counting   =      4134.09775183    -3894.62918450
  entropy T*S    EENTRO =         0.00000000
  eigenvalues    EBANDS =      -999.48929153
  atomic energy  EATOM  =      7306.44410201
  Solvation  Ediel_sol  =         0.00000000
  ---------------------------------------------------
  free energy    TOTEN  =       -83.23997506 eV

  energy without entropy =      -83.23997506  energy(sigma->0) =      -83.23997506


--------------------------------------------------------------------------------------------------------




--------------------------------------- Iteration      1(  14)  ---------------------------------------


    POTLOK:  cpu time    0.8510: real time    0.8542
    SETDIJ:  cpu time    0.1513: real time    0.1516
     EDDAV:  cpu time    2.2922: real time    2.2975
 BZINTS: Fermi energy:  2.818269;144.000000 electrons
         Band energy:-999.487162;  BLOECHL correction:  0.000000
       DOS:  cpu time    0.0093: real time    0.0093
    CHARGE:  cpu time    0.0755: real time    0.0757
    MIXING:  cpu time    0.0032: real time    0.0032
    --------------------------------------------
      LOOP:  cpu time    3.3823: real time    3.3914

 eigenvalue-minimisations  :  6064
 total energy-change (2. order) : 0.2475799E-05  (-0.1342624E-05)
 number of electron     143.9999997 magnetization 
 augmentation part      -24.5685004 magnetization 

 Broyden mixing:
  rms(total) = 0.13646E-03    rms(broyden)= 0.13645E-03
  rms(prec ) = 0.20647E-03
  weight for this iteration     100.00

 eigenvalues of (default mixing * dielectric matrix)
  average eigenvalue GAMMA=   1.6311
  3.0898  2.4556  2.2339  1.4469  1.1808  1.1808  1.0598  1.0160  1.0160

 Free energy of the ion-electron system (eV)
  ---------------------------------------------------
  alpha Z        PSCENC =       582.27802504
  Ewald energy   TEWEN  =     -6374.53395873
  -Hartree energ DENC   =      -919.67530799
  -exchange      EXHF   =         0.00000000
  -V(xc)+E(xc)   XCENC  =        82.26874959
  PAW double counting   =      4134.02386857    -3894.55828887
  entropy T*S    EENTRO =         0.00000000
  eigenvalues    EBANDS =      -999.48716222
  atomic energy  EATOM  =      7306.44410201
  Solvation  Ediel_sol  =         0.00000000
  ---------------------------------------------------
  free energy    TOTEN  =       -83.23997259 eV

  energy without entropy =      -83.23997259  energy(sigma->0) =      -83.23997259


--------------------------------------------------------------------------------------------------------




--------------------------------------- Iteration      1(  15)  ---------------------------------------


    POTLOK:  cpu time    0.8517: real time    0.8551
    SETDIJ:  cpu time    0.1524: real time    0.1528
     EDDAV:  cpu time    1.7546: real time    1.7598
 BZINTS: Fermi energy:  2.817212;144.000000 electrons
         Band energy:-999.486213;  BLOECHL correction:  0.000000
       DOS:  cpu time    0.0091: real time    0.0092
    --------------------------------------------
      LOOP:  cpu time    2.7679: real time    2.7769

 eigenvalue-minimisations  :  4080
 total energy-change (2. order) : 0.1426661E-06  (-0.1217640E-06)
 number of electron     143.9999997 magnetization 
 augmentation part      -24.5685004 magnetization 

 Free energy of the ion-electron system (eV)
  ---------------------------------------------------
  alpha Z        PSCENC =       582.27802504
  Ewald energy   TEWEN  =     -6374.53395873
  -Hartree energ DENC   =      -919.67578729
  -exchange      EXHF   =         0.00000000
  -V(xc)+E(xc)   XCENC  =        82.26857085
  PAW double counting   =      4134.00821836    -3894.54292922
  entropy T*S    EENTRO =         0.00000000
  eigenvalues    EBANDS =      -999.48621347
  atomic energy  EATOM  =      7306.44410201
  Solvation  Ediel_sol  =         0.00000000
  ---------------------------------------------------
  free energy    TOTEN  =       -83.23997245 eV

  energy without entropy =      -83.23997245  energy(sigma->0) =      -83.23997245


--------------------------------------------------------------------------------------------------------




 average (electrostatic) potential at core
  the test charge radii are     1.2192  1.1631
  (the norm of the test charge is              1.0000)
       1 -37.0646       2 -37.0645       3 -37.0645       4 -37.0646       5 -37.1024
       6 -37.1024       7 -37.1024       8 -37.1024       9 -33.0496      10 -33.0496
      11 -33.0496      12 -33.0496      13 -33.0496      14 -33.0496      15 -33.0496
      16 -33.0496      17 -33.0556      18 -33.0556      19 -33.0556      20 -33.0556
      21 -32.9951      22 -32.9951      23 -32.9951      24 -32.9951
 
 
 
 E-fermi :   2.8172     XC(G=0):  -8.9516     alpha+bet : -9.5119


 k-point     1 :       0.0000    0.0000    0.0000
  band No.  band energies     occupation 
      1     -24.9864      2.00000
      2     -24.9749      2.00000
      3     -24.9733      2.00000
      4     -24.9732      2.00000
      5     -24.9544      2.00000
      6     -24.9496      2.00000
      7     -24.9471      2.00000
      8     -24.9455      2.00000
      9     -10.6431      2.00000
     10     -10.6120      2.00000
     11     -10.5712      2.00000
     12     -10.4890      2.00000
     13     -10.4461      2.00000
     14     -10.4146      2.00000
     15     -10.3945      2.00000
     16     -10.3932      2.00000
     17     -10.3719      2.00000
     18     -10.3611      2.00000
     19     -10.3349      2.00000
     20     -10.3324      2.00000
     21     -10.3061      2.00000
     22     -10.2706      2.00000
     23     -10.2481      2.00000
     24     -10.2444      2.00000
     25     -10.2410      2.00000
     26     -10.2384      2.00000
     27     -10.2121      2.00000
     28     -10.2078      2.00000
     29     -10.2034      2.00000
     30     -10.1846      2.00000
     31     -10.1834      2.00000
     32     -10.1740      2.00000
     33      -9.2673      2.00000
     34      -8.9704      2.00000
     35      -8.9446      2.00000
     36      -8.8910      2.00000
     37      -4.1912      2.00000
     38      -4.1543      2.00000
     39      -3.9273      2.00000
     40      -3.9109      2.00000
     41      -3.8485      2.00000
     42      -3.8255      2.00000
     43      -3.8081      2.00000
     44      -3.7813      2.00000
     45      -3.7453      2.00000
     46      -3.6808      2.00000
     47      -3.6521      2.00000
     48      -3.5173      2.00000
     49      -0.8536      2.00000
     50       0.1728      2.00000
     51       0.3168      2.00000
     52       0.4050      2.00000
     53       0.4251      2.00000
     54       0.6615      2.00000
     55       0.9189      2.00000
     56       0.9422      2.00000
     57       1.0306      2.00000
     58       1.0508      2.00000
     59       1.0523      2.00000
     60       1.2269      2.00000
     61       1.2728      2.00000
     62       1.2848      2.00000
     63       1.4239      2.00000
     64       1.5140      2.00000
     65       1.6521      2.00000
     66       1.7222      2.00000
     67       1.7312      2.00000
     68       1.7641      2.00000
     69       2.1129      2.00000
     70       2.3549      2.00000
     71       2.3832      2.00000
     72       2.5452      2.00000
     73       3.8173      0.00000
     74       3.8317      0.00000
     75       4.1606      0.00000
     76       4.3020      0.00000
     77       4.3382      0.00000
     78       4.6557      0.00000
     79       4.7389      0.00000
     80       4.9039      0.00000
     81       5.1206      0.00000
     82       5.3028      0.00000
     83       5.3352      0.00000
     84       5.3497      0.00000
     85       5.4740      0.00000
     86       5.5345      0.00000
     87       5.5967      0.00000
     88       5.8526      0.00000

 k-point     2 :       0.2000    0.0000    0.0000
  band No.  band energies     occupation 
      1     -24.9854      2.00000
      2     -24.9758      2.00000
      3     -24.9735      2.00000
      4     -24.9733      2.00000
      5     -24.9540      2.00000
      6     -24.9500      2.00000
      7     -24.9469      2.00000
      8     -24.9456      2.00000
      9     -10.6524      2.00000
     10     -10.6003      2.00000
     11     -10.5790      2.00000
     12     -10.4786      2.00000
     13     -10.4217      2.00000
     14     -10.4028      2.00000
     15     -10.3916      2.00000
     16     -10.3892      2.00000
     17     -10.3781      2.00000
     18     -10.3751      2.00000
     19     -10.3414      2.00000
     20     -10.3396      2.00000
     21     -10.3315      2.00000
     22     -10.2651      2.00000
     23     -10.2597      2.00000
     24     -10.2419      2.00000
     25     -10.2350      2.00000
     26     -10.2350      2.00000
     27     -10.2235      2.00000
     28     -10.2093      2.00000
     29     -10.1988      2.00000
     30     -10.1960      2.00000
     31     -10.1941      2.00000
     32     -10.1701      2.00000
     33      -9.2129      2.00000
     34      -8.9574      2.00000
     35      -8.9544      2.00000
     36      -8.8901      2.00000
     37      -4.1892      2.00000
     38      -4.1504      2.00000
     39      -3.9713      2.00000
     40      -3.9125      2.00000
     41      -3.9117      2.00000
     42      -3.8288      2.00000
     43      -3.7845      2.00000
     44      -3.7645      2.00000
     45      -3.7254      2.00000
     46      -3.7053      2.00000
     47      -3.6700      2.00000
     48      -3.6258      2.00000
     49      -0.7205      2.00000
     50       0.2725      2.00000
     51       0.2765      2.00000
     52       0.3076      2.00000
     53       0.4270      2.00000
     54       0.8273      2.00000
     55       0.8719      2.00000
     56       0.9674      2.00000
     57       1.0865      2.00000
     58       1.1238      2.00000
     59       1.1453      2.00000
     60       1.2122      2.00000
     61       1.3874      2.00000
     62       1.3900      2.00000
     63       1.4267      2.00000
     64       1.5829      2.00000
     65       1.6582      2.00000
     66       1.6699      2.00000
     67       1.7485      2.00000
     68       1.8093      2.00000
     69       2.0952      2.00000
     70       2.3187      2.00000
     71       2.3848      2.00000
     72       2.4566      2.00000
     73       3.7635      0.00000
     74       3.8454      0.00000
     75       4.1048      0.00000
     76       4.2901      0.00000
     77       4.3014      0.00000
     78       4.6016      0.00000
     79       4.6071      0.00000
     80       4.6985      0.00000
     81       4.7915      0.00000
     82       5.1326      0.00000
     83       5.1821      0.00000
     84       5.5851      0.00000
     85       5.6673      0.00000
     86       5.6793      0.00000
     87       5.8273      0.00000
     88       5.9022      0.00000

 k-point     3 :       0.4000    0.0000    0.0000
  band No.  band energies     occupation 
      1     -24.9825      2.00000
      2     -24.9788      2.00000
      3     -24.9734      2.00000
      4     -24.9733      2.00000
      5     -24.9528      2.00000
      6     -24.9512      2.00000
      7     -24.9464      2.00000
      8     -24.9460      2.00000
      9     -10.6574      2.00000
     10     -10.6401      2.00000
     11     -10.4973      2.00000
     12     -10.4500      2.00000
     13     -10.4108      2.00000
     14     -10.4020      2.00000
     15     -10.4004      2.00000
     16     -10.3926      2.00000
     17     -10.3752      2.00000
     18     -10.3715      2.00000
     19     -10.3633      2.00000
     20     -10.3576      2.00000
     21     -10.3494      2.00000
     22     -10.3360      2.00000
     23     -10.2649      2.00000
     24     -10.2587      2.00000
     25     -10.2286      2.00000
     26     -10.2240      2.00000
     27     -10.2162      2.00000
     28     -10.2115      2.00000
     29     -10.2051      2.00000
     30     -10.1917      2.00000
     31     -10.1818      2.00000
     32     -10.1717      2.00000
     33      -9.1009      2.00000
     34      -9.0061      2.00000
     35      -8.9209      2.00000
     36      -8.8963      2.00000
     37      -4.1777      2.00000
     38      -4.1257      2.00000
     39      -4.0821      2.00000
     40      -3.9671      2.00000
     41      -3.8691      2.00000
     42      -3.8129      2.00000
     43      -3.7929      2.00000
     44      -3.7858      2.00000
     45      -3.7783      2.00000
     46      -3.7181      2.00000
     47      -3.7178      2.00000
     48      -3.7142      2.00000
     49      -0.4072      2.00000
     50      -0.0238      2.00000
     51       0.2512      2.00000
     52       0.2799      2.00000
     53       0.6650      2.00000
     54       0.8247      2.00000
     55       1.0326      2.00000
     56       1.0968      2.00000
     57       1.1103      2.00000
     58       1.1627      2.00000
     59       1.1973      2.00000
     60       1.3687      2.00000
     61       1.4958      2.00000
     62       1.5033      2.00000
     63       1.5258      2.00000
     64       1.5936      2.00000
     65       1.7292      2.00000
     66       1.7850      2.00000
     67       1.8238      2.00000
     68       1.9814      2.00000
     69       2.1040      2.00000
     70       2.1418      2.00000
     71       2.2159      2.00000
     72       2.2937      2.00000
     73       3.8638      0.00000
     74       3.9425      0.00000
     75       4.0549      0.00000
     76       4.1363      0.00000
     77       4.1409      0.00000
     78       4.1826      0.00000
     79       4.4140      0.00000
     80       4.4600      0.00000
     81       4.9660      0.00000
     82       5.1805      0.00000
     83       5.1849      0.00000
     84       5.3749      0.00000
     85       5.4387      0.00000
     86       5.5453      0.00000
     87       5.6491      0.00000
     88       5.7844      0.00000

 k-point     4 :       0.0000    0.1667    0.0000
  band No.  band energies     occupation 
      1     -24.9847      2.00000
      2     -24.9744      2.00000
      3     -24.9730      2.00000
      4     -24.9726      2.00000
      5     -24.9555      2.00000
      6     -24.9496      2.00000
      7     -24.9484      2.00000
      8     -24.9461      2.00000
      9     -10.6322      2.00000
     10     -10.6140      2.00000
     11     -10.6111      2.00000
     12     -10.4518      2.00000
     13     -10.4506      2.00000
     14     -10.4477      2.00000
     15     -10.4395      2.00000
     16     -10.4272      2.00000
     17     -10.3943      2.00000
     18     -10.3438      2.00000
     19     -10.3226      2.00000
     20     -10.3000      2.00000
     21     -10.2861      2.00000
     22     -10.2824      2.00000
     23     -10.2823      2.00000
     24     -10.2453      2.00000
     25     -10.2348      2.00000
     26     -10.2340      2.00000
     27     -10.2119      2.00000
     28     -10.2002      2.00000
     29     -10.1971      2.00000
     30     -10.1905      2.00000
     31     -10.1874      2.00000
     32     -10.1656      2.00000
     33      -9.1908      2.00000
     34      -8.9561      2.00000
     35      -8.9392      2.00000
     36      -8.8951      2.00000
     37      -4.1371      2.00000
     38      -4.1074      2.00000
     39      -3.9103      2.00000
     40      -3.9062      2.00000
     41      -3.8883      2.00000
     42      -3.8471      2.00000
     43      -3.8064      2.00000
     44      -3.7671      2.00000
     45      -3.7543      2.00000
     46      -3.7159      2.00000
     47      -3.6763      2.00000
     48      -3.5242      2.00000
     49      -0.6218      2.00000
     50       0.2442      2.00000
     51       0.3725      2.00000
     52       0.4441      2.00000
     53       0.4711      2.00000
     54       0.5744      2.00000
     55       0.6352      2.00000
     56       0.9975      2.00000
     57       1.0470      2.00000
     58       1.0948      2.00000
     59       1.1944      2.00000
     60       1.2256      2.00000
     61       1.2767      2.00000
     62       1.3480      2.00000
     63       1.4365      2.00000
[...]
     29     -10.2358      2.00000
     30     -10.2358      2.00000
     31     -10.2339      2.00000
     32     -10.2339      2.00000
     33      -7.9183      2.00000
     34      -7.9183      2.00000
     35      -7.9168      2.00000
     36      -7.9168      2.00000
     37      -4.3477      2.00000
     38      -4.3477      2.00000
     39      -4.0403      2.00000
     40      -4.0403      2.00000
     41      -3.9610      2.00000
     42      -3.9610      2.00000
     43      -3.8990      2.00000
     44      -3.8989      2.00000
     45      -3.8124      2.00000
     46      -3.8124      2.00000
     47      -3.6353      2.00000
     48      -3.6353      2.00000
     49       0.1315      2.00000
     50       0.1315      2.00000
     51       0.2274      2.00000
     52       0.2274      2.00000
     53       0.6247      2.00000
     54       0.6247      2.00000
     55       0.6723      2.00000
     56       0.6723      2.00000
     57       1.0493      2.00000
     58       1.0493      2.00000
     59       1.2267      2.00000
     60       1.2267      2.00000
     61       1.4622      2.00000
     62       1.4622      2.00000
     63       1.4878      2.00000
     64       1.4878      2.00000
     65       1.7335      2.00000
     66       1.7335      2.00000
     67       1.7775      2.00000
     68       1.7776      2.00000
     69       2.1457      2.00000
     70       2.1457      2.00000
     71       2.3821      2.00000
     72       2.3821      2.00000
     73       3.2757      0.00000
     74       3.2757      0.00000
     75       3.3774      0.00000
     76       3.3774      0.00000
     77       3.8196      0.00000
     78       3.8196      0.00000
     79       4.0037      0.00000
     80       4.0037      0.00000
     81       4.4662      0.00000
     82       4.4662      0.00000
     83       4.4750      0.00000
     84       4.4750      0.00000
     85       5.0050      0.00000
     86       5.0051      0.00000
     87       5.3378      0.00000
     88       5.3378      0.00000

 k-point    36 :       0.4000    0.5000    0.5000
  band No.  band energies     occupation 
      1     -25.0265      2.00000
      2     -25.0265      2.00000
      3     -25.0265      2.00000
      4     -25.0265      2.00000
      5     -25.0001      2.00000
      6     -25.0001      2.00000
      7     -24.9980      2.00000
      8     -24.9979      2.00000
      9     -10.6119      2.00000
     10     -10.6119      2.00000
     11     -10.5885      2.00000
     12     -10.5885      2.00000
     13     -10.5417      2.00000
     14     -10.5417      2.00000
     15     -10.5232      2.00000
     16     -10.5232      2.00000
     17     -10.4184      2.00000
     18     -10.4184      2.00000
     19     -10.3635      2.00000
     20     -10.3635      2.00000
     21     -10.3158      2.00000
     22     -10.3158      2.00000
     23     -10.3150      2.00000
     24     -10.3150      2.00000
     25     -10.2724      2.00000
     26     -10.2724      2.00000
     27     -10.2574      2.00000
     28     -10.2574      2.00000
     29     -10.2431      2.00000
     30     -10.2430      2.00000
     31     -10.2405      2.00000
     32     -10.2405      2.00000
     33      -7.9027      2.00000
     34      -7.9027      2.00000
     35      -7.9021      2.00000
     36      -7.9021      2.00000
     37      -4.2945      2.00000
     38      -4.2945      2.00000
     39      -4.1901      2.00000
     40      -4.1901      2.00000
     41      -3.9634      2.00000
     42      -3.9634      2.00000
     43      -3.9306      2.00000
     44      -3.9306      2.00000
     45      -3.7668      2.00000
     46      -3.7668      2.00000
     47      -3.6968      2.00000
     48      -3.6968      2.00000
     49       0.2592      2.00000
     50       0.2592      2.00000
     51       0.3583      2.00000
     52       0.3583      2.00000
     53       0.7223      2.00000
     54       0.7223      2.00000
     55       0.8454      2.00000
     56       0.8454      2.00000
     57       1.1002      2.00000
     58       1.1002      2.00000
     59       1.2499      2.00000
     60       1.2499      2.00000
     61       1.2998      2.00000
     62       1.2998      2.00000
     63       1.3774      2.00000
     64       1.3774      2.00000
     65       1.7548      2.00000
     66       1.7548      2.00000
     67       1.8289      2.00000
     68       1.8289      2.00000
     69       2.2567      2.00000
     70       2.2567      2.00000
     71       2.2730      2.00000
     72       2.2730      2.00000
     73       3.3282      0.00000
     74       3.3282      0.00000
     75       3.5035      0.00000
     76       3.5035      0.00000
     77       3.6699      0.00000
     78       3.6699      0.00000
     79       3.8993      0.00000
     80       3.8993      0.00000
     81       4.4492      0.00000
     82       4.4492      0.00000
     83       4.5612      0.00000
     84       4.5612      0.00000
     85       4.8944      0.00000
     86       4.8944      0.00000
     87       4.9355      0.00000
     88       4.9355      0.00000


--------------------------------------------------------------------------------------------------------


 soft charge-density along one line, spin component           1
         0         1         2         3         4         5         6         7         8         9
 total charge-density along one line
 
 pseudopotential strength for first ion, spin component:           1
  2.703  -4.678  -0.000   0.004   0.001  -0.000   0.002   0.001
 -4.678  -2.799   0.000  -0.001   0.000  -0.000   0.001   0.000
 -0.000   0.000  -7.326  -0.000  -0.000   1.272  -0.000  -0.000
  0.004  -0.001  -0.000  -7.325  -0.001  -0.000   1.275  -0.002
  0.001   0.000  -0.000  -0.001  -7.325  -0.000  -0.002   1.274
 -0.000  -0.000   1.272  -0.000  -0.000   7.377  -0.000  -0.000
  0.002   0.001  -0.000   1.275  -0.002  -0.000   7.377  -0.000
  0.001   0.000  -0.000  -0.002   1.274  -0.000  -0.000   7.377
 -0.000   0.000   0.000  -0.000  -0.000   0.000  -0.000  -0.000
 -0.000   0.000   0.001  -0.000  -0.000   0.001  -0.000  -0.000
  0.001  -0.000   0.000   0.001   0.000   0.000   0.001  -0.000
 -0.001   0.000  -0.000   0.001   0.001  -0.000   0.001   0.001
  0.000  -0.000   0.000  -0.000   0.001   0.000  -0.000   0.001
  0.000   0.000  -0.000   0.000   0.000   0.000   0.000   0.000
  0.000   0.000  -0.000   0.000   0.000  -0.000   0.000   0.000
 -0.000  -0.000  -0.000  -0.000   0.000  -0.000  -0.000  -0.000
  0.000   0.000   0.000  -0.000  -0.000   0.000  -0.000  -0.000
 -0.000  -0.000  -0.000   0.000  -0.000  -0.000   0.000  -0.000
 total augmentation occupancy for first ion, spin component:           1
  2.104  -0.249   0.000  -0.006  -0.003   0.000   0.003   0.001   0.000   0.000   0.005  -0.014  -0.000   0.000   0.000  -0.004
 -0.249   0.614  -0.000   0.017   0.009   0.000  -0.007  -0.002  -0.000   0.000  -0.010   0.027   0.002   0.000  -0.000   0.014
 -0.000   0.000   2.010   0.000   0.000  -0.012  -0.000   0.000  -0.015  -0.001  -0.000   0.000   0.000   0.020   0.004   0.000
 -0.006   0.017   0.000   2.006   0.003  -0.000  -0.010  -0.002   0.000   0.000   0.003   0.025   0.006   0.000   0.000   0.006
 -0.003   0.009   0.000   0.003   2.009   0.000  -0.002  -0.012   0.000  -0.000   0.014   0.011   0.015   0.000  -0.000  -0.020
 -0.000   0.000  -0.012   0.000   0.000   0.010   0.000   0.000   0.007   0.003  -0.000   0.000  -0.000  -0.011  -0.006   0.000
  0.003  -0.007   0.000  -0.010  -0.002   0.000   0.010   0.001  -0.000   0.000  -0.001  -0.009  -0.003   0.000   0.000   0.001
  0.001  -0.002   0.000  -0.002  -0.012   0.000   0.001   0.010   0.000   0.000  -0.006  -0.004  -0.006   0.000   0.000   0.010
  0.000   0.000  -0.015   0.000   0.000   0.007   0.000  -0.000   0.127  -0.038  -0.000   0.000   0.000  -0.231   0.072   0.000
 -0.000   0.000  -0.001   0.000   0.000   0.003   0.000   0.000  -0.038   0.082  -0.000   0.000  -0.000   0.072  -0.150  -0.000
  0.005  -0.010  -0.000   0.003   0.014  -0.000  -0.001  -0.006  -0.000  -0.000   0.111   0.029   0.014   0.000   0.000  -0.204
 -0.014   0.027   0.000   0.025   0.011   0.000  -0.009  -0.004   0.000   0.000   0.029   0.118   0.030   0.000   0.000  -0.054
 -0.000   0.002  -0.000   0.006   0.015  -0.000  -0.003  -0.006   0.000  -0.000   0.014   0.030   0.094   0.000   0.000  -0.020
  0.000  -0.000   0.020   0.000   0.000  -0.011   0.000  -0.000  -0.231   0.072   0.000   0.000   0.000   0.458  -0.152  -0.000
 -0.000   0.000   0.004   0.000  -0.000  -0.006   0.000   0.000   0.072  -0.150   0.000   0.000  -0.000  -0.152   0.295   0.000
 -0.004   0.014  -0.000   0.006  -0.020   0.000   0.001   0.010   0.000   0.000  -0.204  -0.054  -0.020  -0.000   0.000   0.403
  0.011  -0.032   0.000  -0.036  -0.005   0.000   0.016   0.005   0.000   0.000  -0.054  -0.213  -0.051  -0.000   0.000   0.116
  0.004  -0.013  -0.000  -0.004  -0.020   0.000   0.005   0.008   0.000  -0.000  -0.020  -0.052  -0.167   0.000   0.000   0.032


------------------------ aborting loop because EDIFF is reached ----------------------------------------


    CHARGE:  cpu time    0.0766: real time    0.0767
    FORLOC:  cpu time    0.0038: real time    0.0038
    FORNL :  cpu time    0.4051: real time    0.4061
    STRESS:  cpu time    1.2356: real time    1.2385
    FORCOR:  cpu time    0.8434: real time    0.8454
    FORHAR:  cpu time    0.0075: real time    0.0076
    MIXING:  cpu time    0.0028: real time    0.0028
    OFIELD:  cpu time    0.0000: real time    0.0000

  FORCE on cell =-STRESS in cart. coord.  units (eV):
  Direction    XX          YY          ZZ          XY          YZ          ZX
  --------------------------------------------------------------------------------------
  Alpha Z   571.07019   571.07019   571.07019
  Ewald   -2139.03136 -2126.81219 -2120.88642    -0.00000    -0.00000    -0.00012
  Hartree   291.92733   303.66012   301.95456     0.00000    -0.00000     0.00001
  E(xc)    -484.51153  -484.20874  -484.20578    -0.00000    -0.00000    -0.00000
  Local     204.15702   185.92696   183.01990     0.00000    -0.00000     0.00007
  n-local     8.26413     6.10853     6.60018    -0.17305    -0.04528    -0.05341
  augment   -48.57059   -48.03983   -48.09888    -0.00000    -0.00000    -0.00000
  Kinetic  1596.74605  1592.31639  1590.59444     0.77037    -0.99763     0.12882
  Fock        0.00000     0.00000     0.00000     0.00000     0.00000     0.00000
  -------------------------------------------------------------------------------------
  Total       0.05124     0.02143     0.04820    -0.00000     0.00000     0.00000
  in kB       0.11365     0.04753     0.10690    -0.00000     0.00000     0.00000
  external pressure =        0.09 kB  Pullay stress =        0.00 kB


 VOLUME and BASIS-vectors are now :
 -----------------------------------------------------------------------------
  energy-cutoff  :      500.00
  volume of cell :      722.39
      direct lattice vectors                 reciprocal lattice vectors
     9.091647024  0.000000000  0.000000000     0.109991072 -0.000000000  0.000000000
     0.000000000  6.832072653  0.000000000    -0.000000000  0.146368467  0.000000000
     0.000000000  0.000000000 11.629878346     0.000000000  0.000000000  0.085985422

  length of vectors
     9.091647024  6.832072653 11.629878346     0.109991072  0.146368467  0.085985422


 FORCES acting on ions
    electron-ion (+dipol)            ewald-force                    non-local-force                 convergence-correction
 -----------------------------------------------------------------------------------------------
   0.245E+01 0.814E-04 0.709E+01   -.273E+01 0.138E-04 -.747E+01   0.280E+00 0.107E-17 0.384E+00   0.439E-03 0.500E-10 0.159E-03
   -.245E+01 0.651E-05 -.709E+01   0.273E+01 -.193E-04 0.747E+01   -.280E+00 0.879E-18 -.384E+00   -.439E-03 -.554E-10 -.159E-03
   -.245E+01 0.263E-05 0.709E+01   0.273E+01 -.193E-04 -.747E+01   -.280E+00 0.145E-17 0.384E+00   -.439E-03 -.514E-09 0.159E-03
   0.245E+01 0.775E-04 -.709E+01   -.273E+01 0.138E-04 0.747E+01   0.280E+00 0.136E-17 -.384E+00   0.439E-03 -.408E-09 -.159E-03
   -.207E+02 0.487E-05 -.474E+01   0.198E+02 -.175E-04 0.476E+01   0.846E+00 0.126E-17 -.212E-01   -.151E-03 -.846E-09 -.238E-03
   0.207E+02 0.792E-04 0.474E+01   -.198E+02 0.167E-04 -.476E+01   -.846E+00 -.118E-17 0.212E-01   0.151E-03 0.249E-09 0.238E-03
   0.207E+02 0.788E-04 -.474E+01   -.198E+02 0.167E-04 0.476E+01   -.846E+00 0.229E-17 -.212E-01   0.151E-03 -.806E-10 -.238E-03
   -.207E+02 0.452E-05 0.474E+01   0.198E+02 -.175E-04 -.476E+01   0.846E+00 0.215E-17 0.212E-01   -.151E-03 -.118E-08 0.238E-03
   0.584E+01 0.189E+02 -.105E+02   -.644E+01 -.204E+02 0.114E+02   0.590E+00 0.147E+01 -.820E+00   0.335E-04 0.957E-04 0.212E-03
   -.584E+01 -.189E+02 0.105E+02   0.644E+01 0.204E+02 -.114E+02   -.590E+00 -.147E+01 0.820E+00   -.335E-04 -.957E-04 -.212E-03
   -.584E+01 -.189E+02 -.105E+02   0.644E+01 0.204E+02 0.114E+02   -.590E+00 -.147E+01 -.820E+00   -.335E-04 -.957E-04 0.212E-03
   0.584E+01 0.189E+02 0.105E+02   -.644E+01 -.204E+02 -.114E+02   0.590E+00 0.147E+01 0.820E+00   0.335E-04 0.957E-04 -.212E-03
   -.584E+01 0.189E+02 0.105E+02   0.644E+01 -.204E+02 -.114E+02   -.590E+00 0.147E+01 0.820E+00   -.335E-04 0.957E-04 -.212E-03
   0.584E+01 -.189E+02 -.105E+02   -.644E+01 0.204E+02 0.114E+02   0.590E+00 -.147E+01 -.820E+00   0.335E-04 -.957E-04 0.212E-03
   0.584E+01 -.189E+02 0.105E+02   -.644E+01 0.204E+02 -.114E+02   0.590E+00 -.147E+01 0.820E+00   0.335E-04 -.957E-04 -.212E-03
   -.584E+01 0.189E+02 -.105E+02   0.644E+01 -.204E+02 0.114E+02   -.590E+00 0.147E+01 -.820E+00   -.335E-04 0.957E-04 0.212E-03
   0.302E+02 -.103E-04 0.203E+01   -.321E+02 -.795E-05 -.240E+01   0.185E+01 -.226E-17 0.380E+00   -.587E-04 0.477E-09 0.341E-03
   -.302E+02 0.457E-05 -.203E+01   0.321E+02 0.806E-05 0.240E+01   -.185E+01 0.258E-17 -.380E+00   0.587E-04 0.276E-09 -.341E-03
   -.302E+02 0.106E-04 0.203E+01   0.321E+02 0.806E-05 -.240E+01   -.185E+01 -.417E-17 0.380E+00   0.587E-04 0.543E-10 0.341E-03
   0.302E+02 -.421E-05 -.203E+01   -.321E+02 -.795E-05 0.240E+01   0.185E+01 -.341E-17 -.380E+00   -.587E-04 0.254E-09 -.341E-03
   0.280E+01 0.117E-05 0.213E+02   -.313E+01 0.859E-05 -.231E+02   0.334E+00 -.796E-18 0.176E+01   -.913E-04 0.171E-09 0.723E-04
   -.280E+01 -.134E-04 -.213E+02   0.313E+01 -.914E-05 0.231E+02   -.334E+00 0.529E-18 -.176E+01   0.913E-04 -.540E-10 -.723E-04
   -.280E+01 -.505E-06 0.213E+02   0.313E+01 -.914E-05 -.231E+02   -.334E+00 0.146E-17 0.176E+01   0.913E-04 -.267E-09 0.723E-04
   0.280E+01 0.141E-04 -.213E+02   -.313E+01 0.859E-05 0.231E+02   0.334E+00 -.151E-17 -.176E+01   -.913E-04 -.422E-10 -.723E-04
 -----------------------------------------------------------------------------------------------
   -.316E-03 0.459E-03 0.116E-03   0.488E-14 0.262E-13 0.391E-13   -.278E-15 -.757E-17 0.222E-15   0.293E-09 -.159E-08 -.217E-08
 
 
 POSITION                                       TOTAL-FORCE (eV/Angst)
 -----------------------------------------------------------------------------------
      0.14336      1.70802      8.02947         0.001700     -0.000000     -0.003579
      8.94828      5.12405      3.60041        -0.001700     -0.000000      0.003579
      4.40246      5.12405      2.21453        -0.001700     -0.000000     -0.003579
      4.68919      1.70802      9.41535         0.001700     -0.000000      0.003579
      1.43229      5.12405     10.54725         0.000630     -0.000000     -0.002767
      7.65936      1.70802      1.08263        -0.000630     -0.000000      0.002767
      3.11354      1.70802      4.73231        -0.000630     -0.000000     -0.002767
      5.97811      5.12405      6.89757         0.000630     -0.000000      0.002767
      1.73124      0.41135      1.74658        -0.005996     -0.003760      0.002195
      7.36040      6.42072      9.88330         0.005996      0.003760     -0.002195
      2.81458      6.42072      7.56152         0.005996      0.003760      0.002195
      6.27707      0.41135      4.06836        -0.005996     -0.003760     -0.002195
      7.36040      3.82739      9.88330         0.005996     -0.003760     -0.002195
      1.73124      3.00468      1.74658        -0.005996      0.003760      0.002195
      6.27707      3.00468      4.06836        -0.005996      0.003760     -0.002195
      2.81458      3.82739      7.56152         0.005996     -0.003760      0.002195
      0.65415      5.12405      6.91025        -0.006149     -0.000000      0.006786
      8.43750      1.70802      4.71963         0.006149     -0.000000     -0.006786
      3.89167      1.70802      1.09531         0.006149     -0.000000      0.006786
      5.19997      5.12405     10.53457        -0.006149     -0.000000     -0.006786
      1.75601      1.70802     11.13417        -0.001177     -0.000000     -0.002364
      7.33564      5.12405      0.49571         0.001177     -0.000000      0.002364
      2.78981      5.12405      5.31923         0.001177     -0.000000     -0.002364
      6.30183      1.70802      6.31065        -0.001177     -0.000000      0.002364
 -----------------------------------------------------------------------------------
    total drift:                               -0.000316      0.000459      0.000116


--------------------------------------------------------------------------------------------------------



  FREE ENERGIE OF THE ION-ELECTRON SYSTEM (eV)
  ---------------------------------------------------
  free  energy   TOTEN  =       -85.59461770 eV

  energy  without entropy=      -85.59461770  energy(sigma->0) =      -85.59461770
 
 d Force = 0.2721670E-04[ 0.236E-04, 0.308E-04]  d Energy = 0.4443425E-04-0.172E-04
 d Force =-0.3489070E-02[-0.354E-02,-0.344E-02]  d Ewald  =-0.2768244E+00 0.273E+00


--------------------------------------------------------------------------------------------------------


    POTLOK:  cpu time    0.9938: real time    0.9962


--------------------------------------------------------------------------------------------------------


 Conjugate gradient step on ions:
 trial-energy change:   -0.000044  1 .order   -0.000046   -0.000060   -0.000033
  (g-gl).g = 0.120E-03      g.g   = 0.122E-03  gl.gl    = 0.750E-04
 g(Force)  = 0.832E-04   g(Stress)= 0.385E-04 ortho     =-0.214E-06
 gamma     =   1.59459
 trial     =   0.49368
 opt step  =   1.09723  (harmonic =   1.09723) maximal distance =0.00088021
 next E    =   -85.594640   (d E  =  -0.00007)


--------------------------------------------------------------------------------------------------------


  
 reached required accuracy - stopping structural energy minimisation
 writing wavefunctions
     LOOP+:  cpu time   20.3120: real time   20.7880
    4ORBIT:  cpu time    0.0000: real time    0.0000
 BZINTS: Fermi energy:  2.837535;144.000000 electrons
         Band energy:-998.845014;  BLOECHL correction:  0.000000

 total amount of memory used by VASP MPI-rank0    68281. kBytes
=======================================================================

   base      :      30000. kBytes
   nonlr-proj:       2987. kBytes
   fftplans  :       2347. kBytes
   grid      :       3658. kBytes
   one-center:         93. kBytes
   wavefun   :      29196. kBytes
 
  
  
 General timing and accounting informations for this job:
 ========================================================
  
                  Total CPU time used (sec):      644.764
                            User time (sec):      640.267
                          System time (sec):        4.498
                         Elapsed time (sec):      650.245
  
                   Maximum memory used (kb):      264884.
                   Average memory used (kb):           0.
  
                          Minor page faults:       114482
                          Major page faults:          320
                 Voluntary context switches:        21570
