<?xml version="1.0" encoding="ISO-8859-1"?>
<modeling>
 <generator>
  <i name="program" type="string">vasp </i>
  <i name="version" type="string">5.4.4.18Apr17-6-g9f103f2a35  </i>
  <i name="subversion" type="string">(build Nov 21 2017 15:30:27) complex            parallel </i>
  <i name="platform" type="string">LinuxIFC </i>
  <i name="date" type="string">2020 11 20 </i>
  <i name="time" type="string">15:11:43 </i>
 </generator>
 <incar>
  <i type="string" name="PREC">normal</i>
  <i type="int" name="ICHARG">    11</i>
  <i type="int" name="NELM">   100</i>
  <i name="EDIFF">      0.00000100</i>
  <i name="EDIFFG">     -0.01000000</i>
  <i name="ENCUT">    500.00000000</i>
  <i name="POTIM">      0.30000000</i>
  <i type="string" name="LREAL"> Auto       ! Projection in reciprocal s</i>
  <i type="int" name="ISMEAR">     0</i>
  <i name="SIGMA">      0.01000000</i>
  <i type="logical" name="LWAVE"> T  </i>
  <i type="logical" name="LCHARG"> T  </i>
  <i type="logical" name="LASPH"> T  </i>
  <v type="int" name="KPOINT_BSE">    -1     0     0     0</v>
  <i type="int" name="NELM">   100</i>
  <i type="string" name="GGA"> MK</i>
  <i name="PARAM1">      0.12340000</i>
  <i name="PARAM2">      0.71135700</i>
  <i type="logical" name="LUSE_VDW"> T  </i>
  <i name="Zab_VDW">     -1.88670000</i>
  <i name="AGGAC">      0.00000000</i>
  <i type="logical" name="LASPH"> T  </i>
 </incar>
 <structure name="primitive_cell" >
  <crystal>
   <varray name="basis" >
    <v>      42.02840424       0.00000000       0.00000000 </v>
    <v>       0.00000000       6.67066777       0.00000000 </v>
    <v>       0.00000000       0.00000000      11.42460441 </v>
   </varray>
   <i name="volume">   3202.97377925 </i>
   <varray name="rec_basis" >
    <v>       0.02379343       0.00000000       0.00000000 </v>
    <v>       0.00000000       0.14991003       0.00000000 </v>
    <v>       0.00000000       0.00000000       0.08753038 </v>
   </varray>
  </crystal>
  <varray name="positions" >
   <v>       0.00875685       0.25822077      -0.29178546 </v>
   <v>       0.03976862       0.25822024      -0.02957057 </v>
   <v>       0.06735738      -0.42118930      -0.35055135 </v>
   <v>       0.06737702      -0.06250113      -0.35073920 </v>
   <v>       0.01704370      -0.24179812      -0.37385287 </v>
   <v>       0.04696007      -0.24157564      -0.08016234 </v>
   <v>       0.07497987       0.25821314       0.40302193 </v>
   <v>       0.11163860       0.25783517      -0.18338233 </v>
   <v>       0.05617412      -0.24200174       0.46875959 </v>
   <v>       0.03946256       0.43807944       0.15352051 </v>
   <v>       0.03942250       0.07932052       0.15381473 </v>
   <v>       0.08812723       0.25841268       0.09018651 </v>
   <v>       0.14938730       0.25844408      -0.45656753 </v>
   <v>       0.12718590      -0.24210686      -0.08326367 </v>
   <v>       0.14242905      -0.24167817      -0.39664735 </v>
   <v>       0.14857840       0.07714445       0.36080366 </v>
   <v>       0.14857951       0.43959673       0.36072997 </v>
   <v>       0.17458386      -0.42350198      -0.13788131 </v>
   <v>       0.17466875      -0.06162753      -0.13799109 </v>
   <v>       0.10183913      -0.24144389       0.20031035 </v>
   <v>       0.17968187       0.25758573       0.10139480 </v>
   <v>       0.19621214       0.25844605       0.41572044 </v>
   <v>       0.17295282      -0.24237936       0.04523174 </v>
   <v>       0.21826010       0.25786537      -0.30205938 </v>
   <v>       0.23278215      -0.24219581      -0.40032918 </v>
   <v>       0.21118236      -0.24178181       0.31685325 </v>
   <v>       0.25635990       0.25755885      -0.02823588 </v>
   <v>       0.24912268      -0.24244482      -0.08617990 </v>
   <v>       0.25538028       0.43866745       0.15398930 </v>
   <v>       0.25541265       0.07771844       0.15423199 </v>
   <v>       0.28058944      -0.06133727      -0.34626017 </v>
   <v>       0.28061292      -0.42246155      -0.34619265 </v>
   <v>       0.27963697      -0.24201851       0.47137630 </v>
   <v>       0.28749576       0.25797300       0.41299042 </v>
   <v>       0.30325227       0.25827111       0.09985740 </v>
   <v>       0.32499971       0.25795302      -0.18262142 </v>
   <v>       0.33984624      -0.24220345      -0.08431737 </v>
   <v>       0.31809884      -0.24188536       0.19816145 </v>
   <v>       0.35560277      -0.24190534      -0.39745033 </v>
   <v>       0.36346155       0.25808617      -0.45583633 </v>
   <v>       0.36248562       0.43852920       0.36173270 </v>
   <v>       0.36250909       0.07740490       0.36180022 </v>
   <v>       0.38768588      -0.06165080      -0.13869196 </v>
   <v>       0.38771825      -0.42259981      -0.13844928 </v>
   <v>      -0.37394517       0.25786578       0.38939291 </v>
   <v>       0.38673865      -0.24149119       0.04377594 </v>
   <v>      -0.36565836      -0.24215311       0.30732551 </v>
   <v>       0.39397584       0.25851248       0.10171993 </v>
   <v>       0.41031634       0.25826347       0.41586923 </v>
   <v>      -0.39632398      -0.06325289      -0.13827471 </v>
   <v>      -0.39636404      -0.42201180      -0.13798048 </v>
   <v>      -0.39667008      -0.24215258       0.04511064 </v>
   <v>       0.43191618       0.25784947      -0.30131320 </v>
   <v>      -0.41307560       0.25806940      -0.45321963 </v>
   <v>      -0.40386156       0.25764330       0.09570237 </v>
   <v>       0.42483839      -0.24179771       0.31759942 </v>
   <v>      -0.42425888       0.43725694       0.36609139 </v>
   <v>      -0.42427852       0.07856877       0.36627925 </v>
   <v>       0.44688635      -0.24237839      -0.40018039 </v>
   <v>      -0.43188135      -0.24214548      -0.38748184 </v>
   <v>      -0.44502869      -0.24234502      -0.07464649 </v>
   <v>       0.46341667      -0.24151807      -0.08585478 </v>
   <v>       0.47014572       0.25844702      -0.02969167 </v>
   <v>      -0.45874059       0.25751155      -0.18477033 </v>
   <v>       0.46842978       0.07769516       0.15353111 </v>
   <v>       0.46851468       0.43956963       0.15342133 </v>
   <v>       0.49451902      -0.42352909      -0.34518992 </v>
   <v>       0.49452012      -0.06107682      -0.34526362 </v>
   <v>       0.49371124      -0.24237642       0.47210749 </v>
   <v>      -0.49933054       0.25774583       0.41218744 </v>
   <v>      -0.46854007      -0.24176751       0.19892236 </v>
   <v>      -0.48408736       0.25817452       0.09880369 </v>
  </varray>
 </structure>
 <varray name="primitive_index" >
  <v type="int" >        1 </v>
  <v type="int" >       61 </v>
  <v type="int" >       46 </v>
  <v type="int" >       31 </v>
  <v type="int" >       49 </v>
  <v type="int" >       13 </v>
  <v type="int" >       19 </v>
  <v type="int" >       10 </v>
  <v type="int" >       67 </v>
  <v type="int" >       40 </v>
  <v type="int" >       25 </v>
  <v type="int" >       55 </v>
  <v type="int" >       70 </v>
  <v type="int" >       58 </v>
  <v type="int" >       22 </v>
  <v type="int" >       34 </v>
  <v type="int" >       43 </v>
  <v type="int" >       37 </v>
  <v type="int" >       28 </v>
  <v type="int" >        7 </v>
  <v type="int" >       16 </v>
  <v type="int" >       52 </v>
  <v type="int" >       64 </v>
  <v type="int" >        2 </v>
  <v type="int" >       50 </v>
  <v type="int" >        4 </v>
  <v type="int" >       62 </v>
  <v type="int" >       14 </v>
  <v type="int" >       41 </v>
  <v type="int" >       26 </v>
  <v type="int" >       32 </v>
  <v type="int" >       47 </v>
  <v type="int" >       68 </v>
  <v type="int" >       20 </v>
  <v type="int" >       56 </v>
  <v type="int" >       11 </v>
  <v type="int" >       59 </v>
  <v type="int" >        8 </v>
  <v type="int" >       23 </v>
  <v type="int" >       71 </v>
  <v type="int" >       44 </v>
  <v type="int" >       35 </v>
  <v type="int" >       29 </v>
  <v type="int" >       38 </v>
  <v type="int" >       54 </v>
  <v type="int" >       65 </v>
  <v type="int" >        6 </v>
  <v type="int" >       17 </v>
  <v type="int" >       53 </v>
  <v type="int" >       30 </v>
  <v type="int" >       39 </v>
  <v type="int" >       66 </v>
  <v type="int" >        3 </v>
  <v type="int" >       72 </v>
  <v type="int" >       18 </v>
  <v type="int" >        5 </v>
  <v type="int" >       45 </v>
  <v type="int" >       36 </v>
  <v type="int" >       51 </v>
  <v type="int" >       24 </v>
  <v type="int" >       60 </v>
  <v type="int" >       15 </v>
  <v type="int" >       63 </v>
  <v type="int" >       12 </v>
  <v type="int" >       27 </v>
  <v type="int" >       42 </v>
  <v type="int" >       48 </v>
  <v type="int" >       33 </v>
  <v type="int" >       69 </v>
  <v type="int" >       21 </v>
  <v type="int" >        9 </v>
  <v type="int" >       57 </v>
 </varray>
 <kpoints>
  <generation param="listgenerated">
   <i name="divisions" type="int">      20 </i>
   <v>       0.00000000       0.00000000       0.00000000 </v>
   <v>       0.00000000       0.50000000       0.00000000 </v>
   <v>       0.00000000       0.50000000       0.50000000 </v>
   <v>       0.00000000       0.00000000       0.50000000 </v>
   <v>       0.00000000       0.00000000       0.00000000 </v>
  </generation>
  <varray name="kpointlist" >
   <v>       0.00000000       0.00000000       0.00000000 </v>
   <v>       0.00000000       0.02631579       0.00000000 </v>
   <v>       0.00000000       0.05263158       0.00000000 </v>
   <v>       0.00000000       0.07894737       0.00000000 </v>
   <v>       0.00000000       0.10526316       0.00000000 </v>
   <v>       0.00000000       0.13157895       0.00000000 </v>
   <v>       0.00000000       0.15789474       0.00000000 </v>
   <v>       0.00000000       0.18421053       0.00000000 </v>
   <v>       0.00000000       0.21052632       0.00000000 </v>
   <v>       0.00000000       0.23684211       0.00000000 </v>
   <v>       0.00000000       0.26315789       0.00000000 </v>
   <v>       0.00000000       0.28947368       0.00000000 </v>
   <v>       0.00000000       0.31578947       0.00000000 </v>
   <v>       0.00000000       0.34210526       0.00000000 </v>
   <v>       0.00000000       0.36842105       0.00000000 </v>
   <v>       0.00000000       0.39473684       0.00000000 </v>
   <v>       0.00000000       0.42105263       0.00000000 </v>
   <v>       0.00000000       0.44736842       0.00000000 </v>
   <v>       0.00000000       0.47368421       0.00000000 </v>
   <v>       0.00000000       0.50000000       0.00000000 </v>
   <v>       0.00000000       0.50000000       0.00000000 </v>
   <v>       0.00000000       0.50000000       0.02631579 </v>
   <v>       0.00000000       0.50000000       0.05263158 </v>
   <v>       0.00000000       0.50000000       0.07894737 </v>
   <v>       0.00000000       0.50000000       0.10526316 </v>
   <v>       0.00000000       0.50000000       0.13157895 </v>
   <v>       0.00000000       0.50000000       0.15789474 </v>
   <v>       0.00000000       0.50000000       0.18421053 </v>
   <v>       0.00000000       0.50000000       0.21052632 </v>
   <v>       0.00000000       0.50000000       0.23684211 </v>
   <v>       0.00000000       0.50000000       0.26315789 </v>
   <v>       0.00000000       0.50000000       0.28947368 </v>
   <v>       0.00000000       0.50000000       0.31578947 </v>
   <v>       0.00000000       0.50000000       0.34210526 </v>
   <v>       0.00000000       0.50000000       0.36842105 </v>
   <v>       0.00000000       0.50000000       0.39473684 </v>
   <v>       0.00000000       0.50000000       0.42105263 </v>
   <v>       0.00000000       0.50000000       0.44736842 </v>
   <v>       0.00000000       0.50000000       0.47368421 </v>
   <v>       0.00000000       0.50000000       0.50000000 </v>
   <v>       0.00000000       0.50000000       0.50000000 </v>
   <v>       0.00000000       0.47368421       0.50000000 </v>
   <v>       0.00000000       0.44736842       0.50000000 </v>
   <v>       0.00000000       0.42105263       0.50000000 </v>
   <v>       0.00000000       0.39473684       0.50000000 </v>
   <v>       0.00000000       0.36842105       0.50000000 </v>
   <v>       0.00000000       0.34210526       0.50000000 </v>
   <v>       0.00000000       0.31578947       0.50000000 </v>
   <v>       0.00000000       0.28947368       0.50000000 </v>
   <v>       0.00000000       0.26315789       0.50000000 </v>
   <v>       0.00000000       0.23684211       0.50000000 </v>
   <v>       0.00000000       0.21052632       0.50000000 </v>
   <v>       0.00000000       0.18421053       0.50000000 </v>
   <v>       0.00000000       0.15789474       0.50000000 </v>
   <v>       0.00000000       0.13157895       0.50000000 </v>
   <v>       0.00000000       0.10526316       0.50000000 </v>
   <v>       0.00000000       0.07894737       0.50000000 </v>
   <v>       0.00000000       0.05263158       0.50000000 </v>
   <v>       0.00000000       0.02631579       0.50000000 </v>
   <v>       0.00000000       0.00000000       0.50000000 </v>
   <v>       0.00000000       0.00000000       0.50000000 </v>
   <v>       0.00000000       0.00000000       0.47368421 </v>
   <v>       0.00000000       0.00000000       0.44736842 </v>
   <v>       0.00000000       0.00000000       0.42105263 </v>
   <v>       0.00000000       0.00000000       0.39473684 </v>
   <v>       0.00000000       0.00000000       0.36842105 </v>
   <v>       0.00000000       0.00000000       0.34210526 </v>
   <v>       0.00000000       0.00000000       0.31578947 </v>
   <v>       0.00000000       0.00000000       0.28947368 </v>
   <v>       0.00000000       0.00000000       0.26315789 </v>
   <v>       0.00000000       0.00000000       0.23684211 </v>
   <v>       0.00000000       0.00000000       0.21052632 </v>
   <v>       0.00000000       0.00000000       0.18421053 </v>
   <v>       0.00000000       0.00000000       0.15789474 </v>
   <v>       0.00000000       0.00000000       0.13157895 </v>
   <v>       0.00000000       0.00000000       0.10526316 </v>
   <v>       0.00000000       0.00000000       0.07894737 </v>
   <v>       0.00000000       0.00000000       0.05263158 </v>
   <v>       0.00000000       0.00000000       0.02631579 </v>
   <v>       0.00000000       0.00000000       0.00000000 </v>
  </varray>
  <varray name="weights" >
   <v>       0.01250000 </v>
   <v>       0.01250000 </v>
   <v>       0.01250000 </v>
   <v>       0.01250000 </v>
   <v>       0.01250000 </v>
   <v>       0.01250000 </v>
   <v>       0.01250000 </v>
   <v>       0.01250000 </v>
   <v>       0.01250000 </v>
   <v>       0.01250000 </v>
   <v>       0.01250000 </v>
   <v>       0.01250000 </v>
   <v>       0.01250000 </v>
   <v>       0.01250000 </v>
   <v>       0.01250000 </v>
   <v>       0.01250000 </v>
   <v>       0.01250000 </v>
   <v>       0.01250000 </v>
   <v>       0.01250000 </v>
   <v>       0.01250000 </v>
   <v>       0.01250000 </v>
   <v>       0.01250000 </v>
   <v>       0.01250000 </v>
   <v>       0.01250000 </v>
   <v>       0.01250000 </v>
   <v>       0.01250000 </v>
   <v>       0.01250000 </v>
   <v>       0.01250000 </v>
   <v>       0.01250000 </v>
   <v>       0.01250000 </v>
   <v>       0.01250000 </v>
   <v>       0.01250000 </v>
   <v>       0.01250000 </v>
   <v>       0.01250000 </v>
   <v>       0.01250000 </v>
   <v>       0.01250000 </v>
   <v>       0.01250000 </v>
   <v>       0.01250000 </v>
   <v>       0.01250000 </v>
   <v>       0.01250000 </v>
   <v>       0.01250000 </v>
   <v>       0.01250000 </v>
   <v>       0.01250000 </v>
   <v>       0.01250000 </v>
   <v>       0.01250000 </v>
   <v>       0.01250000 </v>
   <v>       0.01250000 </v>
   <v>       0.01250000 </v>
   <v>       0.01250000 </v>
   <v>       0.01250000 </v>
   <v>       0.01250000 </v>
   <v>       0.01250000 </v>
   <v>       0.01250000 </v>
   <v>       0.01250000 </v>
   <v>       0.01250000 </v>
   <v>       0.01250000 </v>
   <v>       0.01250000 </v>
   <v>       0.01250000 </v>
   <v>       0.01250000 </v>
   <v>       0.01250000 </v>
   <v>       0.01250000 </v>
   <v>       0.01250000 </v>
   <v>       0.01250000 </v>
   <v>       0.01250000 </v>
   <v>       0.01250000 </v>
   <v>       0.01250000 </v>
   <v>       0.01250000 </v>
   <v>       0.01250000 </v>
   <v>       0.01250000 </v>
   <v>       0.01250000 </v>
   <v>       0.01250000 </v>
   <v>       0.01250000 </v>
   <v>       0.01250000 </v>
   <v>       0.01250000 </v>
   <v>       0.01250000 </v>
   <v>       0.01250000 </v>
   <v>       0.01250000 </v>
   <v>       0.01250000 </v>
   <v>       0.01250000 </v>
   <v>       0.01250000 </v>
  </varray>
 </kpoints>
 <parameters>
  <separator name="general" >
   <i type="string" name="SYSTEM">unknown system</i>
   <i type="logical" name="LCOMPAT"> F  </i>
  </separator>
  <separator name="electronic" >
   <i type="string" name="PREC">normal</i>
   <i name="ENMAX">    500.00000000</i>
   <i name="ENAUG">    351.16500000</i>
   <i name="EDIFF">      0.00000100</i>
   <i type="int" name="IALGO">    38</i>
   <i type="int" name="IWAVPR">    10</i>
   <i type="int" name="NBANDS">   264</i>
   <i name="NELECT">    432.00000000</i>
   <i type="int" name="TURBO">     0</i>
   <i type="int" name="IRESTART">     0</i>
   <i type="int" name="NREBOOT">     0</i>
   <i type="int" name="NMIN">     0</i>
   <i name="EREF">      0.00000000</i>
   <separator name="electronic smearing" >
    <i type="int" name="ISMEAR">     0</i>
    <i name="SIGMA">      0.01000000</i>
    <i name="KSPACING">      0.50000000</i>
    <i type="logical" name="KGAMMA"> T  </i>
   </separator>
   <separator name="electronic projectors" >
    <i type="logical" name="LREAL"> T  </i>
    <v name="ROPT">     -0.00050000     -0.00050000</v>
    <i type="int" name="LMAXPAW">  -100</i>
    <i type="int" name="LMAXMIX">     2</i>
    <i type="logical" name="NLSPLINE"> F  </i>
   </separator>
   <separator name="electronic startup" >
    <i type="int" name="ISTART">     0</i>
    <i type="int" name="ICHARG">    11</i>
    <i type="int" name="INIWAV">     1</i>
   </separator>
   <separator name="electronic spin" >
    <i type="int" name="ISPIN">     1</i>
    <i type="logical" name="LNONCOLLINEAR"> F  </i>
    <v name="MAGMOM">      1.00000000      1.00000000      1.00000000      1.00000000      1.00000000      1.00000000      1.00000000      1.00000000      1.00000000      1.00000000      1.00000000      1.00000000      1.00000000      1.00000000      1.00000000      1.00000000      1.00000000      1.00000000      1.00000000      1.00000000
      1.00000000      1.00000000      1.00000000      1.00000000      1.00000000      1.00000000      1.00000000      1.00000000      1.00000000      1.00000000      1.00000000      1.00000000      1.00000000      1.00000000      1.00000000      1.00000000      1.00000000      1.00000000      1.00000000      1.00000000
      1.00000000      1.00000000      1.00000000      1.00000000      1.00000000      1.00000000      1.00000000      1.00000000      1.00000000      1.00000000      1.00000000      1.00000000      1.00000000      1.00000000      1.00000000      1.00000000      1.00000000      1.00000000      1.00000000      1.00000000
      1.00000000      1.00000000      1.00000000      1.00000000      1.00000000      1.00000000      1.00000000      1.00000000      1.00000000      1.00000000      1.00000000      1.00000000</v>
    <i name="NUPDOWN">     -1.00000000</i>
    <i type="logical" name="LSORBIT"> F  </i>
    <v name="SAXIS">      0.00000000      0.00000000      1.00000000</v>
    <i type="logical" name="LSPIRAL"> F  </i>
    <v name="QSPIRAL">      0.00000000      0.00000000      0.00000000</v>
    <i type="logical" name="LZEROZ"> F  </i>
   </separator>
   <separator name="electronic exchange-correlation" >
    <i type="logical" name="LASPH"> T  </i>
    <i type="logical" name="LMETAGGA"> F  </i>
   </separator>
   <separator name="electronic convergence" >
    <i type="int" name="NELM">   100</i>
    <i type="int" name="NELMDL">    -5</i>
    <i type="int" name="NELMIN">     2</i>
    <i name="ENINI">    500.00000000</i>
    <separator name="electronic convergence detail" >
     <i type="logical" name="LDIAG"> T  </i>
     <i type="logical" name="LSUBROT"> F  </i>
     <i name="WEIMIN">      0.00000000</i>
     <i name="EBREAK">      0.00000000</i>
     <i name="DEPER">      0.30000000</i>
     <i type="int" name="NRMM">     4</i>
     <i name="TIME">      0.40000000</i>
    </separator>
   </separator>
   <separator name="electronic mixer" >
    <i name="AMIX">      0.40000000</i>
    <i name="BMIX">      1.00000000</i>
    <i name="AMIN">      0.10000000</i>
    <i name="AMIX_MAG">      1.60000000</i>
    <i name="BMIX_MAG">      1.00000000</i>
    <separator name="electronic mixer details" >
     <i type="int" name="IMIX">     4</i>
     <i type="logical" name="MIXFIRST"> F  </i>
     <i type="int" name="MAXMIX">   -45</i>
     <i name="WC">    100.00000000</i>
     <i type="int" name="INIMIX">     1</i>
     <i type="int" name="MIXPRE">     1</i>
     <i type="int" name="MREMOVE">     5</i>
    </separator>
   </separator>
   <separator name="electronic dipolcorrection" >
    <i type="logical" name="LDIPOL"> F  </i>
    <i type="logical" name="LMONO"> F  </i>
    <i type="int" name="IDIPOL">     0</i>
    <i name="EPSILON">      1.00000000</i>
    <v name="DIPOL">   -100.00000000   -100.00000000   -100.00000000</v>
    <i name="EFIELD">      0.00000000</i>
   </separator>
  </separator>
  <separator name="grids" >
   <i type="int" name="NGX">   240</i>
   <i type="int" name="NGY">    36</i>
   <i type="int" name="NGZ">    64</i>
   <i type="int" name="NGXF">   480</i>
   <i type="int" name="NGYF">    72</i>
   <i type="int" name="NGZF">   128</i>
   <i type="logical" name="ADDGRID"> F  </i>
  </separator>
  <separator name="ionic" >
   <i type="int" name="NSW">     0</i>
   <i type="int" name="IBRION">    -1</i>
   <i type="int" name="MDALGO">     0</i>
   <i type="int" name="ISIF">     2</i>
   <i name="PSTRESS">      0.00000000</i>
   <i name="EDIFFG">     -0.01000000</i>
   <i type="int" name="NFREE">     0</i>
   <i name="POTIM">      0.30000000</i>
   <i name="SMASS">     -3.00000000</i>
   <i name="SCALEE">      1.00000000</i>
  </separator>
  <separator name="ionic md" >
   <i name="TEBEG">      0.00010000</i>
   <i name="TEEND">      0.00010000</i>
   <i type="int" name="NBLOCK">     1</i>
   <i type="int" name="KBLOCK">     1</i>
   <i type="int" name="NPACO">   256</i>
   <i name="APACO">     16.00000000</i>
  </separator>
  <separator name="symmetry" >
   <i type="int" name="ISYM">     2</i>
   <i name="SYMPREC">      0.00001000</i>
  </separator>
  <separator name="dos" >
   <i type="int" name="LORBIT">     0</i>
   <v name="RWIGS">     -1.00000000     -1.00000000</v>
   <i type="int" name="NEDOS">   301</i>
   <i name="EMIN">     10.00000000</i>
   <i name="EMAX">    -10.00000000</i>
   <i name="EFERMI">      0.00000000</i>
  </separator>
  <separator name="writing" >
   <i type="int" name="NWRITE">     2</i>
   <i type="logical" name="LWAVE"> T  </i>
   <i type="logical" name="LDOWNSAMPLE"> F  </i>
   <i type="logical" name="LCHARG"> T  </i>
   <i type="logical" name="LPARD"> F  </i>
   <i type="logical" name="LVTOT"> F  </i>
   <i type="logical" name="LVHAR"> F  </i>
   <i type="logical" name="LELF"> F  </i>
   <i type="logical" name="LOPTICS"> F  </i>
   <v name="STM">      0.00000000      0.00000000      0.00000000      0.00000000      0.00000000      0.00000000      0.00000000</v>
  </separator>
  <separator name="performance" >
   <i type="int" name="NPAR">     8</i>
   <i type="int" name="NSIM">     4</i>
   <i type="int" name="NBLK">    -1</i>
   <i type="logical" name="LPLANE"> T  </i>
   <i type="logical" name="LSCALAPACK"> T  </i>
   <i type="logical" name="LSCAAWARE"> F  </i>
   <i type="logical" name="LSCALU"> F  </i>
   <i type="logical" name="LASYNC"> F  </i>
   <i type="logical" name="LORBITALREAL"> F  </i>
  </separator>
  <separator name="miscellaneous" >
   <i type="int" name="IDIOT">     3</i>
   <i type="int" name="ISPECIAL">     0</i>
   <i type="logical" name="LMUSIC"> F  </i>
   <v name="POMASS">    137.32700000     28.08500000</v>
   <v name="DARWINR">      0.00000000      0.00000000</v>
   <v name="DARWINV">      1.00000000      1.00000000</v>
   <i type="logical" name="LCORR"> T  </i>
  </separator>
  <i type="logical" name="GGA_COMPAT"> T  </i>
  <i type="logical" name="LBERRY"> F  </i>
  <i type="int" name="ICORELEVEL">     0</i>
  <i type="logical" name="LDAU"> F  </i>
  <i type="int" name="I_CONSTRAINED_M">     0</i>
  <separator name="electronic exchange-correlation" >
   <i type="string" name="GGA">MK</i>
   <i type="int" name="VOSKOWN">     0</i>
   <i type="logical" name="LHFCALC"> F  </i>
   <i type="string" name="PRECFOCK"></i>
   <i type="logical" name="LSYMGRAD"> F  </i>
   <i type="logical" name="LHFONE"> F  </i>
   <i type="logical" name="LRHFCALC"> F  </i>
   <i type="logical" name="LTHOMAS"> F  </i>
   <i type="logical" name="LMODELHF"> F  </i>
   <i name="ENCUT4O">     -1.00000000</i>
   <i type="int" name="EXXOEP">     0</i>
   <i type="int" name="FOURORBIT">     0</i>
   <i name="AEXX">      0.00000000</i>
   <i name="HFALPHA">      0.00000000</i>
   <i name="MCALPHA">      0.00000000</i>
   <i name="ALDAX">      1.00000000</i>
   <i name="AGGAX">      1.00000000</i>
   <i name="ALDAC">      1.00000000</i>
   <i name="AGGAC">      0.00000000</i>
   <i type="int" name="NKREDX">     1</i>
   <i type="int" name="NKREDY">     1</i>
   <i type="int" name="NKREDZ">     1</i>
   <i type="logical" name="SHIFTRED"> F  </i>
   <i type="logical" name="ODDONLY"> F  </i>
   <i type="logical" name="EVENONLY"> F  </i>
   <i type="int" name="LMAXFOCK">     0</i>
   <i type="int" name="NMAXFOCKAE">     0</i>
   <i type="logical" name="LFOCKAEDFT"> F  </i>
   <i name="HFSCREEN">      0.00000000</i>
   <i name="HFSCREENC">      0.00000000</i>
   <i type="int" name="NBANDSGWLOW">     0</i>
  </separator>
  <separator name="vdW DFT" >
   <i type="logical" name="LUSE_VDW"> T  </i>
   <i name="Zab_VDW">     -1.88670000</i>
   <i name="PARAM1">      0.12340000</i>
   <i name="PARAM2">      0.71135700</i>
   <i name="PARAM3">      0.00000000</i>
  </separator>
  <separator name="model GW" >
   <i type="int" name="MODEL_GW">     0</i>
   <i name="MODEL_EPS0">     26.69144816</i>
   <i name="MODEL_ALPHA">      1.00000000</i>
  </separator>
  <separator name="linear response parameters" >
   <i type="logical" name="LEPSILON"> F  </i>
   <i type="logical" name="LRPA"> F  </i>
   <i type="logical" name="LNABLA"> F  </i>
   <i type="logical" name="LVEL"> F  </i>
   <i type="int" name="KINTER">     0</i>
   <i name="CSHIFT">      0.10000000</i>
   <i name="OMEGAMAX">     -1.00000000</i>
   <i name="DEG_THRESHOLD">      0.00200000</i>
   <i name="RTIME">     -0.10000000</i>
   <i name="WPLASMAI">      0.00000000</i>
   <v name="DFIELD">      0.00000000      0.00000000      0.00000000</v>
   <v name="WPLASMA">      0.00000000      0.00000000      0.00000000      0.00000000      0.00000000      0.00000000      0.00000000      0.00000000      0.00000000</v>
  </separator>
  <separator name="orbital magnetization" >
   <i type="logical" name="NUCIND"> F  </i>
   <v name="MAGPOS">      0.00000000      0.00000000      0.00000000</v>
   <i type="logical" name="LNICSALL"> T  </i>
   <i type="logical" name="ORBITALMAG"> F  </i>
   <i type="logical" name="LMAGBLOCH"> F  </i>
   <i type="logical" name="LCHIMAG"> F  </i>
   <i type="logical" name="LGAUGE"> T  </i>
   <i type="int" name="MAGATOM">     0</i>
   <v name="MAGDIPOL">      0.00000000      0.00000000      0.00000000</v>
   <v name="AVECCONST">      0.00000000      0.00000000      0.00000000</v>
  </separator>
  <separator name="response functions" >
   <i type="logical" name="LADDER"> F  </i>
   <i type="logical" name="LRPAFORCE"> F  </i>
   <i type="logical" name="LFXC"> F  </i>
   <i type="logical" name="LHARTREE"> T  </i>
   <i type="int" name="IBSE">     0</i>
   <v type="int" name="KPOINT">    -1     0     0     0</v>
   <i type="logical" name="LTCTE"> F  </i>
   <i type="logical" name="LTETE"> F  </i>
   <i type="logical" name="LTRIPLET"> F  </i>
   <i type="logical" name="LFXCEPS"> F  </i>
   <i type="logical" name="LFXHEG"> F  </i>
   <i type="int" name="NATURALO">     2</i>
   <i type="logical" name="L2ORDER"> F  </i>
   <i type="logical" name="LMP2LT"> F  </i>
   <i type="logical" name="LUSEW"> F  </i>
   <i name="ENCUTGW">     -2.00000000</i>
   <i name="ENCUTGWSOFT">     -2.00000000</i>
   <i name="ENCUTLF">     -1.00000000</i>
   <i type="int" name="LMAXMP2">    -1</i>
   <i name="SCISSOR">      0.00000000</i>
   <i type="int" name="NOMEGA">     0</i>
   <i type="int" name="NOMEGAR">     0</i>
   <i type="int" name="NBANDSGW">    -1</i>
   <i type="int" name="NBANDSO">    -1</i>
   <i type="int" name="NBANDSV">    -1</i>
   <i type="int" name="NELM">   100</i>
   <i type="int" name="NELMHF">     1</i>
   <i type="int" name="DIM">     3</i>
   <i type="int" name="ANTIRES">     0</i>
   <i name="OMEGAMAX">    -30.00000000</i>
   <i name="OMEGAMIN">    -30.00000000</i>
   <i name="OMEGATL">   -200.00000000</i>
   <i type="int" name="OMEGAGRID">   140</i>
   <i name="CSHIFT">     -0.10000000</i>
   <i type="logical" name="SELFENERGY"> F  </i>
   <i type="logical" name="LSPECTRAL"> F  </i>
   <i type="logical" name="LSPECTRALGW"> F  </i>
   <i type="logical" name="LSINGLES"> F  </i>
   <i type="logical" name="LFERMIGW"> F  </i>
   <i type="logical" name="ODDONLYGW"> F  </i>
   <i type="logical" name="EVENONLYGW"> F  </i>
   <i type="int" name="NKREDLFX">     1</i>
   <i type="int" name="NKREDLFY">     1</i>
   <i type="int" name="NKREDLFZ">     1</i>
   <i type="int" name="MAXMEM">  2800</i>
   <i type="int" name="TELESCOPE">     0</i>
   <i type="int" name="TAUPAR">     1</i>
   <i type="int" name="OMEGAPAR">    -1</i>
   <i name="LAMBDA">      1.00000000</i>
  </separator>
  <separator name="External order field" >
   <i name="OFIELD_KAPPA">      0.00000000</i>
   <v name="OFIELD_K">      0.00000000      0.00000000      0.00000000</v>
   <i name="OFIELD_Q6_NEAR">      0.00000000</i>
   <i name="OFIELD_Q6_FAR">      0.00000000</i>
   <i name="OFIELD_A">      0.00000000</i>
  </separator>
 </parameters>
 <atominfo>
  <atoms>      72 </atoms>
  <types>       2 </types>
  <array name="atoms" >
   <dimension dim="1">ion</dimension>
   <field type="string">element</field>
   <field type="int">atomtype</field>
   <set>
    <rc><c>Ba</c><c>   1</c></rc>
    <rc><c>Ba</c><c>   1</c></rc>
    <rc><c>Ba</c><c>   1</c></rc>
    <rc><c>Ba</c><c>   1</c></rc>
    <rc><c>Ba</c><c>   1</c></rc>
    <rc><c>Ba</c><c>   1</c></rc>
    <rc><c>Ba</c><c>   1</c></rc>
    <rc><c>Ba</c><c>   1</c></rc>
    <rc><c>Ba</c><c>   1</c></rc>
    <rc><c>Ba</c><c>   1</c></rc>
    <rc><c>Ba</c><c>   1</c></rc>
    <rc><c>Ba</c><c>   1</c></rc>
    <rc><c>Ba</c><c>   1</c></rc>
    <rc><c>Ba</c><c>   1</c></rc>
    <rc><c>Ba</c><c>   1</c></rc>
    <rc><c>Ba</c><c>   1</c></rc>
    <rc><c>Ba</c><c>   1</c></rc>
    <rc><c>Ba</c><c>   1</c></rc>
    <rc><c>Ba</c><c>   1</c></rc>
    <rc><c>Ba</c><c>   1</c></rc>
    <rc><c>Ba</c><c>   1</c></rc>
    <rc><c>Ba</c><c>   1</c></rc>
    <rc><c>Ba</c><c>   1</c></rc>
    <rc><c>Ba</c><c>   1</c></rc>
    <rc><c>Si</c><c>   2</c></rc>
    <rc><c>Si</c><c>   2</c></rc>
    <rc><c>Si</c><c>   2</c></rc>
    <rc><c>Si</c><c>   2</c></rc>
    <rc><c>Si</c><c>   2</c></rc>
    <rc><c>Si</c><c>   2</c></rc>
    <rc><c>Si</c><c>   2</c></rc>
    <rc><c>Si</c><c>   2</c></rc>
    <rc><c>Si</c><c>   2</c></rc>
    <rc><c>Si</c><c>   2</c></rc>
    <rc><c>Si</c><c>   2</c></rc>
    <rc><c>Si</c><c>   2</c></rc>
    <rc><c>Si</c><c>   2</c></rc>
    <rc><c>Si</c><c>   2</c></rc>
    <rc><c>Si</c><c>   2</c></rc>
    <rc><c>Si</c><c>   2</c></rc>
    <rc><c>Si</c><c>   2</c></rc>
    <rc><c>Si</c><c>   2</c></rc>
    <rc><c>Si</c><c>   2</c></rc>
    <rc><c>Si</c><c>   2</c></rc>
    <rc><c>Si</c><c>   2</c></rc>
    <rc><c>Si</c><c>   2</c></rc>
    <rc><c>Si</c><c>   2</c></rc>
    <rc><c>Si</c><c>   2</c></rc>
    <rc><c>Si</c><c>   2</c></rc>
    <rc><c>Si</c><c>   2</c></rc>
    <rc><c>Si</c><c>   2</c></rc>
    <rc><c>Si</c><c>   2</c></rc>
    <rc><c>Si</c><c>   2</c></rc>
    <rc><c>Si</c><c>   2</c></rc>
    <rc><c>Si</c><c>   2</c></rc>
    <rc><c>Si</c><c>   2</c></rc>
    <rc><c>Si</c><c>   2</c></rc>
    <rc><c>Si</c><c>   2</c></rc>
    <rc><c>Si</c><c>   2</c></rc>
    <rc><c>Si</c><c>   2</c></rc>
    <rc><c>Si</c><c>   2</c></rc>
    <rc><c>Si</c><c>   2</c></rc>
    <rc><c>Si</c><c>   2</c></rc>
    <rc><c>Si</c><c>   2</c></rc>
    <rc><c>Si</c><c>   2</c></rc>
    <rc><c>Si</c><c>   2</c></rc>
    <rc><c>Si</c><c>   2</c></rc>
    <rc><c>Si</c><c>   2</c></rc>
    <rc><c>Si</c><c>   2</c></rc>
    <rc><c>Si</c><c>   2</c></rc>
    <rc><c>Si</c><c>   2</c></rc>
    <rc><c>Si</c><c>   2</c></rc>
   </set>
  </array>
  <array name="atomtypes" >
   <dimension dim="1">type</dimension>
   <field type="int">atomspertype</field>
   <field type="string">element</field>
   <field>mass</field>
   <field>valence</field>
   <field type="string">pseudopotential</field>
   <set>
    <rc><c>  24</c><c>Ba</c><c>    137.32700000</c><c>     10.00000000</c><c> PAW_PBE Ba_sv 06Sep2000                </c></rc>
    <rc><c>  48</c><c>Si</c><c>     28.08500000</c><c>      4.00000000</c><c> PAW_PBE Si 05Jan2001                   </c></rc>
   </set>
  </array>
 </atominfo>
 <structure name="initialpos" >
  <crystal>
   <varray name="basis" >
    <v>      42.02840424       0.00000000       0.00000000 </v>
    <v>       0.00000000       6.67066777       0.00000000 </v>
    <v>       0.00000000       0.00000000      11.42460441 </v>
   </varray>
   <i name="volume">   3202.97377925 </i>
   <varray name="rec_basis" >
    <v>       0.02379343       0.00000000       0.00000000 </v>
    <v>       0.00000000       0.14991003       0.00000000 </v>
    <v>       0.00000000       0.00000000       0.08753038 </v>
   </varray>
  </crystal>
  <varray name="positions" >
   <v>       0.00875685       0.25822077       0.70821454 </v>
   <v>       0.21826010       0.25786537       0.69794062 </v>
   <v>       0.43191618       0.25784947       0.69868680 </v>
   <v>       0.21118236       0.75821819       0.31685325 </v>
   <v>       0.42483839       0.75820229       0.31759942 </v>
   <v>       0.63434164       0.75784689       0.30732551 </v>
   <v>       0.10183913       0.75855611       0.20031035 </v>
   <v>       0.31809884       0.75811464       0.19816145 </v>
   <v>       0.53145993       0.75823249       0.19892236 </v>
   <v>       0.11163860       0.25783517       0.81661767 </v>
   <v>       0.32499971       0.25795302       0.81737858 </v>
   <v>       0.54125941       0.25751155       0.81522967 </v>
   <v>       0.04696007       0.75842436       0.91983766 </v>
   <v>       0.24912268       0.75755518       0.91382010 </v>
   <v>       0.46341667       0.75848193       0.91414522 </v>
   <v>       0.17968187       0.25758573       0.10139480 </v>
   <v>       0.39397584       0.25851248       0.10171993 </v>
   <v>       0.59613844       0.25764330       0.09570237 </v>
   <v>       0.07497987       0.25821314       0.40302193 </v>
   <v>       0.28749576       0.25797300       0.41299042 </v>
   <v>       0.50066946       0.25774583       0.41218744 </v>
   <v>       0.14242905       0.75832183       0.60335265 </v>
   <v>       0.35560277       0.75809466       0.60254967 </v>
   <v>       0.56811865       0.75785452       0.61251816 </v>
   <v>       0.03942250       0.07932052       0.15381473 </v>
   <v>       0.25541265       0.07771844       0.15423199 </v>
   <v>       0.46842978       0.07769516       0.15353111 </v>
   <v>       0.17466875       0.93837247       0.86200891 </v>
   <v>       0.38768588       0.93834920       0.86130804 </v>
   <v>       0.60367602       0.93674711       0.86172529 </v>
   <v>       0.06737702       0.93749887       0.64926080 </v>
   <v>       0.28058944       0.93866273       0.65373983 </v>
   <v>       0.49452012       0.93892318       0.65473638 </v>
   <v>       0.14857840       0.07714445       0.36080366 </v>
   <v>       0.36250909       0.07740490       0.36180022 </v>
   <v>       0.57572148       0.07856877       0.36627925 </v>
   <v>       0.17458386       0.57649802       0.86211869 </v>
   <v>       0.38771825       0.57740019       0.86155072 </v>
   <v>       0.60363596       0.57798820       0.86201952 </v>
   <v>       0.03946256       0.43807944       0.15352051 </v>
   <v>       0.25538028       0.43866745       0.15398930 </v>
   <v>       0.46851468       0.43956963       0.15342133 </v>
   <v>       0.14857951       0.43959673       0.36072997 </v>
   <v>       0.36248562       0.43852920       0.36173270 </v>
   <v>       0.57574112       0.43725694       0.36609139 </v>
   <v>       0.06735738       0.57881070       0.64944865 </v>
   <v>       0.28061292       0.57753845       0.65380735 </v>
   <v>       0.49451902       0.57647091       0.65481008 </v>
   <v>       0.01704370       0.75820188       0.62614713 </v>
   <v>       0.23278215       0.75780419       0.59967082 </v>
   <v>       0.44688635       0.75762161       0.59981961 </v>
   <v>       0.19621214       0.25844605       0.41572044 </v>
   <v>       0.41031634       0.25826347       0.41586923 </v>
   <v>       0.62605483       0.25786578       0.38939291 </v>
   <v>       0.08812723       0.25841268       0.09018651 </v>
   <v>       0.30325227       0.25827111       0.09985740 </v>
   <v>       0.51591264       0.25817452       0.09880369 </v>
   <v>       0.12718590       0.75789314       0.91673633 </v>
   <v>       0.33984624       0.75779655       0.91568263 </v>
   <v>       0.55497131       0.75765498       0.92535351 </v>
   <v>       0.03976862       0.25822024       0.97042943 </v>
   <v>       0.25635990       0.25755885       0.97176412 </v>
   <v>       0.47014572       0.25844702       0.97030833 </v>
   <v>       0.17295282       0.75762064       0.04523174 </v>
   <v>       0.38673865       0.75850881       0.04377594 </v>
   <v>       0.60332992       0.75784742       0.04511064 </v>
   <v>       0.05617412       0.75799826       0.46875959 </v>
   <v>       0.27963697       0.75798149       0.47137630 </v>
   <v>       0.49371124       0.75762358       0.47210749 </v>
   <v>       0.14938730       0.25844408       0.54343247 </v>
   <v>       0.36346155       0.25808617       0.54416367 </v>
   <v>       0.58692440       0.25806940       0.54678037 </v>
  </varray>
 </structure>
 <calculation>
  <scstep>
   <time name="dav">   61.32   61.47</time>
   <time name="total">   64.06   64.26</time>
   <energy>
    <i name="alphaZ">    904.31128749 </i>
    <i name="ewald">  81945.92672213 </i>
    <i name="hartreedc">-102381.74414923 </i>
    <i name="XCdc">    145.90747293 </i>
    <i name="pawpsdc">  11598.37427420 </i>
    <i name="pawaedc"> -10715.11640391 </i>
    <i name="eentropy">     -0.00152495 </i>
    <i name="bandstr">   -251.14621521 </i>
    <i name="atom">  21807.45436242 </i>
    <i name="e_fr_energy">   3053.96582586 </i>
    <i name="e_wo_entrp">   3053.96735081 </i>
    <i name="e_0_energy">   3053.96658833 </i>
   </energy>
  </scstep>
  <scstep>
   <time name="dav">   75.52   75.71</time>
   <time name="total">   75.53   75.72</time>
   <energy>
    <i name="e_fr_energy">    112.69640798 </i>
    <i name="e_wo_entrp">    112.69657546 </i>
    <i name="e_0_energy">    112.69649172 </i>
   </energy>
  </scstep>
  <scstep>
   <time name="dav">   70.33   70.50</time>
   <time name="total">   70.34   70.51</time>
   <energy>
    <i name="e_fr_energy">   -268.09912596 </i>
    <i name="e_wo_entrp">   -268.09912596 </i>
    <i name="e_0_energy">   -268.09912596 </i>
   </energy>
  </scstep>
  <scstep>
   <time name="dav">   77.58   77.77</time>
   <time name="total">   77.58   77.77</time>
   <energy>
    <i name="e_fr_energy">   -285.18990045 </i>
    <i name="e_wo_entrp">   -285.18990045 </i>
    <i name="e_0_energy">   -285.18990045 </i>
   </energy>
  </scstep>
  <scstep>
   <time name="dav">   82.29   82.49</time>
   <time name="total">   82.30   82.50</time>
   <energy>
    <i name="e_fr_energy">   -285.93982604 </i>
    <i name="e_wo_entrp">   -285.93982604 </i>
    <i name="e_0_energy">   -285.93982604 </i>
   </energy>
  </scstep>
  <scstep>
   <time name="dav">   75.54   75.73</time>
   <time name="total">   75.55   75.74</time>
   <energy>
    <i name="e_fr_energy">   -285.95785167 </i>
    <i name="e_wo_entrp">   -285.95785167 </i>
    <i name="e_0_energy">   -285.95785167 </i>
   </energy>
  </scstep>
  <scstep>
   <time name="dav">   81.71   81.91</time>
   <time name="total">   81.72   81.92</time>
   <energy>
    <i name="e_fr_energy">   -285.95867991 </i>
    <i name="e_wo_entrp">   -285.95867991 </i>
    <i name="e_0_energy">   -285.95867991 </i>
   </energy>
  </scstep>
  <scstep>
   <time name="dav">   74.46   74.64</time>
   <time name="total">   74.47   74.65</time>
   <energy>
    <i name="e_fr_energy">   -285.95871152 </i>
    <i name="e_wo_entrp">   -285.95871152 </i>
    <i name="e_0_energy">   -285.95871152 </i>
   </energy>
  </scstep>
  <scstep>
   <time name="dav">   66.00   66.16</time>
   <time name="total">   66.01   66.17</time>
   <energy>
    <i name="e_fr_energy">   -285.95871316 </i>
    <i name="e_wo_entrp">   -285.95871316 </i>
    <i name="e_0_energy">   -285.95871316 </i>
   </energy>
  </scstep>
  <scstep>
   <time name="dav">   49.14   49.26</time>
   <time name="total">   49.15   49.27</time>
   <energy>
    <i name="alphaZ">    904.31128749 </i>
    <i name="ewald">  81945.92672213 </i>
    <i name="hartreedc">-102381.74414923 </i>
    <i name="XCdc">    145.90747293 </i>
    <i name="pawpsdc">  11598.37427420 </i>
    <i name="pawaedc"> -10715.11640391 </i>
    <i name="eentropy">     -0.00000000 </i>
    <i name="bandstr">  -3591.07227925 </i>
    <i name="atom">  21807.45436242 </i>
    <i name="e_fr_energy">   -285.95871323 </i>
    <i name="e_wo_entrp">   -285.95871323 </i>
    <i name="e_0_energy">   -285.95871323 </i>
   </energy>
  </scstep>
  <structure>
   <crystal>
    <varray name="basis" >
     <v>      42.02840424       0.00000000       0.00000000 </v>
     <v>       0.00000000       6.67066777       0.00000000 </v>
     <v>       0.00000000       0.00000000      11.42460441 </v>
    </varray>
    <i name="volume">   3202.97377925 </i>
    <varray name="rec_basis" >
     <v>       0.02379343       0.00000000       0.00000000 </v>
     <v>       0.00000000       0.14991003       0.00000000 </v>
     <v>       0.00000000       0.00000000       0.08753038 </v>
    </varray>
   </crystal>
   <varray name="positions" >
    <v>       0.00875685       0.25822077       0.70821454 </v>
    <v>       0.21826010       0.25786537       0.69794062 </v>
    <v>       0.43191618       0.25784947       0.69868680 </v>
    <v>       0.21118236       0.75821819       0.31685325 </v>
    <v>       0.42483839       0.75820229       0.31759942 </v>
    <v>       0.63434164       0.75784689       0.30732551 </v>
    <v>       0.10183913       0.75855611       0.20031035 </v>
    <v>       0.31809884       0.75811464       0.19816145 </v>
    <v>       0.53145993       0.75823249       0.19892236 </v>
    <v>       0.11163860       0.25783517       0.81661767 </v>
    <v>       0.32499971       0.25795302       0.81737858 </v>
    <v>       0.54125941       0.25751155       0.81522967 </v>
    <v>       0.04696007       0.75842436       0.91983766 </v>
    <v>       0.24912268       0.75755518       0.91382010 </v>
    <v>       0.46341667       0.75848193       0.91414522 </v>
    <v>       0.17968187       0.25758573       0.10139480 </v>
    <v>       0.39397584       0.25851248       0.10171993 </v>
    <v>       0.59613844       0.25764330       0.09570237 </v>
    <v>       0.07497987       0.25821314       0.40302193 </v>
    <v>       0.28749576       0.25797300       0.41299042 </v>
    <v>       0.50066946       0.25774583       0.41218744 </v>
    <v>       0.14242905       0.75832183       0.60335265 </v>
    <v>       0.35560277       0.75809466       0.60254967 </v>
    <v>       0.56811865       0.75785452       0.61251816 </v>
    <v>       0.03942250       0.07932052       0.15381473 </v>
    <v>       0.25541265       0.07771844       0.15423199 </v>
    <v>       0.46842978       0.07769516       0.15353111 </v>
    <v>       0.17466875       0.93837247       0.86200891 </v>
    <v>       0.38768588       0.93834920       0.86130804 </v>
    <v>       0.60367602       0.93674711       0.86172529 </v>
    <v>       0.06737702       0.93749887       0.64926080 </v>
    <v>       0.28058944       0.93866273       0.65373983 </v>
    <v>       0.49452012       0.93892318       0.65473638 </v>
    <v>       0.14857840       0.07714445       0.36080366 </v>
    <v>       0.36250909       0.07740490       0.36180022 </v>
    <v>       0.57572148       0.07856877       0.36627925 </v>
    <v>       0.17458386       0.57649802       0.86211869 </v>
    <v>       0.38771825       0.57740019       0.86155072 </v>
    <v>       0.60363596       0.57798820       0.86201952 </v>
    <v>       0.03946256       0.43807944       0.15352051 </v>
    <v>       0.25538028       0.43866745       0.15398930 </v>
    <v>       0.46851468       0.43956963       0.15342133 </v>
    <v>       0.14857951       0.43959673       0.36072997 </v>
    <v>       0.36248562       0.43852920       0.36173270 </v>
    <v>       0.57574112       0.43725694       0.36609139 </v>
    <v>       0.06735738       0.57881070       0.64944865 </v>
    <v>       0.28061292       0.57753845       0.65380735 </v>
    <v>       0.49451902       0.57647091       0.65481008 </v>
    <v>       0.01704370       0.75820188       0.62614713 </v>
    <v>       0.23278215       0.75780419       0.59967082 </v>
    <v>       0.44688635       0.75762161       0.59981961 </v>
    <v>       0.19621214       0.25844605       0.41572044 </v>
    <v>       0.41031634       0.25826347       0.41586923 </v>
    <v>       0.62605483       0.25786578       0.38939291 </v>
    <v>       0.08812723       0.25841268       0.09018651 </v>
    <v>       0.30325227       0.25827111       0.09985740 </v>
    <v>       0.51591264       0.25817452       0.09880369 </v>
    <v>       0.12718590       0.75789314       0.91673633 </v>
    <v>       0.33984624       0.75779655       0.91568263 </v>
    <v>       0.55497131       0.75765498       0.92535351 </v>
    <v>       0.03976862       0.25822024       0.97042943 </v>
    <v>       0.25635990       0.25755885       0.97176412 </v>
    <v>       0.47014572       0.25844702       0.97030833 </v>
    <v>       0.17295282       0.75762064       0.04523174 </v>
    <v>       0.38673865       0.75850881       0.04377594 </v>
    <v>       0.60332992       0.75784742       0.04511064 </v>
    <v>       0.05617412       0.75799826       0.46875959 </v>
    <v>       0.27963697       0.75798149       0.47137630 </v>
    <v>       0.49371124       0.75762358       0.47210749 </v>
    <v>       0.14938730       0.25844408       0.54343247 </v>
    <v>       0.36346155       0.25808617       0.54416367 </v>
    <v>       0.58692440       0.25806940       0.54678037 </v>
   </varray>
  </structure>
  <varray name="forces" >
   <v>       0.02299959      -0.00025266      -0.04134305 </v>
   <v>       0.03459265       0.00058472      -0.02255505 </v>
   <v>       0.03815850       0.00052423      -0.02250857 </v>
   <v>      -0.03815850      -0.00052423       0.02250857 </v>
   <v>      -0.03459265      -0.00058472       0.02255505 </v>
   <v>      -0.02299959       0.00025266       0.04134305 </v>
   <v>      -0.05291749      -0.00083692      -0.02298593 </v>
   <v>      -0.03608765       0.00046097      -0.02003080 </v>
   <v>      -0.03904255      -0.00061215      -0.01304001 </v>
   <v>       0.03904255       0.00061215       0.01304001 </v>
   <v>       0.03608765      -0.00046097       0.02003080 </v>
   <v>       0.05291749       0.00083692       0.02298593 </v>
   <v>       0.00862234       0.00053823      -0.00745163 </v>
   <v>       0.01621622      -0.00141219       0.02765783 </v>
   <v>       0.01651382      -0.00179504       0.02974160 </v>
   <v>      -0.01651382       0.00179504      -0.02974160 </v>
   <v>      -0.01621622       0.00141219      -0.02765783 </v>
   <v>      -0.00862234      -0.00053823       0.00745163 </v>
   <v>      -0.01933584       0.00069660       0.03270735 </v>
   <v>      -0.01795782      -0.00026061       0.02988788 </v>
   <v>      -0.01153489       0.00246398       0.02842607 </v>
   <v>       0.01153489      -0.00246398      -0.02842607 </v>
   <v>       0.01795782       0.00026061      -0.02988788 </v>
   <v>       0.01933584      -0.00069660      -0.03270735 </v>
   <v>       0.02149557       0.01699592       0.00626054 </v>
   <v>       0.02650826       0.02689801      -0.00790738 </v>
   <v>       0.01858781       0.02853906      -0.00709739 </v>
   <v>      -0.01858781      -0.02853906       0.00709739 </v>
   <v>      -0.02650826      -0.02689801       0.00790738 </v>
   <v>      -0.02149557      -0.01699592      -0.00626054 </v>
   <v>      -0.02273646      -0.03416542      -0.00410725 </v>
   <v>      -0.02441317      -0.02409458      -0.00666089 </v>
   <v>      -0.03143128      -0.02798518      -0.01106549 </v>
   <v>       0.03143128       0.02798518       0.01106549 </v>
   <v>       0.02441317       0.02409458       0.00666089 </v>
   <v>       0.02273646       0.03416542       0.00410725 </v>
   <v>      -0.01600251       0.02526834       0.00806086 </v>
   <v>      -0.02372978       0.02613893       0.01065664 </v>
   <v>      -0.02279455       0.01527747      -0.00522287 </v>
   <v>       0.02279455      -0.01527747       0.00522287 </v>
   <v>       0.02372978      -0.02613893      -0.01065664 </v>
   <v>       0.01600251      -0.02526834      -0.00806086 </v>
   <v>       0.02654819      -0.02808996       0.01061987 </v>
   <v>       0.02214638      -0.02221611       0.00731636 </v>
   <v>       0.01515289      -0.03405642       0.00764485 </v>
   <v>      -0.01515289       0.03405642      -0.00764485 </v>
   <v>      -0.02214638       0.02221611      -0.00731636 </v>
   <v>      -0.02654819       0.02808996      -0.01061987 </v>
   <v>       0.03054333       0.00340395       0.01802450 </v>
   <v>      -0.00146114       0.00126051       0.01341781 </v>
   <v>      -0.00239537       0.00443090       0.01216107 </v>
   <v>       0.00239537      -0.00443090      -0.01216107 </v>
   <v>       0.00146114      -0.00126051      -0.01341781 </v>
   <v>      -0.03054333      -0.00340395      -0.01802450 </v>
   <v>       0.02002793      -0.00389631       0.00161066 </v>
   <v>       0.00129574      -0.00176013       0.01202199 </v>
   <v>       0.00827302      -0.00202412       0.01208430 </v>
   <v>      -0.00827302       0.00202412      -0.01208430 </v>
   <v>      -0.00129574       0.00176013      -0.01202199 </v>
   <v>      -0.02002793       0.00389631      -0.00161066 </v>
   <v>       0.00803627       0.00120933       0.00734266 </v>
   <v>      -0.00924540       0.00219647      -0.00109989 </v>
   <v>      -0.01385225       0.00146340       0.00123653 </v>
   <v>       0.01385225      -0.00146340      -0.00123653 </v>
   <v>       0.00924540      -0.00219647       0.00109989 </v>
   <v>      -0.00803627      -0.00120933      -0.00734266 </v>
   <v>       0.00677676      -0.00454981      -0.00592982 </v>
   <v>       0.00954117      -0.00117319      -0.00335727 </v>
   <v>       0.01015737      -0.00168452      -0.00570902 </v>
   <v>      -0.01015737       0.00168452       0.00570902 </v>
   <v>      -0.00954117       0.00117319       0.00335727 </v>
   <v>      -0.00677676       0.00454981       0.00592982 </v>
  </varray>
  <varray name="stress" >
   <v>      -0.93987301       0.01009356       0.09566507 </v>
   <v>       0.01009354      -0.91875018       0.00608435 </v>
   <v>       0.09566517       0.00608435      -0.78592663 </v>
  </varray>
  <energy>
   <i name="e_fr_energy">   -285.95871323 </i>
   <i name="e_wo_entrp">   -285.95871323 </i>
   <i name="e_0_energy">     -0.00000000 </i>
  </energy>
  <time name="totalsc"> 1097.17 1116.29</time>
  <eigenvalues>
   <array>
    <dimension dim="1">band</dimension>
    <dimension dim="2">kpoint</dimension>
    <dimension dim="3">spin</dimension>
    <field>eigene</field>
    <field>occ</field>
    <set>
     <set comment="spin 1">
      <set comment="kpoint 1">
       <r>  -27.5038    1.0000 </r>
       <r>  -27.5037    1.0000 </r>
       <r>  -26.5342    1.0000 </r>
       <r>  -26.5340    1.0000 </r>
       <r>  -26.5305    1.0000 </r>
       <r>  -26.5302    1.0000 </r>
       <r>  -26.5090    1.0000 </r>
       <r>  -26.5089    1.0000 </r>
       <r>  -26.4655    1.0000 </r>
       <r>  -26.4593    1.0000 </r>
       <r>  -26.4514    1.0000 </r>
       <r>  -26.4508    1.0000 </r>
       <r>  -26.4433    1.0000 </r>
       <r>  -26.4423    1.0000 </r>
       <r>  -26.3889    1.0000 </r>
       <r>  -26.3882    1.0000 </r>
       <r>  -26.3848    1.0000 </r>
       <r>  -26.3845    1.0000 </r>
       <r>  -26.3817    1.0000 </r>
       <r>  -26.3807    1.0000 </r>
       <r>  -26.3657    1.0000 </r>
       <r>  -26.3648    1.0000 </r>
       <r>  -26.3222    1.0000 </r>
       <r>  -26.3217    1.0000 </r>
       <r>  -12.8784    1.0000 </r>
       <r>  -12.8783    1.0000 </r>
       <r>  -12.8062    1.0000 </r>
       <r>  -12.8061    1.0000 </r>
       <r>  -12.7145    1.0000 </r>
       <r>  -12.7144    1.0000 </r>
       <r>  -12.1296    1.0000 </r>
       <r>  -12.1292    1.0000 </r>
       <r>  -12.0651    1.0000 </r>
       <r>  -12.0626    1.0000 </r>
       <r>  -12.0381    1.0000 </r>
       <r>  -12.0238    1.0000 </r>
       <r>  -12.0037    1.0000 </r>
       <r>  -11.9966    1.0000 </r>
       <r>  -11.9893    1.0000 </r>
       <r>  -11.9871    1.0000 </r>
       <r>  -11.9583    1.0000 </r>
       <r>  -11.9500    1.0000 </r>
       <r>  -11.9453    1.0000 </r>
       <r>  -11.9348    1.0000 </r>
       <r>  -11.9146    1.0000 </r>
       <r>  -11.9137    1.0000 </r>
       <r>  -11.9070    1.0000 </r>
       <r>  -11.9056    1.0000 </r>
       <r>  -11.9056    1.0000 </r>
       <r>  -11.8911    1.0000 </r>
       <r>  -11.8821    1.0000 </r>
       <r>  -11.8798    1.0000 </r>
       <r>  -11.8777    1.0000 </r>
       <r>  -11.8757    1.0000 </r>
       <r>  -11.8667    1.0000 </r>
       <r>  -11.8665    1.0000 </r>
       <r>  -11.8578    1.0000 </r>
       <r>  -11.8555    1.0000 </r>
       <r>  -11.8530    1.0000 </r>
       <r>  -11.8501    1.0000 </r>
       <r>  -11.8459    1.0000 </r>
       <r>  -11.8454    1.0000 </r>
       <r>  -11.8365    1.0000 </r>
       <r>  -11.8350    1.0000 </r>
       <r>  -11.8294    1.0000 </r>
       <r>  -11.8128    1.0000 </r>
       <r>  -11.8088    1.0000 </r>
       <r>  -11.7828    1.0000 </r>
       <r>  -11.7647    1.0000 </r>
       <r>  -11.7370    1.0000 </r>
       <r>  -11.7130    1.0000 </r>
       <r>  -11.7123    1.0000 </r>
       <r>  -11.7051    1.0000 </r>
       <r>  -11.7032    1.0000 </r>
       <r>  -11.6965    1.0000 </r>
       <r>  -11.6861    1.0000 </r>
       <r>  -11.6858    1.0000 </r>
       <r>  -11.6807    1.0000 </r>
       <r>  -11.6769    1.0000 </r>
       <r>  -11.6736    1.0000 </r>
       <r>  -11.6719    1.0000 </r>
       <r>  -11.6675    1.0000 </r>
       <r>  -11.6586    1.0000 </r>
       <r>  -11.6510    1.0000 </r>
       <r>  -11.6490    1.0000 </r>
       <r>  -11.6487    1.0000 </r>
       <r>  -11.6447    1.0000 </r>
       <r>  -11.6362    1.0000 </r>
       <r>  -11.6348    1.0000 </r>
       <r>  -11.6326    1.0000 </r>
       <r>  -11.6244    1.0000 </r>
       <r>  -11.6220    1.0000 </r>
       <r>  -11.6211    1.0000 </r>
       <r>  -11.6164    1.0000 </r>
       <r>  -11.6095    1.0000 </r>
       <r>  -11.6092    1.0000 </r>
       <r>   -9.7292    1.0000 </r>
       <r>   -9.6546    1.0000 </r>
       <r>   -9.5576    1.0000 </r>
       <r>   -9.4799    1.0000 </r>
       <r>   -9.4745    1.0000 </r>
       <r>   -9.4574    1.0000 </r>
       <r>   -9.4386    1.0000 </r>
       <r>   -9.4356    1.0000 </r>
       <r>   -9.4278    1.0000 </r>
       <r>   -9.4120    1.0000 </r>
       <r>   -9.0600    1.0000 </r>
       <r>   -9.0599    1.0000 </r>
       <r>   -5.1213    1.0000 </r>
       <r>   -5.1009    1.0000 </r>
       <r>   -5.0687    1.0000 </r>
       <r>   -5.0390    1.0000 </r>
       <r>   -4.9675    1.0000 </r>
       <r>   -4.8923    1.0000 </r>
       <r>   -4.8511    1.0000 </r>
       <r>   -4.7886    1.0000 </r>
       <r>   -4.7776    1.0000 </r>
       <r>   -4.7445    1.0000 </r>
       <r>   -4.7406    1.0000 </r>
       <r>   -4.7343    1.0000 </r>
       <r>   -4.6930    1.0000 </r>
       <r>   -4.6769    1.0000 </r>
       <r>   -4.6689    1.0000 </r>
       <r>   -4.6680    1.0000 </r>
       <r>   -4.6531    1.0000 </r>
       <r>   -4.6373    1.0000 </r>
       <r>   -4.6309    1.0000 </r>
       <r>   -4.6086    1.0000 </r>
       <r>   -4.5769    1.0000 </r>
       <r>   -4.5767    1.0000 </r>
       <r>   -4.5720    1.0000 </r>
       <r>   -4.5528    1.0000 </r>
       <r>   -4.5501    1.0000 </r>
       <r>   -4.5489    1.0000 </r>
       <r>   -4.5217    1.0000 </r>
       <r>   -4.5163    1.0000 </r>
       <r>   -4.4677    1.0000 </r>
       <r>   -4.4660    1.0000 </r>
       <r>   -4.3572    1.0000 </r>
       <r>   -4.3468    1.0000 </r>
       <r>   -4.2719    1.0000 </r>
       <r>   -4.2440    1.0000 </r>
       <r>   -4.0279    1.0000 </r>
       <r>   -4.0278    1.0000 </r>
       <r>   -2.4302    1.0000 </r>
       <r>   -2.1886    1.0000 </r>
       <r>   -1.8980    1.0000 </r>
       <r>   -1.6558    1.0000 </r>
       <r>   -1.4668    1.0000 </r>
       <r>   -1.4334    1.0000 </r>
       <r>   -1.4064    1.0000 </r>
       <r>   -1.4040    1.0000 </r>
       <r>   -1.3510    1.0000 </r>
       <r>   -1.3023    1.0000 </r>
       <r>   -1.2716    1.0000 </r>
       <r>   -1.1410    1.0000 </r>
       <r>   -1.0391    1.0000 </r>
       <r>   -0.9922    1.0000 </r>
       <r>   -0.9103    1.0000 </r>
       <r>   -0.8911    1.0000 </r>
       <r>   -0.7747    1.0000 </r>
       <r>   -0.7341    1.0000 </r>
       <r>   -0.6556    1.0000 </r>
       <r>   -0.6519    1.0000 </r>
       <r>   -0.6304    1.0000 </r>
       <r>   -0.5996    1.0000 </r>
       <r>   -0.5886    1.0000 </r>
       <r>   -0.5779    1.0000 </r>
       <r>   -0.5407    1.0000 </r>
       <r>   -0.5060    1.0000 </r>
       <r>   -0.4619    1.0000 </r>
       <r>   -0.4582    1.0000 </r>
       <r>   -0.4403    1.0000 </r>
       <r>   -0.4338    1.0000 </r>
       <r>   -0.3743    1.0000 </r>
       <r>   -0.3516    1.0000 </r>
       <r>   -0.3351    1.0000 </r>
       <r>   -0.3273    1.0000 </r>
       <r>   -0.3231    1.0000 </r>
       <r>   -0.3126    1.0000 </r>
       <r>   -0.2544    1.0000 </r>
       <r>   -0.2140    1.0000 </r>
       <r>   -0.2016    1.0000 </r>
       <r>   -0.1820    1.0000 </r>
       <r>   -0.1109    1.0000 </r>
       <r>   -0.0833    1.0000 </r>
       <r>   -0.0664    1.0000 </r>
       <r>   -0.0271    1.0000 </r>
       <r>   -0.0239    1.0000 </r>
       <r>   -0.0064    1.0000 </r>
       <r>    0.0065    1.0000 </r>
       <r>    0.0109    1.0000 </r>
       <r>    0.0512    1.0000 </r>
       <r>    0.0589    1.0000 </r>
       <r>    0.0663    1.0000 </r>
       <r>    0.0785    1.0000 </r>
       <r>    0.1353    1.0000 </r>
       <r>    0.1599    1.0000 </r>
       <r>    0.1729    1.0000 </r>
       <r>    0.3400    1.0000 </r>
       <r>    0.3456    1.0000 </r>
       <r>    0.3793    1.0000 </r>
       <r>    0.4070    1.0000 </r>
       <r>    0.4272    1.0000 </r>
       <r>    0.4431    1.0000 </r>
       <r>    0.4697    1.0000 </r>
       <r>    0.5197    1.0000 </r>
       <r>    0.5359    1.0000 </r>
       <r>    0.5460    1.0000 </r>
       <r>    0.6199    1.0000 </r>
       <r>    0.6881    1.0000 </r>
       <r>    0.6915    1.0000 </r>
       <r>    0.7915    1.0000 </r>
       <r>    0.7923    1.0000 </r>
       <r>    0.7925    1.0000 </r>
       <r>    0.8466    1.0000 </r>
       <r>    2.0185    0.0000 </r>
       <r>    2.0941    0.0000 </r>
       <r>    2.1082    0.0000 </r>
       <r>    2.1586    0.0000 </r>
       <r>    2.2415    0.0000 </r>
       <r>    2.2782    0.0000 </r>
       <r>    2.2964    0.0000 </r>
       <r>    2.2985    0.0000 </r>
       <r>    2.3108    0.0000 </r>
       <r>    2.3258    0.0000 </r>
       <r>    2.3739    0.0000 </r>
       <r>    2.4229    0.0000 </r>
       <r>    2.4746    0.0000 </r>
       <r>    2.4911    0.0000 </r>
       <r>    2.5445    0.0000 </r>
       <r>    2.5590    0.0000 </r>
       <r>    2.5996    0.0000 </r>
       <r>    2.6253    0.0000 </r>
       <r>    2.6894    0.0000 </r>
       <r>    2.7423    0.0000 </r>
       <r>    2.8489    0.0000 </r>
       <r>    2.8653    0.0000 </r>
       <r>    2.8997    0.0000 </r>
       <r>    2.9122    0.0000 </r>
       <r>    2.9125    0.0000 </r>
       <r>    2.9284    0.0000 </r>
       <r>    3.0169    0.0000 </r>
       <r>    3.0406    0.0000 </r>
       <r>    3.1734    0.0000 </r>
       <r>    3.2793    0.0000 </r>
       <r>    3.2841    0.0000 </r>
       <r>    3.3126    0.0000 </r>
       <r>    3.3566    0.0000 </r>
       <r>    3.4154    0.0000 </r>
       <r>    3.4781    0.0000 </r>
       <r>    3.4843    0.0000 </r>
       <r>    3.5130    0.0000 </r>
       <r>    3.5421    0.0000 </r>
       <r>    3.5511    0.0000 </r>
       <r>    3.6173    0.0000 </r>
       <r>    3.6361    0.0000 </r>
       <r>    3.7090    0.0000 </r>
       <r>    3.7431    0.0000 </r>
       <r>    3.7705    0.0000 </r>
       <r>    3.8437    0.0000 </r>
       <r>    3.8504    0.0000 </r>
       <r>    3.8675    0.0000 </r>
       <r>    3.9889    0.0000 </r>
      </set>
      <set comment="kpoint 2">
       <r>  -27.5038    1.0000 </r>
       <r>  -27.5037    1.0000 </r>
       <r>  -26.5342    1.0000 </r>
       <r>  -26.5340    1.0000 </r>
       <r>  -26.5305    1.0000 </r>
       <r>  -26.5302    1.0000 </r>
       <r>  -26.5090    1.0000 </r>
       <r>  -26.5089    1.0000 </r>
       <r>  -26.4655    1.0000 </r>
       <r>  -26.4593    1.0000 </r>
       <r>  -26.4514    1.0000 </r>
       <r>  -26.4508    1.0000 </r>
       <r>  -26.4433    1.0000 </r>
       <r>  -26.4423    1.0000 </r>
       <r>  -26.3889    1.0000 </r>
       <r>  -26.3882    1.0000 </r>
       <r>  -26.3848    1.0000 </r>
       <r>  -26.3845    1.0000 </r>
       <r>  -26.3818    1.0000 </r>
       <r>  -26.3807    1.0000 </r>
       <r>  -26.3657    1.0000 </r>
       <r>  -26.3648    1.0000 </r>
       <r>  -26.3222    1.0000 </r>
       <r>  -26.3217    1.0000 </r>
       <r>  -12.8784    1.0000 </r>
       <r>  -12.8783    1.0000 </r>
       <r>  -12.8063    1.0000 </r>
       <r>  -12.8061    1.0000 </r>
       <r>  -12.7147    1.0000 </r>
       <r>  -12.7146    1.0000 </r>
       <r>  -12.1296    1.0000 </r>
       <r>  -12.1292    1.0000 </r>
       <r>  -12.0651    1.0000 </r>
       <r>  -12.0630    1.0000 </r>
       <r>  -12.0392    1.0000 </r>
       <r>  -12.0243    1.0000 </r>
       <r>  -12.0084    1.0000 </r>
       <r>  -11.9917    1.0000 </r>
       <r>  -11.9903    1.0000 </r>
       <r>  -11.9852    1.0000 </r>
       <r>  -11.9586    1.0000 </r>
       <r>  -11.9500    1.0000 </r>
       <r>  -11.9458    1.0000 </r>
       <r>  -11.9350    1.0000 </r>
       <r>  -11.9159    1.0000 </r>
       <r>  -11.9145    1.0000 </r>
       <r>  -11.9077    1.0000 </r>
       <r>  -11.9061    1.0000 </r>
       <r>  -11.9049    1.0000 </r>
       <r>  -11.8927    1.0000 </r>
       <r>  -11.8865    1.0000 </r>
       <r>  -11.8797    1.0000 </r>
       <r>  -11.8770    1.0000 </r>
       <r>  -11.8752    1.0000 </r>
       <r>  -11.8670    1.0000 </r>
       <r>  -11.8658    1.0000 </r>
       <r>  -11.8591    1.0000 </r>
       <r>  -11.8570    1.0000 </r>
       <r>  -11.8533    1.0000 </r>
       <r>  -11.8486    1.0000 </r>
       <r>  -11.8470    1.0000 </r>
       <r>  -11.8435    1.0000 </r>
       <r>  -11.8412    1.0000 </r>
       <r>  -11.8351    1.0000 </r>
       <r>  -11.8204    1.0000 </r>
       <r>  -11.8128    1.0000 </r>
       <r>  -11.8079    1.0000 </r>
       <r>  -11.7830    1.0000 </r>
       <r>  -11.7643    1.0000 </r>
       <r>  -11.7373    1.0000 </r>
       <r>  -11.7131    1.0000 </r>
       <r>  -11.7127    1.0000 </r>
       <r>  -11.7052    1.0000 </r>
       <r>  -11.7032    1.0000 </r>
       <r>  -11.6962    1.0000 </r>
       <r>  -11.6859    1.0000 </r>
       <r>  -11.6856    1.0000 </r>
       <r>  -11.6806    1.0000 </r>
       <r>  -11.6771    1.0000 </r>
       <r>  -11.6736    1.0000 </r>
       <r>  -11.6715    1.0000 </r>
       <r>  -11.6676    1.0000 </r>
       <r>  -11.6581    1.0000 </r>
       <r>  -11.6534    1.0000 </r>
       <r>  -11.6488    1.0000 </r>
       <r>  -11.6464    1.0000 </r>
       <r>  -11.6445    1.0000 </r>
       <r>  -11.6361    1.0000 </r>
       <r>  -11.6349    1.0000 </r>
       <r>  -11.6324    1.0000 </r>
       <r>  -11.6243    1.0000 </r>
       <r>  -11.6221    1.0000 </r>
       <r>  -11.6215    1.0000 </r>
       <r>  -11.6159    1.0000 </r>
       <r>  -11.6095    1.0000 </r>
       <r>  -11.6092    1.0000 </r>
       <r>   -9.7277    1.0000 </r>
       <r>   -9.6534    1.0000 </r>
       <r>   -9.5569    1.0000 </r>
       <r>   -9.4795    1.0000 </r>
       <r>   -9.4742    1.0000 </r>
       <r>   -9.4572    1.0000 </r>
       <r>   -9.4383    1.0000 </r>
       <r>   -9.4354    1.0000 </r>
       <r>   -9.4277    1.0000 </r>
       <r>   -9.4120    1.0000 </r>
       <r>   -9.0596    1.0000 </r>
       <r>   -9.0595    1.0000 </r>
       <r>   -5.1194    1.0000 </r>
       <r>   -5.0990    1.0000 </r>
       <r>   -5.0676    1.0000 </r>
       <r>   -5.0376    1.0000 </r>
       <r>   -4.9673    1.0000 </r>
       <r>   -4.8920    1.0000 </r>
       <r>   -4.8518    1.0000 </r>
       <r>   -4.7888    1.0000 </r>
       <r>   -4.7769    1.0000 </r>
       <r>   -4.7474    1.0000 </r>
       <r>   -4.7356    1.0000 </r>
       <r>   -4.7337    1.0000 </r>
       <r>   -4.6956    1.0000 </r>
       <r>   -4.6812    1.0000 </r>
       <r>   -4.6688    1.0000 </r>
       <r>   -4.6636    1.0000 </r>
       <r>   -4.6513    1.0000 </r>
       <r>   -4.6387    1.0000 </r>
       <r>   -4.6299    1.0000 </r>
       <r>   -4.6107    1.0000 </r>
       <r>   -4.5787    1.0000 </r>
       <r>   -4.5779    1.0000 </r>
       <r>   -4.5706    1.0000 </r>
       <r>   -4.5591    1.0000 </r>
       <r>   -4.5500    1.0000 </r>
       <r>   -4.5433    1.0000 </r>
       <r>   -4.5246    1.0000 </r>
       <r>   -4.5155    1.0000 </r>
       <r>   -4.4728    1.0000 </r>
       <r>   -4.4627    1.0000 </r>
       <r>   -4.3563    1.0000 </r>
       <r>   -4.3461    1.0000 </r>
       <r>   -4.2713    1.0000 </r>
       <r>   -4.2440    1.0000 </r>
       <r>   -4.0298    1.0000 </r>
       <r>   -4.0297    1.0000 </r>
       <r>   -2.4233    1.0000 </r>
       <r>   -2.1829    1.0000 </r>
       <r>   -1.8935    1.0000 </r>
       <r>   -1.6521    1.0000 </r>
       <r>   -1.4640    1.0000 </r>
       <r>   -1.4302    1.0000 </r>
       <r>   -1.4034    1.0000 </r>
       <r>   -1.4004    1.0000 </r>
       <r>   -1.3490    1.0000 </r>
       <r>   -1.3006    1.0000 </r>
       <r>   -1.2708    1.0000 </r>
       <r>   -1.1406    1.0000 </r>
       <r>   -1.0379    1.0000 </r>
       <r>   -0.9908    1.0000 </r>
       <r>   -0.9113    1.0000 </r>
       <r>   -0.8921    1.0000 </r>
       <r>   -0.7753    1.0000 </r>
       <r>   -0.7447    1.0000 </r>
       <r>   -0.6706    1.0000 </r>
       <r>   -0.6330    1.0000 </r>
       <r>   -0.6304    1.0000 </r>
       <r>   -0.6056    1.0000 </r>
       <r>   -0.5893    1.0000 </r>
       <r>   -0.5753    1.0000 </r>
       <r>   -0.5365    1.0000 </r>
       <r>   -0.5056    1.0000 </r>
       <r>   -0.4676    1.0000 </r>
       <r>   -0.4518    1.0000 </r>
       <r>   -0.4450    1.0000 </r>
       <r>   -0.4288    1.0000 </r>
       <r>   -0.3788    1.0000 </r>
       <r>   -0.3552    1.0000 </r>
       <r>   -0.3398    1.0000 </r>
       <r>   -0.3250    1.0000 </r>
       <r>   -0.3240    1.0000 </r>
       <r>   -0.3089    1.0000 </r>
       <r>   -0.2548    1.0000 </r>
       <r>   -0.2127    1.0000 </r>
       <r>   -0.2027    1.0000 </r>
       <r>   -0.1822    1.0000 </r>
       <r>   -0.1171    1.0000 </r>
       <r>   -0.0803    1.0000 </r>
       <r>   -0.0692    1.0000 </r>
       <r>   -0.0304    1.0000 </r>
       <r>   -0.0232    1.0000 </r>
       <r>   -0.0207    1.0000 </r>
       <r>    0.0041    1.0000 </r>
       <r>    0.0179    1.0000 </r>
       <r>    0.0520    1.0000 </r>
       <r>    0.0658    1.0000 </r>
       <r>    0.0718    1.0000 </r>
       <r>    0.0797    1.0000 </r>
       <r>    0.1384    1.0000 </r>
       <r>    0.1601    1.0000 </r>
       <r>    0.1740    1.0000 </r>
       <r>    0.3418    1.0000 </r>
       <r>    0.3423    1.0000 </r>
       <r>    0.3810    1.0000 </r>
       <r>    0.4070    1.0000 </r>
       <r>    0.4234    1.0000 </r>
       <r>    0.4438    1.0000 </r>
       <r>    0.4648    1.0000 </r>
       <r>    0.5221    1.0000 </r>
       <r>    0.5293    1.0000 </r>
       <r>    0.5474    1.0000 </r>
       <r>    0.5993    1.0000 </r>
       <r>    0.6876    1.0000 </r>
       <r>    0.7024    1.0000 </r>
       <r>    0.7914    1.0000 </r>
       <r>    0.7932    1.0000 </r>
       <r>    0.7982    1.0000 </r>
       <r>    0.8478    1.0000 </r>
       <r>    2.0184    0.0000 </r>
       <r>    2.0944    0.0000 </r>
       <r>    2.1003    0.0000 </r>
       <r>    2.1511    0.0000 </r>
       <r>    2.2347    0.0000 </r>
       <r>    2.2798    0.0000 </r>
       <r>    2.2947    0.0000 </r>
       <r>    2.2951    0.0000 </r>
       <r>    2.3165    0.0000 </r>
       <r>    2.3186    0.0000 </r>
       <r>    2.3755    0.0000 </r>
       <r>    2.4237    0.0000 </r>
       <r>    2.4639    0.0000 </r>
       <r>    2.4980    0.0000 </r>
       <r>    2.5495    0.0000 </r>
       <r>    2.5651    0.0000 </r>
       <r>    2.6007    0.0000 </r>
       <r>    2.6215    0.0000 </r>
       <r>    2.6943    0.0000 </r>
       <r>    2.7468    0.0000 </r>
       <r>    2.8382    0.0000 </r>
       <r>    2.8683    0.0000 </r>
       <r>    2.8843    0.0000 </r>
       <r>    2.9024    0.0000 </r>
       <r>    2.9107    0.0000 </r>
       <r>    2.9426    0.0000 </r>
       <r>    3.0258    0.0000 </r>
       <r>    3.0451    0.0000 </r>
       <r>    3.1781    0.0000 </r>
       <r>    3.2566    0.0000 </r>
       <r>    3.2940    0.0000 </r>
       <r>    3.3312    0.0000 </r>
       <r>    3.3425    0.0000 </r>
       <r>    3.4283    0.0000 </r>
       <r>    3.4795    0.0000 </r>
       <r>    3.4819    0.0000 </r>
       <r>    3.4999    0.0000 </r>
       <r>    3.5233    0.0000 </r>
       <r>    3.5594    0.0000 </r>
       <r>    3.6218    0.0000 </r>
       <r>    3.6351    0.0000 </r>
       <r>    3.7137    0.0000 </r>
       <r>    3.7398    0.0000 </r>
       <r>    3.7653    0.0000 </r>
       <r>    3.8208    0.0000 </r>
       <r>    3.8429    0.0000 </r>
       <r>    3.8845    0.0000 </r>
       <r>    3.9944    0.0000 </r>
      </set>
      <set comment="kpoint 3">
       <r>  -27.5038    1.0000 </r>
       <r>  -27.5037    1.0000 </r>
       <r>  -26.5342    1.0000 </r>
       <r>  -26.5340    1.0000 </r>
       <r>  -26.5305    1.0000 </r>
       <r>  -26.5302    1.0000 </r>
       <r>  -26.5090    1.0000 </r>
       <r>  -26.5088    1.0000 </r>
       <r>  -26.4654    1.0000 </r>
       <r>  -26.4593    1.0000 </r>
       <r>  -26.4513    1.0000 </r>
       <r>  -26.4508    1.0000 </r>
       <r>  -26.4433    1.0000 </r>
       <r>  -26.4423    1.0000 </r>
       <r>  -26.3890    1.0000 </r>
       <r>  -26.3883    1.0000 </r>
       <r>  -26.3848    1.0000 </r>
       <r>  -26.3846    1.0000 </r>
       <r>  -26.3818    1.0000 </r>
       <r>  -26.3807    1.0000 </r>
       <r>  -26.3657    1.0000 </r>
       <r>  -26.3648    1.0000 </r>
       <r>  -26.3222    1.0000 </r>
       <r>  -26.3217    1.0000 </r>
       <r>  -12.8782    1.0000 </r>
       <r>  -12.8781    1.0000 </r>
       <r>  -12.8064    1.0000 </r>
       <r>  -12.8063    1.0000 </r>
       <r>  -12.7154    1.0000 </r>
       <r>  -12.7153    1.0000 </r>
       <r>  -12.1295    1.0000 </r>
       <r>  -12.1291    1.0000 </r>
       <r>  -12.0652    1.0000 </r>
       <r>  -12.0640    1.0000 </r>
       <r>  -12.0422    1.0000 </r>
       <r>  -12.0261    1.0000 </r>
       <r>  -12.0146    1.0000 </r>
       <r>  -11.9914    1.0000 </r>
       <r>  -11.9848    1.0000 </r>
       <r>  -11.9815    1.0000 </r>
       <r>  -11.9591    1.0000 </r>
       <r>  -11.9505    1.0000 </r>
       <r>  -11.9472    1.0000 </r>
       <r>  -11.9356    1.0000 </r>
       <r>  -11.9187    1.0000 </r>
       <r>  -11.9174    1.0000 </r>
       <r>  -11.9096    1.0000 </r>
       <r>  -11.9069    1.0000 </r>
       <r>  -11.9045    1.0000 </r>
       <r>  -11.8975    1.0000 </r>
       <r>  -11.8911    1.0000 </r>
       <r>  -11.8836    1.0000 </r>
       <r>  -11.8771    1.0000 </r>
       <r>  -11.8757    1.0000 </r>
       <r>  -11.8683    1.0000 </r>
       <r>  -11.8645    1.0000 </r>
       <r>  -11.8600    1.0000 </r>
       <r>  -11.8595    1.0000 </r>
       <r>  -11.8567    1.0000 </r>
       <r>  -11.8527    1.0000 </r>
       <r>  -11.8443    1.0000 </r>
       <r>  -11.8422    1.0000 </r>
       <r>  -11.8365    1.0000 </r>
       <r>  -11.8315    1.0000 </r>
       <r>  -11.8139    1.0000 </r>
       <r>  -11.8089    1.0000 </r>
       <r>  -11.8053    1.0000 </r>
       <r>  -11.7837    1.0000 </r>
       <r>  -11.7628    1.0000 </r>
       <r>  -11.7381    1.0000 </r>
       <r>  -11.7137    1.0000 </r>
       <r>  -11.7135    1.0000 </r>
       <r>  -11.7056    1.0000 </r>
       <r>  -11.7029    1.0000 </r>
       <r>  -11.6952    1.0000 </r>
       <r>  -11.6858    1.0000 </r>
       <r>  -11.6849    1.0000 </r>
       <r>  -11.6802    1.0000 </r>
       <r>  -11.6774    1.0000 </r>
       <r>  -11.6736    1.0000 </r>
       <r>  -11.6703    1.0000 </r>
       <r>  -11.6677    1.0000 </r>
       <r>  -11.6570    1.0000 </r>
       <r>  -11.6567    1.0000 </r>
       <r>  -11.6479    1.0000 </r>
       <r>  -11.6443    1.0000 </r>
       <r>  -11.6437    1.0000 </r>
       <r>  -11.6357    1.0000 </r>
       <r>  -11.6352    1.0000 </r>
       <r>  -11.6319    1.0000 </r>
       <r>  -11.6239    1.0000 </r>
       <r>  -11.6226    1.0000 </r>
       <r>  -11.6222    1.0000 </r>
       <r>  -11.6151    1.0000 </r>
       <r>  -11.6094    1.0000 </r>
       <r>  -11.6091    1.0000 </r>
       <r>   -9.7232    1.0000 </r>
       <r>   -9.6500    1.0000 </r>
       <r>   -9.5547    1.0000 </r>
       <r>   -9.4784    1.0000 </r>
       <r>   -9.4732    1.0000 </r>
       <r>   -9.4566    1.0000 </r>
       <r>   -9.4374    1.0000 </r>
       <r>   -9.4349    1.0000 </r>
       <r>   -9.4273    1.0000 </r>
       <r>   -9.4120    1.0000 </r>
       <r>   -9.0583    1.0000 </r>
       <r>   -9.0582    1.0000 </r>
       <r>   -5.1138    1.0000 </r>
       <r>   -5.0934    1.0000 </r>
       <r>   -5.0643    1.0000 </r>
       <r>   -5.0337    1.0000 </r>
       <r>   -4.9666    1.0000 </r>
       <r>   -4.8915    1.0000 </r>
       <r>   -4.8533    1.0000 </r>
       <r>   -4.7896    1.0000 </r>
       <r>   -4.7751    1.0000 </r>
       <r>   -4.7493    1.0000 </r>
       <r>   -4.7322    1.0000 </r>
       <r>   -4.7273    1.0000 </r>
       <r>   -4.7020    1.0000 </r>
       <r>   -4.6868    1.0000 </r>
       <r>   -4.6685    1.0000 </r>
       <r>   -4.6574    1.0000 </r>
       <r>   -4.6485    1.0000 </r>
       <r>   -4.6422    1.0000 </r>
       <r>   -4.6269    1.0000 </r>
       <r>   -4.6151    1.0000 </r>
       <r>   -4.5866    1.0000 </r>
       <r>   -4.5837    1.0000 </r>
       <r>   -4.5647    1.0000 </r>
       <r>   -4.5639    1.0000 </r>
       <r>   -4.5496    1.0000 </r>
       <r>   -4.5374    1.0000 </r>
       <r>   -4.5326    1.0000 </r>
       <r>   -4.5137    1.0000 </r>
       <r>   -4.4836    1.0000 </r>
       <r>   -4.4574    1.0000 </r>
       <r>   -4.3537    1.0000 </r>
       <r>   -4.3441    1.0000 </r>
       <r>   -4.2698    1.0000 </r>
       <r>   -4.2440    1.0000 </r>
       <r>   -4.0354    1.0000 </r>
       <r>   -4.0349    1.0000 </r>
       <r>   -2.4027    1.0000 </r>
       <r>   -2.1660    1.0000 </r>
       <r>   -1.8802    1.0000 </r>
       <r>   -1.6412    1.0000 </r>
       <r>   -1.4557    1.0000 </r>
       <r>   -1.4209    1.0000 </r>
       <r>   -1.3947    1.0000 </r>
       <r>   -1.3894    1.0000 </r>
       <r>   -1.3433    1.0000 </r>
       <r>   -1.2956    1.0000 </r>
       <r>   -1.2682    1.0000 </r>
       <r>   -1.1395    1.0000 </r>
       <r>   -1.0346    1.0000 </r>
       <r>   -0.9869    1.0000 </r>
       <r>   -0.9139    1.0000 </r>
       <r>   -0.8959    1.0000 </r>
       <r>   -0.7771    1.0000 </r>
       <r>   -0.7699    1.0000 </r>
       <r>   -0.6804    1.0000 </r>
       <r>   -0.6318    1.0000 </r>
       <r>   -0.6182    1.0000 </r>
       <r>   -0.6173    1.0000 </r>
       <r>   -0.5905    1.0000 </r>
       <r>   -0.5694    1.0000 </r>
       <r>   -0.5276    1.0000 </r>
       <r>   -0.5053    1.0000 </r>
       <r>   -0.4709    1.0000 </r>
       <r>   -0.4508    1.0000 </r>
       <r>   -0.4437    1.0000 </r>
       <r>   -0.4235    1.0000 </r>
       <r>   -0.3894    1.0000 </r>
       <r>   -0.3643    1.0000 </r>
       <r>   -0.3489    1.0000 </r>
       <r>   -0.3264    1.0000 </r>
       <r>   -0.3222    1.0000 </r>
       <r>   -0.3006    1.0000 </r>
       <r>   -0.2569    1.0000 </r>
       <r>   -0.2101    1.0000 </r>
       <r>   -0.2059    1.0000 </r>
       <r>   -0.1823    1.0000 </r>
       <r>   -0.1316    1.0000 </r>
       <r>   -0.0793    1.0000 </r>
       <r>   -0.0741    1.0000 </r>
       <r>   -0.0456    1.0000 </r>
       <r>   -0.0363    1.0000 </r>
       <r>   -0.0236    1.0000 </r>
       <r>   -0.0001    1.0000 </r>
       <r>    0.0263    1.0000 </r>
       <r>    0.0555    1.0000 </r>
       <r>    0.0800    1.0000 </r>
       <r>    0.0826    1.0000 </r>
       <r>    0.0858    1.0000 </r>
       <r>    0.1463    1.0000 </r>
       <r>    0.1612    1.0000 </r>
       <r>    0.1773    1.0000 </r>
       <r>    0.3347    1.0000 </r>
       <r>    0.3468    1.0000 </r>
       <r>    0.3857    1.0000 </r>
       <r>    0.4017    1.0000 </r>
       <r>    0.4124    1.0000 </r>
       <r>    0.4485    1.0000 </r>
       <r>    0.4526    1.0000 </r>
       <r>    0.5132    1.0000 </r>
       <r>    0.5264    1.0000 </r>
       <r>    0.5491    1.0000 </r>
       <r>    0.5589    1.0000 </r>
       <r>    0.6863    1.0000 </r>
       <r>    0.7135    1.0000 </r>
       <r>    0.7955    1.0000 </r>
       <r>    0.7963    1.0000 </r>
       <r>    0.8116    1.0000 </r>
       <r>    0.8510    1.0000 </r>
       <r>    2.0179    0.0000 </r>
       <r>    2.0741    0.0000 </r>
       <r>    2.0989    0.0000 </r>
[...]
       <r>   -29.0836     0.0000     0.0000 </r>
       <r>   -28.9678     0.0000     0.0000 </r>
       <r>   -28.8519     0.0000     0.0000 </r>
       <r>   -28.7361     0.0000     0.0000 </r>
       <r>   -28.6202     0.0000     0.0000 </r>
       <r>   -28.5044     0.0000     0.0000 </r>
       <r>   -28.3885     0.0000     0.0000 </r>
       <r>   -28.2726     0.0000     0.0000 </r>
       <r>   -28.1568     0.0000     0.0000 </r>
       <r>   -28.0409     0.0000     0.0000 </r>
       <r>   -27.9251     0.0000     0.0000 </r>
       <r>   -27.8092     0.0000     0.0000 </r>
       <r>   -27.6934     0.0000     0.0000 </r>
       <r>   -27.5775     0.0000     0.0000 </r>
       <r>   -27.4616    34.5251     4.0000 </r>
       <r>   -27.3458     0.0000     4.0000 </r>
       <r>   -27.2299     0.0000     4.0000 </r>
       <r>   -27.1141     0.0000     4.0000 </r>
       <r>   -26.9982     0.0000     4.0000 </r>
       <r>   -26.8824     0.0000     4.0000 </r>
       <r>   -26.7665     0.0000     4.0000 </r>
       <r>   -26.6506     0.0000     4.0000 </r>
       <r>   -26.5348    23.7203     6.7482 </r>
       <r>   -26.4189   103.5610    27.9983 </r>
       <r>   -26.3031   103.4641    47.9871 </r>
       <r>   -26.1872     0.0000    48.0000 </r>
       <r>   -26.0713     0.0000    48.0000 </r>
       <r>   -25.9555     0.0000    48.0000 </r>
       <r>   -25.8396     0.0000    48.0000 </r>
       <r>   -25.7238     0.0000    48.0000 </r>
       <r>   -25.6079     0.0000    48.0000 </r>
       <r>   -25.4921     0.0000    48.0000 </r>
       <r>   -25.3762     0.0000    48.0000 </r>
       <r>   -25.2603     0.0000    48.0000 </r>
       <r>   -25.1445     0.0000    48.0000 </r>
       <r>   -25.0286     0.0000    48.0000 </r>
       <r>   -24.9128     0.0000    48.0000 </r>
       <r>   -24.7969     0.0000    48.0000 </r>
       <r>   -24.6811     0.0000    48.0000 </r>
       <r>   -24.5652     0.0000    48.0000 </r>
       <r>   -24.4493     0.0000    48.0000 </r>
       <r>   -24.3335     0.0000    48.0000 </r>
       <r>   -24.2176     0.0000    48.0000 </r>
       <r>   -24.1018     0.0000    48.0000 </r>
       <r>   -23.9859     0.0000    48.0000 </r>
       <r>   -23.8701     0.0000    48.0000 </r>
       <r>   -23.7542     0.0000    48.0000 </r>
       <r>   -23.6383     0.0000    48.0000 </r>
       <r>   -23.5225     0.0000    48.0000 </r>
       <r>   -23.4066     0.0000    48.0000 </r>
       <r>   -23.2908     0.0000    48.0000 </r>
       <r>   -23.1749     0.0000    48.0000 </r>
       <r>   -23.0591     0.0000    48.0000 </r>
       <r>   -22.9432     0.0000    48.0000 </r>
       <r>   -22.8273     0.0000    48.0000 </r>
       <r>   -22.7115     0.0000    48.0000 </r>
       <r>   -22.5956     0.0000    48.0000 </r>
       <r>   -22.4798     0.0000    48.0000 </r>
       <r>   -22.3639     0.0000    48.0000 </r>
       <r>   -22.2480     0.0000    48.0000 </r>
       <r>   -22.1322     0.0000    48.0000 </r>
       <r>   -22.0163     0.0000    48.0000 </r>
       <r>   -21.9005     0.0000    48.0000 </r>
       <r>   -21.7846     0.0000    48.0000 </r>
       <r>   -21.6688     0.0000    48.0000 </r>
       <r>   -21.5529     0.0000    48.0000 </r>
       <r>   -21.4370     0.0000    48.0000 </r>
       <r>   -21.3212     0.0000    48.0000 </r>
       <r>   -21.2053     0.0000    48.0000 </r>
       <r>   -21.0895     0.0000    48.0000 </r>
       <r>   -20.9736     0.0000    48.0000 </r>
       <r>   -20.8578     0.0000    48.0000 </r>
       <r>   -20.7419     0.0000    48.0000 </r>
       <r>   -20.6260     0.0000    48.0000 </r>
       <r>   -20.5102     0.0000    48.0000 </r>
       <r>   -20.3943     0.0000    48.0000 </r>
       <r>   -20.2785     0.0000    48.0000 </r>
       <r>   -20.1626     0.0000    48.0000 </r>
       <r>   -20.0468     0.0000    48.0000 </r>
       <r>   -19.9309     0.0000    48.0000 </r>
       <r>   -19.8150     0.0000    48.0000 </r>
       <r>   -19.6992     0.0000    48.0000 </r>
       <r>   -19.5833     0.0000    48.0000 </r>
       <r>   -19.4675     0.0000    48.0000 </r>
       <r>   -19.3516     0.0000    48.0000 </r>
       <r>   -19.2357     0.0000    48.0000 </r>
       <r>   -19.1199     0.0000    48.0000 </r>
       <r>   -19.0040     0.0000    48.0000 </r>
       <r>   -18.8882     0.0000    48.0000 </r>
       <r>   -18.7723     0.0000    48.0000 </r>
       <r>   -18.6565     0.0000    48.0000 </r>
       <r>   -18.5406     0.0000    48.0000 </r>
       <r>   -18.4247     0.0000    48.0000 </r>
       <r>   -18.3089     0.0000    48.0000 </r>
       <r>   -18.1930     0.0000    48.0000 </r>
       <r>   -18.0772     0.0000    48.0000 </r>
       <r>   -17.9613     0.0000    48.0000 </r>
       <r>   -17.8455     0.0000    48.0000 </r>
       <r>   -17.7296     0.0000    48.0000 </r>
       <r>   -17.6137     0.0000    48.0000 </r>
       <r>   -17.4979     0.0000    48.0000 </r>
       <r>   -17.3820     0.0000    48.0000 </r>
       <r>   -17.2662     0.0000    48.0000 </r>
       <r>   -17.1503     0.0000    48.0000 </r>
       <r>   -17.0345     0.0000    48.0000 </r>
       <r>   -16.9186     0.0000    48.0000 </r>
       <r>   -16.8027     0.0000    48.0000 </r>
       <r>   -16.6869     0.0000    48.0000 </r>
       <r>   -16.5710     0.0000    48.0000 </r>
       <r>   -16.4552     0.0000    48.0000 </r>
       <r>   -16.3393     0.0000    48.0000 </r>
       <r>   -16.2234     0.0000    48.0000 </r>
       <r>   -16.1076     0.0000    48.0000 </r>
       <r>   -15.9917     0.0000    48.0000 </r>
       <r>   -15.8759     0.0000    48.0000 </r>
       <r>   -15.7600     0.0000    48.0000 </r>
       <r>   -15.6442     0.0000    48.0000 </r>
       <r>   -15.5283     0.0000    48.0000 </r>
       <r>   -15.4124     0.0000    48.0000 </r>
       <r>   -15.2966     0.0000    48.0000 </r>
       <r>   -15.1807     0.0000    48.0000 </r>
       <r>   -15.0649     0.0000    48.0000 </r>
       <r>   -14.9490     0.0000    48.0000 </r>
       <r>   -14.8332     0.0000    48.0000 </r>
       <r>   -14.7173     0.0000    48.0000 </r>
       <r>   -14.6014     0.0000    48.0000 </r>
       <r>   -14.4856     0.0000    48.0000 </r>
       <r>   -14.3697     0.0000    48.0000 </r>
       <r>   -14.2539     0.0000    48.0000 </r>
       <r>   -14.1380     0.0000    48.0000 </r>
       <r>   -14.0222     0.0000    48.0000 </r>
       <r>   -13.9063     0.0000    48.0000 </r>
       <r>   -13.7904     0.0000    48.0000 </r>
       <r>   -13.6746     0.0000    48.0000 </r>
       <r>   -13.5587     0.0000    48.0000 </r>
       <r>   -13.4429     0.0000    48.0000 </r>
       <r>   -13.3270     0.0000    48.0000 </r>
       <r>   -13.2112     0.0000    48.0000 </r>
       <r>   -13.0953     0.0000    48.0000 </r>
       <r>   -12.9794     0.0000    48.0000 </r>
       <r>   -12.8636    31.7757    51.6815 </r>
       <r>   -12.7477    40.4562    56.6872 </r>
       <r>   -12.6319     0.0000    60.0000 </r>
       <r>   -12.5160     0.0000    60.0000 </r>
       <r>   -12.4001     0.0000    60.0000 </r>
       <r>   -12.2843     0.0000    60.0000 </r>
       <r>   -12.1684     0.0000    60.0000 </r>
       <r>   -12.0526    92.2648    70.6896 </r>
       <r>   -11.9367   158.0306    93.9090 </r>
       <r>   -11.8209   181.8105   124.5391 </r>
       <r>   -11.7050   134.1058   146.3372 </r>
       <r>   -11.5891   293.0504   191.7021 </r>
       <r>   -11.4733     0.0000   192.0000 </r>
       <r>   -11.3574     0.0000   192.0000 </r>
       <r>   -11.2416     0.0000   192.0000 </r>
       <r>   -11.1257     0.0000   192.0000 </r>
       <r>   -11.0099     0.0000   192.0000 </r>
       <r>   -10.8940     0.0000   192.0000 </r>
       <r>   -10.7781     0.0000   192.0000 </r>
       <r>   -10.6623     0.0000   192.0000 </r>
       <r>   -10.5464     0.0000   192.0000 </r>
       <r>   -10.4306     0.0000   192.0000 </r>
       <r>   -10.3147     0.0000   192.0000 </r>
       <r>   -10.1989     0.0000   192.0000 </r>
       <r>   -10.0830     0.0000   192.0000 </r>
       <r>    -9.9671     0.0000   192.0000 </r>
       <r>    -9.8513     0.0000   192.0000 </r>
       <r>    -9.7354     0.2002   192.0232 </r>
       <r>    -9.6196     6.4062   193.0672 </r>
       <r>    -9.5037    21.1802   195.9539 </r>
       <r>    -9.3878   106.0244   211.2337 </r>
       <r>    -9.2720     0.0000   212.0000 </r>
       <r>    -9.1561     0.0000   212.0000 </r>
       <r>    -9.0403    15.7602   213.8259 </r>
       <r>    -8.9244    12.9469   216.0000 </r>
       <r>    -8.8086     0.0000   216.0000 </r>
       <r>    -8.6927     0.0000   216.0000 </r>
       <r>    -8.5768     0.0000   216.0000 </r>
       <r>    -8.4610     0.0000   216.0000 </r>
       <r>    -8.3451     0.0000   216.0000 </r>
       <r>    -8.2293     0.0000   216.0000 </r>
       <r>    -8.1134     0.0000   216.0000 </r>
       <r>    -7.9976     0.0000   216.0000 </r>
       <r>    -7.8817     0.0000   216.0000 </r>
       <r>    -7.7658     0.0000   216.0000 </r>
       <r>    -7.6500     0.0000   216.0000 </r>
       <r>    -7.5341     0.0000   216.0000 </r>
       <r>    -7.4183     0.0000   216.0000 </r>
       <r>    -7.3024     0.0000   216.0000 </r>
       <r>    -7.1866     0.0000   216.0000 </r>
       <r>    -7.0707     0.0000   216.0000 </r>
       <r>    -6.9548     0.0000   216.0000 </r>
       <r>    -6.8390     0.0000   216.0000 </r>
       <r>    -6.7231     0.0000   216.0000 </r>
       <r>    -6.6073     0.0000   216.0000 </r>
       <r>    -6.4914     0.0000   216.0000 </r>
       <r>    -6.3755     0.0000   216.0000 </r>
       <r>    -6.2597     0.0000   216.0000 </r>
       <r>    -6.1438     0.0000   216.0000 </r>
       <r>    -6.0280     0.0000   216.0000 </r>
       <r>    -5.9121     0.0000   216.0000 </r>
       <r>    -5.7963     0.0000   216.0000 </r>
       <r>    -5.6804     0.0000   216.0000 </r>
       <r>    -5.5645     0.0000   216.0000 </r>
       <r>    -5.4487     0.0000   216.0000 </r>
       <r>    -5.3328     0.0000   216.0000 </r>
       <r>    -5.2170     0.0000   216.0000 </r>
       <r>    -5.1011     8.0138   216.9285 </r>
       <r>    -4.9853    48.5939   224.4050 </r>
       <r>    -4.8694    36.7391   230.8065 </r>
       <r>    -4.7535    33.3880   236.0433 </r>
       <r>    -4.6377    98.9799   250.0176 </r>
       <r>    -4.5218    93.0375   266.1791 </r>
       <r>    -4.4060    42.8906   275.4942 </r>
       <r>    -4.2901    14.9789   278.1104 </r>
       <r>    -4.1743    50.5608   285.1329 </r>
       <r>    -4.0584     5.8179   286.5240 </r>
       <r>    -3.9425     0.0000   288.0000 </r>
       <r>    -3.8267     0.0000   288.0000 </r>
       <r>    -3.7108     0.0000   288.0000 </r>
       <r>    -3.5950     0.0000   288.0000 </r>
       <r>    -3.4791     0.0000   288.0000 </r>
       <r>    -3.3633     0.0000   288.0000 </r>
       <r>    -3.2474     0.0000   288.0000 </r>
       <r>    -3.1315     0.0000   288.0000 </r>
       <r>    -3.0157     0.0000   288.0000 </r>
       <r>    -2.8998     0.0000   288.0000 </r>
       <r>    -2.7840     0.0000   288.0000 </r>
       <r>    -2.6681     0.0000   288.0000 </r>
       <r>    -2.5522     0.0000   288.0000 </r>
       <r>    -2.4364     0.1206   288.0140 </r>
       <r>    -2.3205     1.2435   288.3191 </r>
       <r>    -2.2047     0.9761   288.4631 </r>
       <r>    -2.0888     2.3250   288.9194 </r>
       <r>    -1.9730     1.4438   289.1923 </r>
       <r>    -1.8571     5.0804   289.8636 </r>
       <r>    -1.7412     5.9551   290.7899 </r>
       <r>    -1.6254     7.7195   291.9194 </r>
       <r>    -1.5095     7.1172   293.1746 </r>
       <r>    -1.3937    32.8121   297.4265 </r>
       <r>    -1.2778    29.3548   302.2510 </r>
       <r>    -1.1620    24.1289   306.3955 </r>
       <r>    -1.0461    22.7991   311.5165 </r>
       <r>    -0.9302    37.4275   318.3613 </r>
       <r>    -0.8144    26.9768   322.9755 </r>
       <r>    -0.6985    31.2478   328.3953 </r>
       <r>    -0.5827    55.7877   337.0384 </r>
       <r>    -0.4668    42.7886   344.4324 </r>
       <r>    -0.3510    63.0807   356.1834 </r>
       <r>    -0.2351    53.0502   366.1213 </r>
       <r>    -0.1192    45.1968   373.6364 </r>
       <r>    -0.0034    43.9681   380.8440 </r>
       <r>     0.1125    62.7735   390.4228 </r>
       <r>     0.2283    33.0883   397.9585 </r>
       <r>     0.3442    37.3090   403.4725 </r>
       <r>     0.4601    49.3124   411.0632 </r>
       <r>     0.5759    37.0062   417.1875 </r>
       <r>     0.6918    32.7976   422.9499 </r>
       <r>     0.8076    39.9357   429.6269 </r>
       <r>     0.9235     7.0424   431.8409 </r>
       <r>     1.0393     0.0000   432.0000 </r>
       <r>     1.1552     0.0000   432.0000 </r>
       <r>     1.2711     0.0000   432.0000 </r>
       <r>     1.3869     0.0000   432.0000 </r>
       <r>     1.5028     0.0000   432.0000 </r>
       <r>     1.6186     0.0000   432.0000 </r>
       <r>     1.7345     0.0001   432.0000 </r>
       <r>     1.8503    10.6176   433.5051 </r>
       <r>     1.9662    16.1034   436.9657 </r>
       <r>     2.0821    20.3263   440.2050 </r>
       <r>     2.1979    22.5517   444.9878 </r>
       <r>     2.3138    36.0414   450.5257 </r>
       <r>     2.4296    45.8990   457.3427 </r>
       <r>     2.5455    36.4638   463.2746 </r>
       <r>     2.6613    33.4880   468.5548 </r>
       <r>     2.7772    40.6394   474.7084 </r>
       <r>     2.8931    35.9185   480.2614 </r>
       <r>     3.0089    37.2552   486.6663 </r>
       <r>     3.1248    34.2729   492.7458 </r>
       <r>     3.2406    36.7102   498.5032 </r>
       <r>     3.3565    35.3587   503.9716 </r>
       <r>     3.4724    38.6530   510.4782 </r>
       <r>     3.5882    40.0289   517.1626 </r>
       <r>     3.7041    31.3679   522.9092 </r>
       <r>     3.8199    16.3278   526.1167 </r>
       <r>     3.9358     4.7186   527.5967 </r>
       <r>     4.0516     1.7022   527.9472 </r>
       <r>     4.1675     0.2158   528.0000 </r>
       <r>     4.2834     0.0000   528.0000 </r>
       <r>     4.3992     0.0000   528.0000 </r>
       <r>     4.5151     0.0000   528.0000 </r>
       <r>     4.6309     0.0000   528.0000 </r>
       <r>     4.7468     0.0000   528.0000 </r>
       <r>     4.8626     0.0000   528.0000 </r>
       <r>     4.9785     0.0000   528.0000 </r>
       <r>     5.0944     0.0000   528.0000 </r>
       <r>     5.2102     0.0000   528.0000 </r>
       <r>     5.3261     0.0000   528.0000 </r>
       <r>     5.4419     0.0000   528.0000 </r>
       <r>     5.5578     0.0000   528.0000 </r>
       <r>     5.6736     0.0000   528.0000 </r>
      </set>
     </set>
    </array>
   </total>
  </dos>
 </calculation>
 <structure name="finalpos" >
  <crystal>
   <varray name="basis" >
    <v>      42.02840424       0.00000000       0.00000000 </v>
    <v>       0.00000000       6.67066777       0.00000000 </v>
    <v>       0.00000000       0.00000000      11.42460441 </v>
   </varray>
   <i name="volume">   3202.97377925 </i>
   <varray name="rec_basis" >
    <v>       0.02379343       0.00000000       0.00000000 </v>
    <v>       0.00000000       0.14991003       0.00000000 </v>
    <v>       0.00000000       0.00000000       0.08753038 </v>
   </varray>
  </crystal>
  <varray name="positions" >
   <v>       0.00875685       0.25822077       0.70821454 </v>
   <v>       0.21826010       0.25786537       0.69794062 </v>
   <v>       0.43191618       0.25784947       0.69868680 </v>
   <v>       0.21118236       0.75821819       0.31685325 </v>
   <v>       0.42483839       0.75820229       0.31759942 </v>
   <v>       0.63434164       0.75784689       0.30732551 </v>
   <v>       0.10183913       0.75855611       0.20031035 </v>
   <v>       0.31809884       0.75811464       0.19816145 </v>
   <v>       0.53145993       0.75823249       0.19892236 </v>
   <v>       0.11163860       0.25783517       0.81661767 </v>
   <v>       0.32499971       0.25795302       0.81737858 </v>
   <v>       0.54125941       0.25751155       0.81522967 </v>
   <v>       0.04696007       0.75842436       0.91983766 </v>
   <v>       0.24912268       0.75755518       0.91382010 </v>
   <v>       0.46341667       0.75848193       0.91414522 </v>
   <v>       0.17968187       0.25758573       0.10139480 </v>
   <v>       0.39397584       0.25851248       0.10171993 </v>
   <v>       0.59613844       0.25764330       0.09570237 </v>
   <v>       0.07497987       0.25821314       0.40302193 </v>
   <v>       0.28749576       0.25797300       0.41299042 </v>
   <v>       0.50066946       0.25774583       0.41218744 </v>
   <v>       0.14242905       0.75832183       0.60335265 </v>
   <v>       0.35560277       0.75809466       0.60254967 </v>
   <v>       0.56811865       0.75785452       0.61251816 </v>
   <v>       0.03942250       0.07932052       0.15381473 </v>
   <v>       0.25541265       0.07771844       0.15423199 </v>
   <v>       0.46842978       0.07769516       0.15353111 </v>
   <v>       0.17466875       0.93837247       0.86200891 </v>
   <v>       0.38768588       0.93834920       0.86130804 </v>
   <v>       0.60367602       0.93674711       0.86172529 </v>
   <v>       0.06737702       0.93749887       0.64926080 </v>
   <v>       0.28058944       0.93866273       0.65373983 </v>
   <v>       0.49452012       0.93892318       0.65473638 </v>
   <v>       0.14857840       0.07714445       0.36080366 </v>
   <v>       0.36250909       0.07740490       0.36180022 </v>
   <v>       0.57572148       0.07856877       0.36627925 </v>
   <v>       0.17458386       0.57649802       0.86211869 </v>
   <v>       0.38771825       0.57740019       0.86155072 </v>
   <v>       0.60363596       0.57798820       0.86201952 </v>
   <v>       0.03946256       0.43807944       0.15352051 </v>
   <v>       0.25538028       0.43866745       0.15398930 </v>
   <v>       0.46851468       0.43956963       0.15342133 </v>
   <v>       0.14857951       0.43959673       0.36072997 </v>
   <v>       0.36248562       0.43852920       0.36173270 </v>
   <v>       0.57574112       0.43725694       0.36609139 </v>
   <v>       0.06735738       0.57881070       0.64944865 </v>
   <v>       0.28061292       0.57753845       0.65380735 </v>
   <v>       0.49451902       0.57647091       0.65481008 </v>
   <v>       0.01704370       0.75820188       0.62614713 </v>
   <v>       0.23278215       0.75780419       0.59967082 </v>
   <v>       0.44688635       0.75762161       0.59981961 </v>
   <v>       0.19621214       0.25844605       0.41572044 </v>
   <v>       0.41031634       0.25826347       0.41586923 </v>
   <v>       0.62605483       0.25786578       0.38939291 </v>
   <v>       0.08812723       0.25841268       0.09018651 </v>
   <v>       0.30325227       0.25827111       0.09985740 </v>
   <v>       0.51591264       0.25817452       0.09880369 </v>
   <v>       0.12718590       0.75789314       0.91673633 </v>
   <v>       0.33984624       0.75779655       0.91568263 </v>
   <v>       0.55497131       0.75765498       0.92535351 </v>
   <v>       0.03976862       0.25822024       0.97042943 </v>
   <v>       0.25635990       0.25755885       0.97176412 </v>
   <v>       0.47014572       0.25844702       0.97030833 </v>
   <v>       0.17295282       0.75762064       0.04523174 </v>
   <v>       0.38673865       0.75850881       0.04377594 </v>
   <v>       0.60332992       0.75784742       0.04511064 </v>
   <v>       0.05617412       0.75799826       0.46875959 </v>
   <v>       0.27963697       0.75798149       0.47137630 </v>
   <v>       0.49371124       0.75762358       0.47210749 </v>
   <v>       0.14938730       0.25844408       0.54343247 </v>
   <v>       0.36346155       0.25808617       0.54416367 </v>
   <v>       0.58692440       0.25806940       0.54678037 </v>
  </varray>
 </structure>
</modeling>
