<?xml version="1.0" encoding="ISO-8859-1"?>
<modeling>
 <generator>
  <i name="program" type="string">vasp </i>
  <i name="version" type="string">5.4.4.18Apr17-6-g9f103f2a35  </i>
  <i name="subversion" type="string">(build Nov 21 2017 15:30:27) complex            parallel </i>
  <i name="platform" type="string">LinuxIFC </i>
  <i name="date" type="string">2021 02 08 </i>
  <i name="time" type="string">14:18:44 </i>
 </generator>
 <incar>
  <i type="string" name="PREC">normal</i>
  <i type="int" name="ICHARG">    11</i>
  <i type="int" name="NELM">   100</i>
  <i name="EDIFF">      0.00000100</i>
  <i name="EDIFFG">     -0.01000000</i>
  <i name="ENCUT">    500.00000000</i>
  <i name="POTIM">      0.30000000</i>
  <i type="string" name="LREAL"> Auto       ! Projection in reciprocal s</i>
  <i type="int" name="ISMEAR">     0</i>
  <i name="SIGMA">      0.01000000</i>
  <i type="logical" name="LWAVE"> T  </i>
  <i type="logical" name="LCHARG"> T  </i>
  <i type="logical" name="LASPH"> T  </i>
  <v type="int" name="KPOINT_BSE">    -1     0     0     0</v>
  <i type="int" name="NELM">   100</i>
  <i type="string" name="GGA"> MK</i>
  <i name="PARAM1">      0.12340000</i>
  <i name="PARAM2">      0.71135700</i>
  <i type="logical" name="LUSE_VDW"> T  </i>
  <i name="Zab_VDW">     -1.88670000</i>
  <i name="AGGAC">      0.00000000</i>
  <i type="logical" name="LASPH"> T  </i>
 </incar>
 <structure name="primitive_cell" >
  <crystal>
   <varray name="basis" >
    <v>       9.09164702       0.00000000       0.00000000 </v>
    <v>       0.00000000       6.83207265       0.00000000 </v>
    <v>       0.00000000       0.00000000      11.62987835 </v>
   </varray>
   <i name="volume">    722.38748611 </i>
   <varray name="rec_basis" >
    <v>       0.10999107       0.00000000       0.00000000 </v>
    <v>       0.00000000       0.14636847       0.00000000 </v>
    <v>       0.00000000       0.00000000       0.08598542 </v>
   </varray>
  </crystal>
  <varray name="positions" >
   <v>       0.01576865       0.25000000      -0.30958305 </v>
   <v>      -0.19042122      -0.43979088      -0.15018043 </v>
   <v>      -0.19042122      -0.06020912      -0.15018043 </v>
   <v>      -0.30685461       0.25000000      -0.45737625 </v>
   <v>      -0.07195078       0.25000000       0.40581954 </v>
   <v>       0.30957878      -0.43979088      -0.34981957 </v>
   <v>       0.30957878      -0.06020912      -0.34981957 </v>
   <v>       0.19314538       0.25000000      -0.04262375 </v>
   <v>       0.07195076      -0.24999998      -0.40581954 </v>
   <v>       0.15753874      -0.24999998      -0.09309024 </v>
   <v>       0.34246126       0.25000000       0.40690984 </v>
   <v>      -0.48423135       0.25000000      -0.19041691 </v>
   <v>      -0.34246126      -0.24999998      -0.40690980 </v>
   <v>      -0.15753874       0.25000000       0.09309022 </v>
   <v>       0.30685461      -0.24999998       0.45737617 </v>
   <v>      -0.30957878       0.43979088       0.34981957 </v>
   <v>      -0.30957878       0.06020911       0.34981957 </v>
   <v>      -0.01576865      -0.24999998       0.30958305 </v>
   <v>      -0.19314539      -0.24999998       0.04262376 </v>
   <v>       0.19042122       0.43979088       0.15018041 </v>
   <v>       0.19042122       0.06020911       0.15018041 </v>
   <v>      -0.42804922      -0.24999998      -0.09418042 </v>
   <v>       0.42804925       0.25000000       0.09418040 </v>
   <v>       0.48423135      -0.24999998       0.19041689 </v>
  </varray>
 </structure>
 <varray name="primitive_index" >
  <v type="int" >        1 </v>
  <v type="int" >       13 </v>
  <v type="int" >       10 </v>
  <v type="int" >       24 </v>
  <v type="int" >       18 </v>
  <v type="int" >       16 </v>
  <v type="int" >       11 </v>
  <v type="int" >       21 </v>
  <v type="int" >       17 </v>
  <v type="int" >        5 </v>
  <v type="int" >        7 </v>
  <v type="int" >        4 </v>
  <v type="int" >        8 </v>
  <v type="int" >        6 </v>
  <v type="int" >       23 </v>
  <v type="int" >       15 </v>
  <v type="int" >       12 </v>
  <v type="int" >        2 </v>
  <v type="int" >       22 </v>
  <v type="int" >       14 </v>
  <v type="int" >        9 </v>
  <v type="int" >       20 </v>
  <v type="int" >       19 </v>
  <v type="int" >        3 </v>
 </varray>
 <kpoints>
  <generation param="listgenerated">
   <i name="divisions" type="int">      20 </i>
   <v>       0.00000000       0.00000000       0.00000000 </v>
   <v>       0.00000000       0.50000000       0.00000000 </v>
   <v>       0.00000000       0.50000000       0.50000000 </v>
   <v>       0.00000000       0.00000000       0.50000000 </v>
   <v>       0.00000000       0.00000000       0.00000000 </v>
   <v>       0.50000000       0.00000000       0.00000000 </v>
  </generation>
  <varray name="kpointlist" >
   <v>       0.00000000       0.00000000       0.00000000 </v>
   <v>       0.00000000       0.02631579       0.00000000 </v>
   <v>       0.00000000       0.05263158       0.00000000 </v>
   <v>       0.00000000       0.07894737       0.00000000 </v>
   <v>       0.00000000       0.10526316       0.00000000 </v>
   <v>       0.00000000       0.13157895       0.00000000 </v>
   <v>       0.00000000       0.15789474       0.00000000 </v>
   <v>       0.00000000       0.18421053       0.00000000 </v>
   <v>       0.00000000       0.21052632       0.00000000 </v>
   <v>       0.00000000       0.23684211       0.00000000 </v>
   <v>       0.00000000       0.26315789       0.00000000 </v>
   <v>       0.00000000       0.28947368       0.00000000 </v>
   <v>       0.00000000       0.31578947       0.00000000 </v>
   <v>       0.00000000       0.34210526       0.00000000 </v>
   <v>       0.00000000       0.36842105       0.00000000 </v>
   <v>       0.00000000       0.39473684       0.00000000 </v>
   <v>       0.00000000       0.42105263       0.00000000 </v>
   <v>       0.00000000       0.44736842       0.00000000 </v>
   <v>       0.00000000       0.47368421       0.00000000 </v>
   <v>       0.00000000       0.50000000       0.00000000 </v>
   <v>       0.00000000       0.50000000       0.00000000 </v>
   <v>       0.00000000       0.50000000       0.02631579 </v>
   <v>       0.00000000       0.50000000       0.05263158 </v>
   <v>       0.00000000       0.50000000       0.07894737 </v>
   <v>       0.00000000       0.50000000       0.10526316 </v>
   <v>       0.00000000       0.50000000       0.13157895 </v>
   <v>       0.00000000       0.50000000       0.15789474 </v>
   <v>       0.00000000       0.50000000       0.18421053 </v>
   <v>       0.00000000       0.50000000       0.21052632 </v>
   <v>       0.00000000       0.50000000       0.23684211 </v>
   <v>       0.00000000       0.50000000       0.26315789 </v>
   <v>       0.00000000       0.50000000       0.28947368 </v>
   <v>       0.00000000       0.50000000       0.31578947 </v>
   <v>       0.00000000       0.50000000       0.34210526 </v>
   <v>       0.00000000       0.50000000       0.36842105 </v>
   <v>       0.00000000       0.50000000       0.39473684 </v>
   <v>       0.00000000       0.50000000       0.42105263 </v>
   <v>       0.00000000       0.50000000       0.44736842 </v>
   <v>       0.00000000       0.50000000       0.47368421 </v>
   <v>       0.00000000       0.50000000       0.50000000 </v>
   <v>       0.00000000       0.50000000       0.50000000 </v>
   <v>       0.00000000       0.47368421       0.50000000 </v>
   <v>       0.00000000       0.44736842       0.50000000 </v>
   <v>       0.00000000       0.42105263       0.50000000 </v>
   <v>       0.00000000       0.39473684       0.50000000 </v>
   <v>       0.00000000       0.36842105       0.50000000 </v>
   <v>       0.00000000       0.34210526       0.50000000 </v>
   <v>       0.00000000       0.31578947       0.50000000 </v>
   <v>       0.00000000       0.28947368       0.50000000 </v>
   <v>       0.00000000       0.26315789       0.50000000 </v>
   <v>       0.00000000       0.23684211       0.50000000 </v>
   <v>       0.00000000       0.21052632       0.50000000 </v>
   <v>       0.00000000       0.18421053       0.50000000 </v>
   <v>       0.00000000       0.15789474       0.50000000 </v>
   <v>       0.00000000       0.13157895       0.50000000 </v>
   <v>       0.00000000       0.10526316       0.50000000 </v>
   <v>       0.00000000       0.07894737       0.50000000 </v>
   <v>       0.00000000       0.05263158       0.50000000 </v>
   <v>       0.00000000       0.02631579       0.50000000 </v>
   <v>       0.00000000       0.00000000       0.50000000 </v>
   <v>       0.00000000       0.00000000       0.50000000 </v>
   <v>       0.00000000       0.00000000       0.47368421 </v>
   <v>       0.00000000       0.00000000       0.44736842 </v>
   <v>       0.00000000       0.00000000       0.42105263 </v>
   <v>       0.00000000       0.00000000       0.39473684 </v>
   <v>       0.00000000       0.00000000       0.36842105 </v>
   <v>       0.00000000       0.00000000       0.34210526 </v>
   <v>       0.00000000       0.00000000       0.31578947 </v>
   <v>       0.00000000       0.00000000       0.28947368 </v>
   <v>       0.00000000       0.00000000       0.26315789 </v>
   <v>       0.00000000       0.00000000       0.23684211 </v>
   <v>       0.00000000       0.00000000       0.21052632 </v>
   <v>       0.00000000       0.00000000       0.18421053 </v>
   <v>       0.00000000       0.00000000       0.15789474 </v>
   <v>       0.00000000       0.00000000       0.13157895 </v>
   <v>       0.00000000       0.00000000       0.10526316 </v>
   <v>       0.00000000       0.00000000       0.07894737 </v>
   <v>       0.00000000       0.00000000       0.05263158 </v>
   <v>       0.00000000       0.00000000       0.02631579 </v>
   <v>       0.00000000       0.00000000       0.00000000 </v>
   <v>       0.00000000       0.00000000       0.00000000 </v>
   <v>       0.02631579       0.00000000       0.00000000 </v>
   <v>       0.05263158       0.00000000       0.00000000 </v>
   <v>       0.07894737       0.00000000       0.00000000 </v>
   <v>       0.10526316       0.00000000       0.00000000 </v>
   <v>       0.13157895       0.00000000       0.00000000 </v>
   <v>       0.15789474       0.00000000       0.00000000 </v>
   <v>       0.18421053       0.00000000       0.00000000 </v>
   <v>       0.21052632       0.00000000       0.00000000 </v>
   <v>       0.23684211       0.00000000       0.00000000 </v>
   <v>       0.26315789       0.00000000       0.00000000 </v>
   <v>       0.28947368       0.00000000       0.00000000 </v>
   <v>       0.31578947       0.00000000       0.00000000 </v>
   <v>       0.34210526       0.00000000       0.00000000 </v>
   <v>       0.36842105       0.00000000       0.00000000 </v>
   <v>       0.39473684       0.00000000       0.00000000 </v>
   <v>       0.42105263       0.00000000       0.00000000 </v>
   <v>       0.44736842       0.00000000       0.00000000 </v>
   <v>       0.47368421       0.00000000       0.00000000 </v>
   <v>       0.50000000       0.00000000       0.00000000 </v>
  </varray>
  <varray name="weights" >
   <v>       0.01000000 </v>
   <v>       0.01000000 </v>
   <v>       0.01000000 </v>
   <v>       0.01000000 </v>
   <v>       0.01000000 </v>
   <v>       0.01000000 </v>
   <v>       0.01000000 </v>
   <v>       0.01000000 </v>
   <v>       0.01000000 </v>
   <v>       0.01000000 </v>
   <v>       0.01000000 </v>
   <v>       0.01000000 </v>
   <v>       0.01000000 </v>
   <v>       0.01000000 </v>
   <v>       0.01000000 </v>
   <v>       0.01000000 </v>
   <v>       0.01000000 </v>
   <v>       0.01000000 </v>
   <v>       0.01000000 </v>
   <v>       0.01000000 </v>
   <v>       0.01000000 </v>
   <v>       0.01000000 </v>
   <v>       0.01000000 </v>
   <v>       0.01000000 </v>
   <v>       0.01000000 </v>
   <v>       0.01000000 </v>
   <v>       0.01000000 </v>
   <v>       0.01000000 </v>
   <v>       0.01000000 </v>
   <v>       0.01000000 </v>
   <v>       0.01000000 </v>
   <v>       0.01000000 </v>
   <v>       0.01000000 </v>
   <v>       0.01000000 </v>
   <v>       0.01000000 </v>
   <v>       0.01000000 </v>
   <v>       0.01000000 </v>
   <v>       0.01000000 </v>
   <v>       0.01000000 </v>
   <v>       0.01000000 </v>
   <v>       0.01000000 </v>
   <v>       0.01000000 </v>
   <v>       0.01000000 </v>
   <v>       0.01000000 </v>
   <v>       0.01000000 </v>
   <v>       0.01000000 </v>
   <v>       0.01000000 </v>
   <v>       0.01000000 </v>
   <v>       0.01000000 </v>
   <v>       0.01000000 </v>
   <v>       0.01000000 </v>
   <v>       0.01000000 </v>
   <v>       0.01000000 </v>
   <v>       0.01000000 </v>
   <v>       0.01000000 </v>
   <v>       0.01000000 </v>
   <v>       0.01000000 </v>
   <v>       0.01000000 </v>
   <v>       0.01000000 </v>
   <v>       0.01000000 </v>
   <v>       0.01000000 </v>
   <v>       0.01000000 </v>
   <v>       0.01000000 </v>
   <v>       0.01000000 </v>
   <v>       0.01000000 </v>
   <v>       0.01000000 </v>
   <v>       0.01000000 </v>
   <v>       0.01000000 </v>
   <v>       0.01000000 </v>
   <v>       0.01000000 </v>
   <v>       0.01000000 </v>
   <v>       0.01000000 </v>
   <v>       0.01000000 </v>
   <v>       0.01000000 </v>
   <v>       0.01000000 </v>
   <v>       0.01000000 </v>
   <v>       0.01000000 </v>
   <v>       0.01000000 </v>
   <v>       0.01000000 </v>
   <v>       0.01000000 </v>
   <v>       0.01000000 </v>
   <v>       0.01000000 </v>
   <v>       0.01000000 </v>
   <v>       0.01000000 </v>
   <v>       0.01000000 </v>
   <v>       0.01000000 </v>
   <v>       0.01000000 </v>
   <v>       0.01000000 </v>
   <v>       0.01000000 </v>
   <v>       0.01000000 </v>
   <v>       0.01000000 </v>
   <v>       0.01000000 </v>
   <v>       0.01000000 </v>
   <v>       0.01000000 </v>
   <v>       0.01000000 </v>
   <v>       0.01000000 </v>
   <v>       0.01000000 </v>
   <v>       0.01000000 </v>
   <v>       0.01000000 </v>
   <v>       0.01000000 </v>
  </varray>
 </kpoints>
 <parameters>
  <separator name="general" >
   <i type="string" name="SYSTEM">unknown system</i>
   <i type="logical" name="LCOMPAT"> F  </i>
  </separator>
  <separator name="electronic" >
   <i type="string" name="PREC">normal</i>
   <i name="ENMAX">    500.00000000</i>
   <i name="ENAUG">    385.84300000</i>
   <i name="EDIFF">      0.00000100</i>
   <i type="int" name="IALGO">    38</i>
   <i type="int" name="IWAVPR">    10</i>
   <i type="int" name="NBANDS">    88</i>
   <i name="NELECT">    144.00000000</i>
   <i type="int" name="TURBO">     0</i>
   <i type="int" name="IRESTART">     0</i>
   <i type="int" name="NREBOOT">     0</i>
   <i type="int" name="NMIN">     0</i>
   <i name="EREF">      0.00000000</i>
   <separator name="electronic smearing" >
    <i type="int" name="ISMEAR">     0</i>
    <i name="SIGMA">      0.01000000</i>
    <i name="KSPACING">      0.50000000</i>
    <i type="logical" name="KGAMMA"> T  </i>
   </separator>
   <separator name="electronic projectors" >
    <i type="logical" name="LREAL"> T  </i>
    <v name="ROPT">     -0.00050000     -0.00050000</v>
    <i type="int" name="LMAXPAW">  -100</i>
    <i type="int" name="LMAXMIX">     2</i>
    <i type="logical" name="NLSPLINE"> F  </i>
   </separator>
   <separator name="electronic startup" >
    <i type="int" name="ISTART">     0</i>
    <i type="int" name="ICHARG">    11</i>
    <i type="int" name="INIWAV">     1</i>
   </separator>
   <separator name="electronic spin" >
    <i type="int" name="ISPIN">     1</i>
    <i type="logical" name="LNONCOLLINEAR"> F  </i>
    <v name="MAGMOM">      1.00000000      1.00000000      1.00000000      1.00000000      1.00000000      1.00000000      1.00000000      1.00000000      1.00000000      1.00000000      1.00000000      1.00000000      1.00000000      1.00000000      1.00000000      1.00000000      1.00000000      1.00000000      1.00000000      1.00000000
      1.00000000      1.00000000      1.00000000      1.00000000</v>
    <i name="NUPDOWN">     -1.00000000</i>
    <i type="logical" name="LSORBIT"> F  </i>
    <v name="SAXIS">      0.00000000      0.00000000      1.00000000</v>
    <i type="logical" name="LSPIRAL"> F  </i>
    <v name="QSPIRAL">      0.00000000      0.00000000      0.00000000</v>
    <i type="logical" name="LZEROZ"> F  </i>
   </separator>
   <separator name="electronic exchange-correlation" >
    <i type="logical" name="LASPH"> T  </i>
    <i type="logical" name="LMETAGGA"> F  </i>
   </separator>
   <separator name="electronic convergence" >
    <i type="int" name="NELM">   100</i>
    <i type="int" name="NELMDL">    -5</i>
    <i type="int" name="NELMIN">     2</i>
    <i name="ENINI">    500.00000000</i>
    <separator name="electronic convergence detail" >
     <i type="logical" name="LDIAG"> T  </i>
     <i type="logical" name="LSUBROT"> F  </i>
     <i name="WEIMIN">      0.00000000</i>
     <i name="EBREAK">      0.00000000</i>
     <i name="DEPER">      0.30000000</i>
     <i type="int" name="NRMM">     4</i>
     <i name="TIME">      0.40000000</i>
    </separator>
   </separator>
   <separator name="electronic mixer" >
    <i name="AMIX">      0.40000000</i>
    <i name="BMIX">      1.00000000</i>
    <i name="AMIN">      0.10000000</i>
    <i name="AMIX_MAG">      1.60000000</i>
    <i name="BMIX_MAG">      1.00000000</i>
    <separator name="electronic mixer details" >
     <i type="int" name="IMIX">     4</i>
     <i type="logical" name="MIXFIRST"> F  </i>
     <i type="int" name="MAXMIX">   -45</i>
     <i name="WC">    100.00000000</i>
     <i type="int" name="INIMIX">     1</i>
     <i type="int" name="MIXPRE">     1</i>
     <i type="int" name="MREMOVE">     5</i>
    </separator>
   </separator>
   <separator name="electronic dipolcorrection" >
    <i type="logical" name="LDIPOL"> F  </i>
    <i type="logical" name="LMONO"> F  </i>
    <i type="int" name="IDIPOL">     0</i>
    <i name="EPSILON">      1.00000000</i>
    <v name="DIPOL">   -100.00000000   -100.00000000   -100.00000000</v>
    <i name="EFIELD">      0.00000000</i>
   </separator>
  </separator>
  <separator name="grids" >
   <i type="int" name="NGX">    50</i>
   <i type="int" name="NGY">    40</i>
   <i type="int" name="NGZ">    64</i>
   <i type="int" name="NGXF">   100</i>
   <i type="int" name="NGYF">    80</i>
   <i type="int" name="NGZF">   128</i>
   <i type="logical" name="ADDGRID"> F  </i>
  </separator>
  <separator name="ionic" >
   <i type="int" name="NSW">     0</i>
   <i type="int" name="IBRION">    -1</i>
   <i type="int" name="MDALGO">     0</i>
   <i type="int" name="ISIF">     2</i>
   <i name="PSTRESS">      0.00000000</i>
   <i name="EDIFFG">     -0.01000000</i>
   <i type="int" name="NFREE">     0</i>
   <i name="POTIM">      0.30000000</i>
   <i name="SMASS">     -3.00000000</i>
   <i name="SCALEE">      1.00000000</i>
  </separator>
  <separator name="ionic md" >
   <i name="TEBEG">      0.00010000</i>
   <i name="TEEND">      0.00010000</i>
   <i type="int" name="NBLOCK">     1</i>
   <i type="int" name="KBLOCK">     1</i>
   <i type="int" name="NPACO">   256</i>
   <i name="APACO">     16.00000000</i>
  </separator>
  <separator name="symmetry" >
   <i type="int" name="ISYM">     2</i>
   <i name="SYMPREC">      0.00001000</i>
  </separator>
  <separator name="dos" >
   <i type="int" name="LORBIT">     0</i>
   <v name="RWIGS">     -1.00000000     -1.00000000</v>
   <i type="int" name="NEDOS">   301</i>
   <i name="EMIN">     10.00000000</i>
   <i name="EMAX">    -10.00000000</i>
   <i name="EFERMI">      0.00000000</i>
  </separator>
  <separator name="writing" >
   <i type="int" name="NWRITE">     2</i>
   <i type="logical" name="LWAVE"> T  </i>
   <i type="logical" name="LDOWNSAMPLE"> F  </i>
   <i type="logical" name="LCHARG"> T  </i>
   <i type="logical" name="LPARD"> F  </i>
   <i type="logical" name="LVTOT"> F  </i>
   <i type="logical" name="LVHAR"> F  </i>
   <i type="logical" name="LELF"> F  </i>
   <i type="logical" name="LOPTICS"> F  </i>
   <v name="STM">      0.00000000      0.00000000      0.00000000      0.00000000      0.00000000      0.00000000      0.00000000</v>
  </separator>
  <separator name="performance" >
   <i type="int" name="NPAR">     8</i>
   <i type="int" name="NSIM">     4</i>
   <i type="int" name="NBLK">    -1</i>
   <i type="logical" name="LPLANE"> T  </i>
   <i type="logical" name="LSCALAPACK"> T  </i>
   <i type="logical" name="LSCAAWARE"> F  </i>
   <i type="logical" name="LSCALU"> F  </i>
   <i type="logical" name="LASYNC"> F  </i>
   <i type="logical" name="LORBITALREAL"> F  </i>
  </separator>
  <separator name="miscellaneous" >
   <i type="int" name="IDIOT">     3</i>
   <i type="int" name="ISPECIAL">     0</i>
   <i type="logical" name="LMUSIC"> F  </i>
   <v name="POMASS">    137.32700000     72.61000000</v>
   <v name="DARWINR">      0.00000000      0.00000000</v>
   <v name="DARWINV">      1.00000000      1.00000000</v>
   <i type="logical" name="LCORR"> T  </i>
  </separator>
  <i type="logical" name="GGA_COMPAT"> T  </i>
  <i type="logical" name="LBERRY"> F  </i>
  <i type="int" name="ICORELEVEL">     0</i>
  <i type="logical" name="LDAU"> F  </i>
  <i type="int" name="I_CONSTRAINED_M">     0</i>
  <separator name="electronic exchange-correlation" >
   <i type="string" name="GGA">MK</i>
   <i type="int" name="VOSKOWN">     0</i>
   <i type="logical" name="LHFCALC"> F  </i>
   <i type="string" name="PRECFOCK"></i>
   <i type="logical" name="LSYMGRAD"> F  </i>
   <i type="logical" name="LHFONE"> F  </i>
   <i type="logical" name="LRHFCALC"> F  </i>
   <i type="logical" name="LTHOMAS"> F  </i>
   <i type="logical" name="LMODELHF"> F  </i>
   <i name="ENCUT4O">     -1.00000000</i>
   <i type="int" name="EXXOEP">     0</i>
   <i type="int" name="FOURORBIT">     0</i>
   <i name="AEXX">      0.00000000</i>
   <i name="HFALPHA">      0.00000000</i>
   <i name="MCALPHA">      0.00000000</i>
   <i name="ALDAX">      1.00000000</i>
   <i name="AGGAX">      1.00000000</i>
   <i name="ALDAC">      1.00000000</i>
   <i name="AGGAC">      0.00000000</i>
   <i type="int" name="NKREDX">     1</i>
   <i type="int" name="NKREDY">     1</i>
   <i type="int" name="NKREDZ">     1</i>
   <i type="logical" name="SHIFTRED"> F  </i>
   <i type="logical" name="ODDONLY"> F  </i>
   <i type="logical" name="EVENONLY"> F  </i>
   <i type="int" name="LMAXFOCK">     0</i>
   <i type="int" name="NMAXFOCKAE">     0</i>
   <i type="logical" name="LFOCKAEDFT"> F  </i>
   <i name="HFSCREEN">      0.00000000</i>
   <i name="HFSCREENC">      0.00000000</i>
   <i type="int" name="NBANDSGWLOW">     0</i>
  </separator>
  <separator name="vdW DFT" >
   <i type="logical" name="LUSE_VDW"> T  </i>
   <i name="Zab_VDW">     -1.88670000</i>
   <i name="PARAM1">      0.12340000</i>
   <i name="PARAM2">      0.71135700</i>
   <i name="PARAM3">      0.00000000</i>
  </separator>
  <separator name="model GW" >
   <i type="int" name="MODEL_GW">     0</i>
   <i name="MODEL_EPS0">     18.05968715</i>
   <i name="MODEL_ALPHA">      1.00000000</i>
  </separator>
  <separator name="linear response parameters" >
   <i type="logical" name="LEPSILON"> F  </i>
   <i type="logical" name="LRPA"> F  </i>
   <i type="logical" name="LNABLA"> F  </i>
   <i type="logical" name="LVEL"> F  </i>
   <i type="int" name="KINTER">     0</i>
   <i name="CSHIFT">      0.10000000</i>
   <i name="OMEGAMAX">     -1.00000000</i>
   <i name="DEG_THRESHOLD">      0.00200000</i>
   <i name="RTIME">     -0.10000000</i>
   <i name="WPLASMAI">      0.00000000</i>
   <v name="DFIELD">      0.00000000      0.00000000      0.00000000</v>
   <v name="WPLASMA">      0.00000000      0.00000000      0.00000000      0.00000000      0.00000000      0.00000000      0.00000000      0.00000000      0.00000000</v>
  </separator>
  <separator name="orbital magnetization" >
   <i type="logical" name="NUCIND"> F  </i>
   <v name="MAGPOS">      0.00000000      0.00000000      0.00000000</v>
   <i type="logical" name="LNICSALL"> T  </i>
   <i type="logical" name="ORBITALMAG"> F  </i>
   <i type="logical" name="LMAGBLOCH"> F  </i>
   <i type="logical" name="LCHIMAG"> F  </i>
   <i type="logical" name="LGAUGE"> T  </i>
   <i type="int" name="MAGATOM">     0</i>
   <v name="MAGDIPOL">      0.00000000      0.00000000      0.00000000</v>
   <v name="AVECCONST">      0.00000000      0.00000000      0.00000000</v>
  </separator>
  <separator name="response functions" >
   <i type="logical" name="LADDER"> F  </i>
   <i type="logical" name="LRPAFORCE"> F  </i>
   <i type="logical" name="LFXC"> F  </i>
   <i type="logical" name="LHARTREE"> T  </i>
   <i type="int" name="IBSE">     0</i>
   <v type="int" name="KPOINT">    -1     0     0     0</v>
   <i type="logical" name="LTCTE"> F  </i>
   <i type="logical" name="LTETE"> F  </i>
   <i type="logical" name="LTRIPLET"> F  </i>
   <i type="logical" name="LFXCEPS"> F  </i>
   <i type="logical" name="LFXHEG"> F  </i>
   <i type="int" name="NATURALO">     2</i>
   <i type="logical" name="L2ORDER"> F  </i>
   <i type="logical" name="LMP2LT"> F  </i>
   <i type="logical" name="LUSEW"> F  </i>
   <i name="ENCUTGW">     -2.00000000</i>
   <i name="ENCUTGWSOFT">     -2.00000000</i>
   <i name="ENCUTLF">     -1.00000000</i>
   <i type="int" name="LMAXMP2">    -1</i>
   <i name="SCISSOR">      0.00000000</i>
   <i type="int" name="NOMEGA">     0</i>
   <i type="int" name="NOMEGAR">     0</i>
   <i type="int" name="NBANDSGW">    -1</i>
   <i type="int" name="NBANDSO">    -1</i>
   <i type="int" name="NBANDSV">    -1</i>
   <i type="int" name="NELM">   100</i>
   <i type="int" name="NELMHF">     1</i>
   <i type="int" name="DIM">     3</i>
   <i type="int" name="ANTIRES">     0</i>
   <i name="OMEGAMAX">    -30.00000000</i>
   <i name="OMEGAMIN">    -30.00000000</i>
   <i name="OMEGATL">   -200.00000000</i>
   <i type="int" name="OMEGAGRID">   140</i>
   <i name="CSHIFT">     -0.10000000</i>
   <i type="logical" name="SELFENERGY"> F  </i>
   <i type="logical" name="LSPECTRAL"> F  </i>
   <i type="logical" name="LSPECTRALGW"> F  </i>
   <i type="logical" name="LSINGLES"> F  </i>
   <i type="logical" name="LFERMIGW"> F  </i>
   <i type="logical" name="ODDONLYGW"> F  </i>
   <i type="logical" name="EVENONLYGW"> F  </i>
   <i type="int" name="NKREDLFX">     1</i>
   <i type="int" name="NKREDLFY">     1</i>
   <i type="int" name="NKREDLFZ">     1</i>
   <i type="int" name="MAXMEM">  2800</i>
   <i type="int" name="TELESCOPE">     0</i>
   <i type="int" name="TAUPAR">     1</i>
   <i type="int" name="OMEGAPAR">    -1</i>
   <i name="LAMBDA">      1.00000000</i>
  </separator>
  <separator name="External order field" >
   <i name="OFIELD_KAPPA">      0.00000000</i>
   <v name="OFIELD_K">      0.00000000      0.00000000      0.00000000</v>
   <i name="OFIELD_Q6_NEAR">      0.00000000</i>
   <i name="OFIELD_Q6_FAR">      0.00000000</i>
   <i name="OFIELD_A">      0.00000000</i>
  </separator>
 </parameters>
 <atominfo>
  <atoms>      24 </atoms>
  <types>       2 </types>
  <array name="atoms" >
   <dimension dim="1">ion</dimension>
   <field type="string">element</field>
   <field type="int">atomtype</field>
   <set>
    <rc><c>Ba</c><c>   1</c></rc>
    <rc><c>Ba</c><c>   1</c></rc>
    <rc><c>Ba</c><c>   1</c></rc>
    <rc><c>Ba</c><c>   1</c></rc>
    <rc><c>Ba</c><c>   1</c></rc>
    <rc><c>Ba</c><c>   1</c></rc>
    <rc><c>Ba</c><c>   1</c></rc>
    <rc><c>Ba</c><c>   1</c></rc>
    <rc><c>Ge</c><c>   2</c></rc>
    <rc><c>Ge</c><c>   2</c></rc>
    <rc><c>Ge</c><c>   2</c></rc>
    <rc><c>Ge</c><c>   2</c></rc>
    <rc><c>Ge</c><c>   2</c></rc>
    <rc><c>Ge</c><c>   2</c></rc>
    <rc><c>Ge</c><c>   2</c></rc>
    <rc><c>Ge</c><c>   2</c></rc>
    <rc><c>Ge</c><c>   2</c></rc>
    <rc><c>Ge</c><c>   2</c></rc>
    <rc><c>Ge</c><c>   2</c></rc>
    <rc><c>Ge</c><c>   2</c></rc>
    <rc><c>Ge</c><c>   2</c></rc>
    <rc><c>Ge</c><c>   2</c></rc>
    <rc><c>Ge</c><c>   2</c></rc>
    <rc><c>Ge</c><c>   2</c></rc>
   </set>
  </array>
  <array name="atomtypes" >
   <dimension dim="1">type</dimension>
   <field type="int">atomspertype</field>
   <field type="string">element</field>
   <field>mass</field>
   <field>valence</field>
   <field type="string">pseudopotential</field>
   <set>
    <rc><c>   8</c><c>Ba</c><c>    137.32700000</c><c>     10.00000000</c><c> PAW_PBE Ba_sv 06Sep2000                </c></rc>
    <rc><c>  16</c><c>Ge</c><c>     72.61000000</c><c>      4.00000000</c><c> PAW_PBE Ge 05Jan2001                   </c></rc>
   </set>
  </array>
 </atominfo>
 <structure name="initialpos" >
  <crystal>
   <varray name="basis" >
    <v>       9.09164702       0.00000000       0.00000000 </v>
    <v>       0.00000000       6.83207265       0.00000000 </v>
    <v>       0.00000000       0.00000000      11.62987835 </v>
   </varray>
   <i name="volume">    722.38748611 </i>
   <varray name="rec_basis" >
    <v>       0.10999107       0.00000000       0.00000000 </v>
    <v>       0.00000000       0.14636847       0.00000000 </v>
    <v>       0.00000000       0.00000000       0.08598542 </v>
   </varray>
  </crystal>
  <varray name="positions" >
   <v>       0.01576865       0.25000000       0.69041695 </v>
   <v>       0.98423135       0.75000002       0.30958305 </v>
   <v>       0.48423135       0.75000002       0.19041689 </v>
   <v>       0.51576865       0.25000000       0.80958309 </v>
   <v>       0.15753874       0.75000002       0.90690976 </v>
   <v>       0.84246126       0.25000000       0.09309022 </v>
   <v>       0.34246126       0.25000000       0.40690984 </v>
   <v>       0.65753874       0.75000002       0.59309020 </v>
   <v>       0.19042122       0.06020911       0.15018041 </v>
   <v>       0.80957878       0.93979088       0.84981957 </v>
   <v>       0.30957878       0.93979088       0.65018043 </v>
   <v>       0.69042122       0.06020911       0.34981957 </v>
   <v>       0.80957878       0.56020912       0.84981957 </v>
   <v>       0.19042122       0.43979088       0.15018041 </v>
   <v>       0.69042122       0.43979088       0.34981957 </v>
   <v>       0.30957878       0.56020912       0.65018043 </v>
   <v>       0.07195076       0.75000002       0.59418046 </v>
   <v>       0.92804922       0.25000000       0.40581954 </v>
   <v>       0.42804925       0.25000000       0.09418040 </v>
   <v>       0.57195078       0.75000002       0.90581958 </v>
   <v>       0.19314538       0.25000000       0.95737625 </v>
   <v>       0.80685461       0.75000002       0.04262376 </v>
   <v>       0.30685461       0.75000002       0.45737617 </v>
   <v>       0.69314539       0.25000000       0.54262375 </v>
  </varray>
 </structure>
 <calculation>
  <scstep>
   <time name="dav">    7.17    7.24</time>
   <time name="total">    8.90    9.17</time>
   <energy>
    <i name="alphaZ">    571.07019491 </i>
    <i name="ewald">  -6386.71181553 </i>
    <i name="hartreedc">   -897.53602002 </i>
    <i name="XCdc">     79.25041338 </i>
    <i name="pawpsdc">   4075.70054314 </i>
    <i name="pawaedc">  -3834.95575064 </i>
    <i name="eentropy">     -0.00045187 </i>
    <i name="bandstr">     28.73855774 </i>
    <i name="atom">   7306.44410201 </i>
    <i name="e_fr_energy">    941.99977311 </i>
    <i name="e_wo_entrp">    942.00022499 </i>
    <i name="e_0_energy">    941.99999905 </i>
   </energy>
  </scstep>
  <scstep>
   <time name="dav">    8.73    8.77</time>
   <time name="total">    8.73    8.77</time>
   <energy>
    <i name="e_fr_energy">      6.84753734 </i>
    <i name="e_wo_entrp">      6.84789121 </i>
    <i name="e_0_energy">      6.84771427 </i>
   </energy>
  </scstep>
  <scstep>
   <time name="dav">    8.44    8.46</time>
   <time name="total">    8.44    8.47</time>
   <energy>
    <i name="e_fr_energy">    -83.53363081 </i>
    <i name="e_wo_entrp">    -83.53363081 </i>
    <i name="e_0_energy">    -83.53363081 </i>
   </energy>
  </scstep>
  <scstep>
   <time name="dav">    9.24    9.27</time>
   <time name="total">    9.24    9.27</time>
   <energy>
    <i name="e_fr_energy">    -86.49783607 </i>
    <i name="e_wo_entrp">    -86.49783607 </i>
    <i name="e_0_energy">    -86.49783607 </i>
   </energy>
  </scstep>
  <scstep>
   <time name="dav">    8.60    8.63</time>
   <time name="total">    8.60    8.63</time>
   <energy>
    <i name="e_fr_energy">    -86.59732030 </i>
    <i name="e_wo_entrp">    -86.59732030 </i>
    <i name="e_0_energy">    -86.59732030 </i>
   </energy>
  </scstep>
  <scstep>
   <time name="dav">    9.51    9.53</time>
   <time name="total">    9.51    9.54</time>
   <energy>
    <i name="e_fr_energy">    -86.59900408 </i>
    <i name="e_wo_entrp">    -86.59900408 </i>
    <i name="e_0_energy">    -86.59900408 </i>
   </energy>
  </scstep>
  <scstep>
   <time name="dav">    8.78    8.81</time>
   <time name="total">    8.78    8.81</time>
   <energy>
    <i name="e_fr_energy">    -86.59905596 </i>
    <i name="e_wo_entrp">    -86.59905596 </i>
    <i name="e_0_energy">    -86.59905596 </i>
   </energy>
  </scstep>
  <scstep>
   <time name="dav">    7.55    7.57</time>
   <time name="total">    7.55    7.57</time>
   <energy>
    <i name="alphaZ">    571.07019491 </i>
    <i name="ewald">  -6386.71181553 </i>
    <i name="hartreedc">   -897.53602002 </i>
    <i name="XCdc">     79.25041338 </i>
    <i name="pawpsdc">   4075.70054314 </i>
    <i name="pawaedc">  -3834.95575064 </i>
    <i name="eentropy">     -0.00000000 </i>
    <i name="bandstr">   -999.86072408 </i>
    <i name="atom">   7306.44410201 </i>
    <i name="e_fr_energy">    -86.59905683 </i>
    <i name="e_wo_entrp">    -86.59905683 </i>
    <i name="e_0_energy">    -86.59905683 </i>
   </energy>
  </scstep>
  <structure>
   <crystal>
    <varray name="basis" >
     <v>       9.09164702       0.00000000       0.00000000 </v>
     <v>       0.00000000       6.83207265       0.00000000 </v>
     <v>       0.00000000       0.00000000      11.62987835 </v>
    </varray>
    <i name="volume">    722.38748611 </i>
    <varray name="rec_basis" >
     <v>       0.10999107       0.00000000       0.00000000 </v>
     <v>       0.00000000       0.14636847       0.00000000 </v>
     <v>       0.00000000       0.00000000       0.08598542 </v>
    </varray>
   </crystal>
   <varray name="positions" >
    <v>       0.01576865       0.25000000       0.69041695 </v>
    <v>       0.98423135       0.75000002       0.30958305 </v>
    <v>       0.48423135       0.75000002       0.19041689 </v>
    <v>       0.51576865       0.25000000       0.80958309 </v>
    <v>       0.15753874       0.75000002       0.90690976 </v>
    <v>       0.84246126       0.25000000       0.09309022 </v>
    <v>       0.34246126       0.25000000       0.40690984 </v>
    <v>       0.65753874       0.75000002       0.59309020 </v>
    <v>       0.19042122       0.06020911       0.15018041 </v>
    <v>       0.80957878       0.93979088       0.84981957 </v>
    <v>       0.30957878       0.93979088       0.65018043 </v>
    <v>       0.69042122       0.06020911       0.34981957 </v>
    <v>       0.80957878       0.56020912       0.84981957 </v>
    <v>       0.19042122       0.43979088       0.15018041 </v>
    <v>       0.69042122       0.43979088       0.34981957 </v>
    <v>       0.30957878       0.56020912       0.65018043 </v>
    <v>       0.07195076       0.75000002       0.59418046 </v>
    <v>       0.92804922       0.25000000       0.40581954 </v>
    <v>       0.42804925       0.25000000       0.09418040 </v>
    <v>       0.57195078       0.75000002       0.90581958 </v>
    <v>       0.19314538       0.25000000       0.95737625 </v>
    <v>       0.80685461       0.75000002       0.04262376 </v>
    <v>       0.30685461       0.75000002       0.45737617 </v>
    <v>       0.69314539       0.25000000       0.54262375 </v>
   </varray>
  </structure>
  <varray name="forces" >
   <v>      -0.04201722      -0.00000000       0.04848923 </v>
   <v>       0.04201722      -0.00000000      -0.04848923 </v>
   <v>       0.04201722      -0.00000000       0.04848923 </v>
   <v>      -0.04201722       0.00000000      -0.04848923 </v>
   <v>       0.09597421       0.00000000      -0.06099446 </v>
   <v>      -0.09597421       0.00000000       0.06099446 </v>
   <v>      -0.09597421       0.00000000      -0.06099446 </v>
   <v>       0.09597421      -0.00000000       0.06099446 </v>
   <v>      -0.08340586       0.02401534      -0.07882463 </v>
   <v>       0.08340586      -0.02401534       0.07882463 </v>
   <v>       0.08340586      -0.02401534      -0.07882463 </v>
   <v>      -0.08340586       0.02401534       0.07882463 </v>
   <v>       0.08340586       0.02401534       0.07882463 </v>
   <v>      -0.08340586      -0.02401534      -0.07882463 </v>
   <v>      -0.08340586      -0.02401534       0.07882463 </v>
   <v>       0.08340586       0.02401534      -0.07882463 </v>
   <v>      -0.08087332      -0.00000000      -0.05145544 </v>
   <v>       0.08087332       0.00000000       0.05145544 </v>
   <v>       0.08087332       0.00000000      -0.05145544 </v>
   <v>      -0.08087332       0.00000000       0.05145544 </v>
   <v>       0.03409133       0.00000000       0.12374331 </v>
   <v>      -0.03409133      -0.00000000      -0.12374331 </v>
   <v>      -0.03409133      -0.00000000       0.12374331 </v>
   <v>       0.03409133      -0.00000000      -0.12374331 </v>
  </varray>
  <varray name="stress" >
   <v>     -20.84039713       0.00000000       0.00000000 </v>
   <v>      -0.00000000      -1.15816676       0.00000000 </v>
   <v>       0.00000000       0.00000000       5.83172891 </v>
  </varray>
  <energy>
   <i name="e_fr_energy">    -86.59905683 </i>
   <i name="e_wo_entrp">    -86.59905683 </i>
   <i name="e_0_energy">     -0.00000000 </i>
  </energy>
  <time name="totalsc">   89.34   92.38</time>
  <eigenvalues>
   <array>
    <dimension dim="1">band</dimension>
    <dimension dim="2">kpoint</dimension>
    <dimension dim="3">spin</dimension>
    <field>eigene</field>
    <field>occ</field>
    <set>
     <set comment="spin 1">
      <set comment="kpoint 1">
       <r>  -25.0371    1.0000 </r>
       <r>  -25.0282    1.0000 </r>
       <r>  -25.0259    1.0000 </r>
       <r>  -25.0257    1.0000 </r>
       <r>  -25.0015    1.0000 </r>
       <r>  -24.9961    1.0000 </r>
       <r>  -24.9957    1.0000 </r>
       <r>  -24.9929    1.0000 </r>
       <r>  -10.6261    1.0000 </r>
       <r>  -10.6133    1.0000 </r>
       <r>  -10.5432    1.0000 </r>
       <r>  -10.5306    1.0000 </r>
       <r>  -10.5015    1.0000 </r>
       <r>  -10.4629    1.0000 </r>
       <r>  -10.4511    1.0000 </r>
       <r>  -10.4337    1.0000 </r>
       <r>  -10.4201    1.0000 </r>
       <r>  -10.4196    1.0000 </r>
       <r>  -10.3889    1.0000 </r>
       <r>  -10.3847    1.0000 </r>
       <r>  -10.3767    1.0000 </r>
       <r>  -10.3195    1.0000 </r>
       <r>  -10.3057    1.0000 </r>
       <r>  -10.3000    1.0000 </r>
       <r>  -10.2934    1.0000 </r>
       <r>  -10.2828    1.0000 </r>
       <r>  -10.2737    1.0000 </r>
       <r>  -10.2675    1.0000 </r>
       <r>  -10.2637    1.0000 </r>
       <r>  -10.2463    1.0000 </r>
       <r>  -10.2461    1.0000 </r>
       <r>  -10.2380    1.0000 </r>
       <r>   -8.2762    1.0000 </r>
       <r>   -7.9699    1.0000 </r>
       <r>   -7.9009    1.0000 </r>
       <r>   -7.8856    1.0000 </r>
       <r>   -4.3420    1.0000 </r>
       <r>   -4.3076    1.0000 </r>
       <r>   -4.0432    1.0000 </r>
       <r>   -4.0362    1.0000 </r>
       <r>   -3.9685    1.0000 </r>
       <r>   -3.9671    1.0000 </r>
       <r>   -3.8897    1.0000 </r>
       <r>   -3.8707    1.0000 </r>
       <r>   -3.8371    1.0000 </r>
       <r>   -3.7457    1.0000 </r>
       <r>   -3.7206    1.0000 </r>
       <r>   -3.6078    1.0000 </r>
       <r>   -0.7273    1.0000 </r>
       <r>    0.1014    1.0000 </r>
       <r>    0.2656    1.0000 </r>
       <r>    0.3827    1.0000 </r>
       <r>    0.4853    1.0000 </r>
       <r>    0.5690    1.0000 </r>
       <r>    0.8710    1.0000 </r>
       <r>    0.8728    1.0000 </r>
       <r>    0.9907    1.0000 </r>
       <r>    1.0176    1.0000 </r>
       <r>    1.0603    1.0000 </r>
       <r>    1.0939    1.0000 </r>
       <r>    1.2783    1.0000 </r>
       <r>    1.2967    1.0000 </r>
       <r>    1.3589    1.0000 </r>
       <r>    1.3892    1.0000 </r>
       <r>    1.6077    1.0000 </r>
       <r>    1.6104    1.0000 </r>
       <r>    1.7358    1.0000 </r>
       <r>    1.7983    1.0000 </r>
       <r>    2.0546    1.0000 </r>
       <r>    2.2809    1.0000 </r>
       <r>    2.3460    1.0000 </r>
       <r>    2.4272    1.0000 </r>
       <r>    3.4654    0.0000 </r>
       <r>    3.6005    0.0000 </r>
       <r>    3.9134    0.0000 </r>
       <r>    3.9631    0.0000 </r>
       <r>    4.0027    0.0000 </r>
       <r>    4.4099    0.0000 </r>
       <r>    4.4629    0.0000 </r>
       <r>    4.6233    0.0000 </r>
       <r>    4.7014    0.0000 </r>
       <r>    4.9285    0.0000 </r>
       <r>    5.0611    0.0000 </r>
       <r>    5.0706    0.0000 </r>
       <r>    5.0999    0.0000 </r>
       <r>    5.2341    0.0000 </r>
       <r>    5.5519    0.0000 </r>
       <r>    5.6799    0.0000 </r>
      </set>
      <set comment="kpoint 2">
       <r>  -25.0370    1.0000 </r>
       <r>  -25.0282    1.0000 </r>
       <r>  -25.0259    1.0000 </r>
       <r>  -25.0257    1.0000 </r>
       <r>  -25.0016    1.0000 </r>
       <r>  -24.9961    1.0000 </r>
       <r>  -24.9958    1.0000 </r>
       <r>  -24.9929    1.0000 </r>
       <r>  -10.6257    1.0000 </r>
       <r>  -10.6133    1.0000 </r>
       <r>  -10.5474    1.0000 </r>
       <r>  -10.5262    1.0000 </r>
       <r>  -10.5015    1.0000 </r>
       <r>  -10.4647    1.0000 </r>
       <r>  -10.4521    1.0000 </r>
       <r>  -10.4370    1.0000 </r>
       <r>  -10.4207    1.0000 </r>
       <r>  -10.4184    1.0000 </r>
       <r>  -10.3860    1.0000 </r>
       <r>  -10.3835    1.0000 </r>
       <r>  -10.3771    1.0000 </r>
       <r>  -10.3199    1.0000 </r>
       <r>  -10.3050    1.0000 </r>
       <r>  -10.2999    1.0000 </r>
       <r>  -10.2936    1.0000 </r>
       <r>  -10.2830    1.0000 </r>
       <r>  -10.2738    1.0000 </r>
       <r>  -10.2674    1.0000 </r>
       <r>  -10.2632    1.0000 </r>
       <r>  -10.2467    1.0000 </r>
       <r>  -10.2465    1.0000 </r>
       <r>  -10.2376    1.0000 </r>
       <r>   -8.2745    1.0000 </r>
       <r>   -7.9695    1.0000 </r>
       <r>   -7.9009    1.0000 </r>
       <r>   -7.8857    1.0000 </r>
       <r>   -4.3407    1.0000 </r>
       <r>   -4.3063    1.0000 </r>
       <r>   -4.0422    1.0000 </r>
       <r>   -4.0358    1.0000 </r>
       <r>   -3.9695    1.0000 </r>
       <r>   -3.9679    1.0000 </r>
       <r>   -3.8864    1.0000 </r>
       <r>   -3.8703    1.0000 </r>
       <r>   -3.8408    1.0000 </r>
       <r>   -3.7494    1.0000 </r>
       <r>   -3.7203    1.0000 </r>
       <r>   -3.6070    1.0000 </r>
       <r>   -0.7210    1.0000 </r>
       <r>    0.1041    1.0000 </r>
       <r>    0.2678    1.0000 </r>
       <r>    0.3833    1.0000 </r>
       <r>    0.4866    1.0000 </r>
       <r>    0.5676    1.0000 </r>
       <r>    0.8073    1.0000 </r>
       <r>    0.9346    1.0000 </r>
       <r>    0.9936    1.0000 </r>
       <r>    1.0178    1.0000 </r>
       <r>    1.0581    1.0000 </r>
       <r>    1.0951    1.0000 </r>
       <r>    1.2790    1.0000 </r>
       <r>    1.2942    1.0000 </r>
       <r>    1.3602    1.0000 </r>
       <r>    1.3920    1.0000 </r>
       <r>    1.6031    1.0000 </r>
       <r>    1.6126    1.0000 </r>
       <r>    1.7241    1.0000 </r>
       <r>    1.7968    1.0000 </r>
       <r>    2.0594    1.0000 </r>
       <r>    2.2461    1.0000 </r>
       <r>    2.3787    1.0000 </r>
       <r>    2.4297    1.0000 </r>
       <r>    3.4580    0.0000 </r>
       <r>    3.5957    0.0000 </r>
       <r>    3.9152    0.0000 </r>
       <r>    3.9698    0.0000 </r>
       <r>    4.0103    0.0000 </r>
       <r>    4.4204    0.0000 </r>
       <r>    4.4631    0.0000 </r>
       <r>    4.5767    0.0000 </r>
       <r>    4.7512    0.0000 </r>
       <r>    4.9253    0.0000 </r>
       <r>    5.0220    0.0000 </r>
       <r>    5.0619    0.0000 </r>
       <r>    5.0985    0.0000 </r>
       <r>    5.2603    0.0000 </r>
       <r>    5.4922    0.0000 </r>
       <r>    5.6882    0.0000 </r>
      </set>
      <set comment="kpoint 3">
       <r>  -25.0369    1.0000 </r>
       <r>  -25.0282    1.0000 </r>
       <r>  -25.0259    1.0000 </r>
       <r>  -25.0256    1.0000 </r>
       <r>  -25.0016    1.0000 </r>
       <r>  -24.9961    1.0000 </r>
       <r>  -24.9958    1.0000 </r>
       <r>  -24.9930    1.0000 </r>
       <r>  -10.6248    1.0000 </r>
       <r>  -10.6134    1.0000 </r>
       <r>  -10.5547    1.0000 </r>
       <r>  -10.5183    1.0000 </r>
       <r>  -10.5016    1.0000 </r>
       <r>  -10.4695    1.0000 </r>
       <r>  -10.4549    1.0000 </r>
       <r>  -10.4451    1.0000 </r>
       <r>  -10.4224    1.0000 </r>
       <r>  -10.4153    1.0000 </r>
       <r>  -10.3802    1.0000 </r>
       <r>  -10.3792    1.0000 </r>
       <r>  -10.3782    1.0000 </r>
       <r>  -10.3209    1.0000 </r>
       <r>  -10.3033    1.0000 </r>
       <r>  -10.2996    1.0000 </r>
       <r>  -10.2945    1.0000 </r>
       <r>  -10.2838    1.0000 </r>
       <r>  -10.2741    1.0000 </r>
       <r>  -10.2670    1.0000 </r>
       <r>  -10.2617    1.0000 </r>
       <r>  -10.2485    1.0000 </r>
       <r>  -10.2471    1.0000 </r>
       <r>  -10.2365    1.0000 </r>
       <r>   -8.2692    1.0000 </r>
       <r>   -7.9681    1.0000 </r>
       <r>   -7.9009    1.0000 </r>
       <r>   -7.8859    1.0000 </r>
       <r>   -4.3366    1.0000 </r>
       <r>   -4.3024    1.0000 </r>
       <r>   -4.0393    1.0000 </r>
       <r>   -4.0345    1.0000 </r>
       <r>   -3.9756    1.0000 </r>
       <r>   -3.9662    1.0000 </r>
       <r>   -3.8776    1.0000 </r>
       <r>   -3.8688    1.0000 </r>
       <r>   -3.8517    1.0000 </r>
       <r>   -3.7602    1.0000 </r>
       <r>   -3.7193    1.0000 </r>
       <r>   -3.6051    1.0000 </r>
       <r>   -0.7020    1.0000 </r>
       <r>    0.1121    1.0000 </r>
       <r>    0.2743    1.0000 </r>
       <r>    0.3851    1.0000 </r>
       <r>    0.4907    1.0000 </r>
       <r>    0.5638    1.0000 </r>
       <r>    0.7426    1.0000 </r>
       <r>    0.9931    1.0000 </r>
       <r>    1.0019    1.0000 </r>
       <r>    1.0184    1.0000 </r>
       <r>    1.0524    1.0000 </r>
       <r>    1.0987    1.0000 </r>
       <r>    1.2814    1.0000 </r>
       <r>    1.2869    1.0000 </r>
       <r>    1.3640    1.0000 </r>
       <r>    1.4006    1.0000 </r>
       <r>    1.5900    1.0000 </r>
       <r>    1.6189    1.0000 </r>
       <r>    1.6938    1.0000 </r>
       <r>    1.7890    1.0000 </r>
       <r>    2.0730    1.0000 </r>
       <r>    2.1897    1.0000 </r>
       <r>    2.4290    1.0000 </r>
       <r>    2.4366    1.0000 </r>
       <r>    3.4376    0.0000 </r>
       <r>    3.5825    0.0000 </r>
       <r>    3.9209    0.0000 </r>
       <r>    3.9879    0.0000 </r>
       <r>    4.0323    0.0000 </r>
       <r>    4.4505    0.0000 </r>
       <r>    4.4634    0.0000 </r>
       <r>    4.5110    0.0000 </r>
       <r>    4.8264    0.0000 </r>
       <r>    4.9157    0.0000 </r>
       <r>    4.9345    0.0000 </r>
       <r>    5.0373    0.0000 </r>
       <r>    5.0947    0.0000 </r>
       <r>    5.3028    0.0000 </r>
       <r>    5.4153    0.0000 </r>
       <r>    5.6670    0.0000 </r>
      </set>
      <set comment="kpoint 4">
       <r>  -25.0367    1.0000 </r>
       <r>  -25.0281    1.0000 </r>
       <r>  -25.0259    1.0000 </r>
       <r>  -25.0256    1.0000 </r>
       <r>  -25.0017    1.0000 </r>
       <r>  -24.9961    1.0000 </r>
       <r>  -24.9960    1.0000 </r>
       <r>  -24.9930    1.0000 </r>
       <r>  -10.6232    1.0000 </r>
       <r>  -10.6135    1.0000 </r>
       <r>  -10.5621    1.0000 </r>
       <r>  -10.5099    1.0000 </r>
       <r>  -10.5016    1.0000 </r>
       <r>  -10.4761    1.0000 </r>
       <r>  -10.4590    1.0000 </r>
       <r>  -10.4555    1.0000 </r>
       <r>  -10.4252    1.0000 </r>
       <r>  -10.4116    1.0000 </r>
       <r>  -10.3800    1.0000 </r>
       <r>  -10.3752    1.0000 </r>
       <r>  -10.3709    1.0000 </r>
       <r>  -10.3222    1.0000 </r>
       <r>  -10.3008    1.0000 </r>
       <r>  -10.2988    1.0000 </r>
       <r>  -10.2957    1.0000 </r>
       <r>  -10.2853    1.0000 </r>
       <r>  -10.2745    1.0000 </r>
       <r>  -10.2664    1.0000 </r>
       <r>  -10.2594    1.0000 </r>
       <r>  -10.2511    1.0000 </r>
       <r>  -10.2479    1.0000 </r>
       <r>  -10.2350    1.0000 </r>
       <r>   -8.2606    1.0000 </r>
       <r>   -7.9659    1.0000 </r>
       <r>   -7.9009    1.0000 </r>
       <r>   -7.8862    1.0000 </r>
       <r>   -4.3301    1.0000 </r>
       <r>   -4.2959    1.0000 </r>
       <r>   -4.0346    1.0000 </r>
       <r>   -4.0323    1.0000 </r>
       <r>   -3.9834    1.0000 </r>
       <r>   -3.9634    1.0000 </r>
       <r>   -3.8692    1.0000 </r>
       <r>   -3.8666    1.0000 </r>
       <r>   -3.8654    1.0000 </r>
       <r>   -3.7768    1.0000 </r>
       <r>   -3.7180    1.0000 </r>
       <r>   -3.6029    1.0000 </r>
       <r>   -0.6712    1.0000 </r>
       <r>    0.1247    1.0000 </r>
       <r>    0.2849    1.0000 </r>
       <r>    0.3874    1.0000 </r>
       <r>    0.4979    1.0000 </r>
       <r>    0.5578    1.0000 </r>
       <r>    0.6800    1.0000 </r>
       <r>    1.0150    1.0000 </r>
       <r>    1.0190    1.0000 </r>
       <r>    1.0313    1.0000 </r>
       <r>    1.0582    1.0000 </r>
       <r>    1.1048    1.0000 </r>
       <r>    1.2748    1.0000 </r>
       <r>    1.2856    1.0000 </r>
       <r>    1.3697    1.0000 </r>
       <r>    1.4149    1.0000 </r>
       <r>    1.5705    1.0000 </r>
       <r>    1.6288    1.0000 </r>
       <r>    1.6508    1.0000 </r>
       <r>    1.7731    1.0000 </r>
       <r>    2.0924    1.0000 </r>
       <r>    2.1296    1.0000 </r>
       <r>    2.4462    1.0000 </r>
       <r>    2.4792    1.0000 </r>
       <r>    3.4087    0.0000 </r>
       <r>    3.5639    0.0000 </r>
       <r>    3.9306    0.0000 </r>
       <r>    4.0126    0.0000 </r>
       <r>    4.0665    0.0000 </r>
       <r>    4.4522    0.0000 </r>
       <r>    4.4621    0.0000 </r>
       <r>    4.4958    0.0000 </r>
       <r>    4.8236    0.0000 </r>
       <r>    4.9002    0.0000 </r>
       <r>    4.9007    0.0000 </r>
       <r>    5.0007    0.0000 </r>
       <r>    5.0887    0.0000 </r>
       <r>    5.3048    0.0000 </r>
       <r>    5.3743    0.0000 </r>
       <r>    5.6411    0.0000 </r>
      </set>
      <set comment="kpoint 5">
       <r>  -25.0365    1.0000 </r>
       <r>  -25.0280    1.0000 </r>
       <r>  -25.0259    1.0000 </r>
       <r>  -25.0255    1.0000 </r>
       <r>  -25.0019    1.0000 </r>
       <r>  -24.9962    1.0000 </r>
       <r>  -24.9961    1.0000 </r>
       <r>  -24.9931    1.0000 </r>
       <r>  -10.6210    1.0000 </r>
       <r>  -10.6136    1.0000 </r>
       <r>  -10.5691    1.0000 </r>
       <r>  -10.5017    1.0000 </r>
       <r>  -10.5015    1.0000 </r>
       <r>  -10.4838    1.0000 </r>
       <r>  -10.4668    1.0000 </r>
       <r>  -10.4639    1.0000 </r>
       <r>  -10.4289    1.0000 </r>
       <r>  -10.4080    1.0000 </r>
       <r>  -10.3824    1.0000 </r>
       <r>  -10.3691    1.0000 </r>
       <r>  -10.3627    1.0000 </r>
       <r>  -10.3233    1.0000 </r>
       <r>  -10.2980    1.0000 </r>
       <r>  -10.2975    1.0000 </r>
       <r>  -10.2972    1.0000 </r>
       <r>  -10.2879    1.0000 </r>
       <r>  -10.2747    1.0000 </r>
       <r>  -10.2654    1.0000 </r>
       <r>  -10.2564    1.0000 </r>
       <r>  -10.2544    1.0000 </r>
       <r>  -10.2488    1.0000 </r>
       <r>  -10.2332    1.0000 </r>
       <r>   -8.2489    1.0000 </r>
       <r>   -7.9628    1.0000 </r>
       <r>   -7.9009    1.0000 </r>
       <r>   -7.8867    1.0000 </r>
       <r>   -4.3213    1.0000 </r>
       <r>   -4.2871    1.0000 </r>
       <r>   -4.0293    1.0000 </r>
       <r>   -4.0282    1.0000 </r>
       <r>   -3.9911    1.0000 </r>
       <r>   -3.9597    1.0000 </r>
       <r>   -3.8924    1.0000 </r>
       <r>   -3.8637    1.0000 </r>
       <r>   -3.8517    1.0000 </r>
       <r>   -3.7979    1.0000 </r>
       <r>   -3.7164    1.0000 </r>
       <r>   -3.6011    1.0000 </r>
       <r>   -0.6294    1.0000 </r>
       <r>    0.1406    1.0000 </r>
       <r>    0.2994    1.0000 </r>
       <r>    0.3885    1.0000 </r>
       <r>    0.5084    1.0000 </r>
       <r>    0.5504    1.0000 </r>
       <r>    0.6221    1.0000 </r>
       <r>    1.0191    1.0000 </r>
       <r>    1.0225    1.0000 </r>
       <r>    1.0317    1.0000 </r>
       <r>    1.1019    1.0000 </r>
       <r>    1.1133    1.0000 </r>
       <r>    1.2585    1.0000 </r>
       <r>    1.2916    1.0000 </r>
       <r>    1.3767    1.0000 </r>
       <r>    1.4347    1.0000 </r>
       <r>    1.5476    1.0000 </r>
       <r>    1.5979    1.0000 </r>
       <r>    1.6415    1.0000 </r>
       <r>    1.7517    1.0000 </r>
       <r>    2.0685    1.0000 </r>
       <r>    2.1137    1.0000 </r>
       <r>    2.4566    1.0000 </r>
       <r>    2.5273    1.0000 </r>
       <r>    3.3768    0.0000 </r>
       <r>    3.5425    0.0000 </r>
       <r>    3.9447    0.0000 </r>
       <r>    4.0376    0.0000 </r>
       <r>    4.1098    0.0000 </r>
       <r>    4.4062    0.0000 </r>
       <r>    4.4562    0.0000 </r>
       <r>    4.5516    0.0000 </r>
       <r>    4.6988    0.0000 </r>
       <r>    4.8793    0.0000 </r>
       <r>    4.9525    0.0000 </r>
       <r>    4.9730    0.0000 </r>
       <r>    5.0801    0.0000 </r>
       <r>    5.2463    0.0000 </r>
       <r>    5.3865    0.0000 </r>
       <r>    5.5972    0.0000 </r>
      </set>
      <set comment="kpoint 6">
       <r>  -25.0361    1.0000 </r>
       <r>  -25.0279    1.0000 </r>
       <r>  -25.0258    1.0000 </r>
       <r>  -25.0254    1.0000 </r>
       <r>  -25.0020    1.0000 </r>
       <r>  -24.9964    1.0000 </r>
       <r>  -24.9961    1.0000 </r>
       <r>  -24.9932    1.0000 </r>
       <r>  -10.6184    1.0000 </r>
       <r>  -10.6137    1.0000 </r>
       <r>  -10.5756    1.0000 </r>
       <r>  -10.5019    1.0000 </r>
       <r>  -10.4933    1.0000 </r>
       <r>  -10.4919    1.0000 </r>
       <r>  -10.4785    1.0000 </r>
       <r>  -10.4692    1.0000 </r>
       <r>  -10.4332    1.0000 </r>
       <r>  -10.4051    1.0000 </r>
       <r>  -10.3853    1.0000 </r>
       <r>  -10.3624    1.0000 </r>
       <r>  -10.3552    1.0000 </r>
       <r>  -10.3245    1.0000 </r>
       <r>  -10.2989    1.0000 </r>
       <r>  -10.2955    1.0000 </r>
       <r>  -10.2948    1.0000 </r>
       <r>  -10.2918    1.0000 </r>
       <r>  -10.2748    1.0000 </r>
       <r>  -10.2640    1.0000 </r>
       <r>  -10.2578    1.0000 </r>
       <r>  -10.2531    1.0000 </r>
       <r>  -10.2499    1.0000 </r>
       <r>  -10.2314    1.0000 </r>
       <r>   -8.2343    1.0000 </r>
       <r>   -7.9591    1.0000 </r>
       <r>   -7.9009    1.0000 </r>
       <r>   -7.8872    1.0000 </r>
       <r>   -4.3107    1.0000 </r>
       <r>   -4.2759    1.0000 </r>
       <r>   -4.0254    1.0000 </r>
       <r>   -4.0202    1.0000 </r>
       <r>   -3.9981    1.0000 </r>
       <r>   -3.9551    1.0000 </r>
       <r>   -3.9203    1.0000 </r>
       <r>   -3.8601    1.0000 </r>
       <r>   -3.8373    1.0000 </r>
       <r>   -3.8221    1.0000 </r>
       <r>   -3.7147    1.0000 </r>
       <r>   -3.6002    1.0000 </r>
       <r>   -0.5780    1.0000 </r>
       <r>    0.1585    1.0000 </r>
       <r>    0.3174    1.0000 </r>
       <r>    0.3855    1.0000 </r>
       <r>    0.5224    1.0000 </r>
       <r>    0.5423    1.0000 </r>
       <r>    0.5727    1.0000 </r>
       <r>    1.0065    1.0000 </r>
       <r>    1.0178    1.0000 </r>
       <r>    1.0504    1.0000 </r>
       <r>    1.1242    1.0000 </r>
       <r>    1.1442    1.0000 </r>
       <r>    1.2385    1.0000 </r>
       <r>    1.2988    1.0000 </r>
       <r>    1.3839    1.0000 </r>
       <r>    1.4592    1.0000 </r>
       <r>    1.5254    1.0000 </r>
       <r>    1.5374    1.0000 </r>
       <r>    1.6561    1.0000 </r>
       <r>    1.7286    1.0000 </r>
       <r>    2.0075    1.0000 </r>
       <r>    2.1330    1.0000 </r>
       <r>    2.4657    1.0000 </r>
       <r>    2.5726    1.0000 </r>
       <r>    3.3476    0.0000 </r>
       <r>    3.5202    0.0000 </r>
       <r>    3.9636    0.0000 </r>
       <r>    4.0555    0.0000 </r>
       <r>    4.1588    0.0000 </r>
       <r>    4.3781    0.0000 </r>
       <r>    4.4408    0.0000 </r>
       <r>    4.5687    0.0000 </r>
       <r>    4.6128    0.0000 </r>
       <r>    4.8535    0.0000 </r>
       <r>    4.9098    0.0000 </r>
       <r>    5.0271    0.0000 </r>
       <r>    5.0700    0.0000 </r>
       <r>    5.1959    0.0000 </r>
       <r>    5.3879    0.0000 </r>
       <r>    5.5508    0.0000 </r>
      </set>
      <set comment="kpoint 7">
       <r>  -25.0357    1.0000 </r>
       <r>  -25.0278    1.0000 </r>
       <r>  -25.0258    1.0000 </r>
       <r>  -25.0253    1.0000 </r>
       <r>  -25.0022    1.0000 </r>
       <r>  -24.9967    1.0000 </r>
       <r>  -24.9962    1.0000 </r>
       <r>  -24.9933    1.0000 </r>
       <r>  -10.6152    1.0000 </r>
       <r>  -10.6139    1.0000 </r>
       <r>  -10.5814    1.0000 </r>
       <r>  -10.5021    1.0000 </r>
       <r>  -10.5003    1.0000 </r>
       <r>  -10.4902    1.0000 </r>
       <r>  -10.4856    1.0000 </r>
       <r>  -10.4747    1.0000 </r>
       <r>  -10.4379    1.0000 </r>
       <r>  -10.4029    1.0000 </r>
       <r>  -10.3885    1.0000 </r>
       <r>  -10.3554    1.0000 </r>
       <r>  -10.3489    1.0000 </r>
       <r>  -10.3256    1.0000 </r>
       <r>  -10.3005    1.0000 </r>
       <r>  -10.2970    1.0000 </r>
       <r>  -10.2926    1.0000 </r>
       <r>  -10.2914    1.0000 </r>
       <r>  -10.2748    1.0000 </r>
       <r>  -10.2622    1.0000 </r>
       <r>  -10.2609    1.0000 </r>
       <r>  -10.2511    1.0000 </r>
       <r>  -10.2495    1.0000 </r>
       <r>  -10.2297    1.0000 </r>
       <r>   -8.2172    1.0000 </r>
       <r>   -7.9550    1.0000 </r>
       <r>   -7.9010    1.0000 </r>
       <r>   -7.8879    1.0000 </r>
       <r>   -4.2988    1.0000 </r>
       <r>   -4.2626    1.0000 </r>
       <r>   -4.0209    1.0000 </r>
       <r>   -4.0109    1.0000 </r>
       <r>   -4.0036    1.0000 </r>
       <r>   -3.9517    1.0000 </r>
       <r>   -3.9499    1.0000 </r>
       <r>   -3.8563    1.0000 </r>
       <r>   -3.8482    1.0000 </r>
       <r>   -3.8230    1.0000 </r>
       <r>   -3.7130    1.0000 </r>
       <r>   -3.6006    1.0000 </r>
       <r>   -0.5186    1.0000 </r>
       <r>    0.1771    1.0000 </r>
       <r>    0.3384    1.0000 </r>
       <r>    0.3734    1.0000 </r>
       <r>    0.5345    1.0000 </r>
       <r>    0.5377    1.0000 </r>
       <r>    0.5394    1.0000 </r>
       <r>    0.9886    1.0000 </r>
       <r>    1.0135    1.0000 </r>
       <r>    1.0697    1.0000 </r>
       <r>    1.1374    1.0000 </r>
       <r>    1.1812    1.0000 </r>
       <r>    1.2159    1.0000 </r>
       <r>    1.3054    1.0000 </r>
       <r>    1.3905    1.0000 </r>
       <r>    1.4717    1.0000 </r>
       <r>    1.4872    1.0000 </r>
       <r>    1.5094    1.0000 </r>
       <r>    1.6715    1.0000 </r>
       <r>    1.7064    1.0000 </r>
       <r>    1.9480    1.0000 </r>
       <r>    2.1474    1.0000 </r>
       <r>    2.4721    1.0000 </r>
       <r>    2.6149    1.0000 </r>
       <r>    3.3255    0.0000 </r>
       <r>    3.4980    0.0000 </r>
       <r>    3.9878    0.0000 </r>
       <r>    4.0589    0.0000 </r>
       <r>    4.2096    0.0000 </r>
       <r>    4.3719    0.0000 </r>
       <r>    4.3940    0.0000 </r>
       <r>    4.4581    0.0000 </r>
       <r>    4.6751    0.0000 </r>
       <r>    4.8230    0.0000 </r>
       <r>    4.8678    0.0000 </r>
       <r>    5.0577    0.0000 </r>
       <r>    5.0707    0.0000 </r>
       <r>    5.1496    0.0000 </r>
       <r>    5.3660    0.0000 </r>
       <r>    5.4805    0.0000 </r>
      </set>
      <set comment="kpoint 8">
       <r>  -25.0353    1.0000 </r>
       <r>  -25.0277    1.0000 </r>
       <r>  -25.0258    1.0000 </r>
       <r>  -25.0252    1.0000 </r>
       <r>  -25.0024    1.0000 </r>
       <r>  -24.9970    1.0000 </r>
       <r>  -24.9962    1.0000 </r>
       <r>  -24.9935    1.0000 </r>
       <r>  -10.6140    1.0000 </r>
       <r>  -10.6118    1.0000 </r>
       <r>  -10.5865    1.0000 </r>
       <r>  -10.5086    1.0000 </r>
       <r>  -10.5025    1.0000 </r>
       <r>  -10.5016    1.0000 </r>
       <r>  -10.4804    1.0000 </r>
       <r>  -10.4786    1.0000 </r>
       <r>  -10.4427    1.0000 </r>
       <r>  -10.4017    1.0000 </r>
       <r>  -10.3918    1.0000 </r>
       <r>  -10.3483    1.0000 </r>
       <r>  -10.3440    1.0000 </r>
       <r>  -10.3268    1.0000 </r>
       <r>  -10.3032    1.0000 </r>
       <r>  -10.3022    1.0000 </r>
       <r>  -10.2888    1.0000 </r>
       <r>  -10.2877    1.0000 </r>
       <r>  -10.2748    1.0000 </r>
       <r>  -10.2635    1.0000 </r>
       <r>  -10.2599    1.0000 </r>
       <r>  -10.2524    1.0000 </r>
       <r>  -10.2459    1.0000 </r>
       <r>  -10.2281    1.0000 </r>
       <r>   -8.1980    1.0000 </r>
       <r>   -7.9505    1.0000 </r>
       <r>   -7.9010    1.0000 </r>
       <r>   -7.8887    1.0000 </r>
       <r>   -4.2862    1.0000 </r>
       <r>   -4.2474    1.0000 </r>
       <r>   -4.0157    1.0000 </r>
       <r>   -4.0075    1.0000 </r>
       <r>   -4.0013    1.0000 </r>
       <r>   -3.9850    1.0000 </r>
       <r>   -3.9443    1.0000 </r>
       <r>   -3.8747    1.0000 </r>
       <r>   -3.8521    1.0000 </r>
       <r>   -3.8094    1.0000 </r>
       <r>   -3.7113    1.0000 </r>
       <r>   -3.6023    1.0000 </r>
       <r>   -0.4532    1.0000 </r>
       <r>    0.1947    1.0000 </r>
       <r>    0.3489    1.0000 </r>
       <r>    0.3616    1.0000 </r>
       <r>    0.5208    1.0000 </r>
       <r>    0.5279    1.0000 </r>
       <r>    0.5590    1.0000 </r>
       <r>    0.9698    1.0000 </r>
       <r>    1.0040    1.0000 </r>
       <r>    1.0884    1.0000 </r>
       <r>    1.1527    1.0000 </r>
       <r>    1.1920    1.0000 </r>
       <r>    1.2132    1.0000 </r>
       <r>    1.3081    1.0000 </r>
       <r>    1.3959    1.0000 </r>
       <r>    1.4045    1.0000 </r>
       <r>    1.5057    1.0000 </r>
       <r>    1.5173    1.0000 </r>
       <r>    1.6868    1.0000 </r>
       <r>    1.6868    1.0000 </r>
       <r>    1.8908    1.0000 </r>
       <r>    2.1548    1.0000 </r>
       <r>    2.4752    1.0000 </r>
       <r>    2.6537    1.0000 </r>
       <r>    3.3140    0.0000 </r>
       <r>    3.4762    0.0000 </r>
       <r>    4.0176    0.0000 </r>
       <r>    4.0443    0.0000 </r>
       <r>    4.2587    0.0000 </r>
       <r>    4.2789    0.0000 </r>
       <r>    4.3879    0.0000 </r>
       <r>    4.4057    0.0000 </r>
       <r>    4.7343    0.0000 </r>
       <r>    4.7869    0.0000 </r>
       <r>    4.8325    0.0000 </r>
       <r>    5.0424    0.0000 </r>
       <r>    5.0965    0.0000 </r>
       <r>    5.1118    0.0000 </r>
       <r>    5.3290    0.0000 </r>
       <r>    5.3793    0.0000 </r>
      </set>
      <set comment="kpoint 9">
       <r>  -25.0348    1.0000 </r>
       <r>  -25.0276    1.0000 </r>
       <r>  -25.0258    1.0000 </r>
       <r>  -25.0252    1.0000 </r>
       <r>  -25.0026    1.0000 </r>
       <r>  -24.9974    1.0000 </r>
       <r>  -24.9962    1.0000 </r>
       <r>  -24.9936    1.0000 </r>
       <r>  -10.6141    1.0000 </r>
       <r>  -10.6081    1.0000 </r>
       <r>  -10.5906    1.0000 </r>
       <r>  -10.5167    1.0000 </r>
       <r>  -10.5127    1.0000 </r>
       <r>  -10.5030    1.0000 </r>
       <r>  -10.4862    1.0000 </r>
       <r>  -10.4726    1.0000 </r>
       <r>  -10.4475    1.0000 </r>
       <r>  -10.4014    1.0000 </r>
       <r>  -10.3947    1.0000 </r>
       <r>  -10.3417    1.0000 </r>
       <r>  -10.3404    1.0000 </r>
       <r>  -10.3283    1.0000 </r>
       <r>  -10.3099    1.0000 </r>
       <r>  -10.3038    1.0000 </r>
       <r>  -10.2844    1.0000 </r>
       <r>  -10.2838    1.0000 </r>
       <r>  -10.2752    1.0000 </r>
       <r>  -10.2652    1.0000 </r>
       <r>  -10.2574    1.0000 </r>
       <r>  -10.2538    1.0000 </r>
       <r>  -10.2423    1.0000 </r>
       <r>  -10.2269    1.0000 </r>
       <r>   -8.1771    1.0000 </r>
       <r>   -7.9458    1.0000 </r>
       <r>   -7.9010    1.0000 </r>
       <r>   -7.8896    1.0000 </r>
       <r>   -4.2740    1.0000 </r>
       <r>   -4.2305    1.0000 </r>
       <r>   -4.0228    1.0000 </r>
       <r>   -4.0101    1.0000 </r>
       <r>   -4.0096    1.0000 </r>
       <r>   -3.9879    1.0000 </r>
       <r>   -3.9385    1.0000 </r>
       <r>   -3.9003    1.0000 </r>
       <r>   -3.8478    1.0000 </r>
       <r>   -3.7968    1.0000 </r>
       <r>   -3.7097    1.0000 </r>
       <r>   -3.6053    1.0000 </r>
       <r>   -0.3838    1.0000 </r>
       <r>    0.2105    1.0000 </r>
       <r>    0.3158    1.0000 </r>
       <r>    0.3859    1.0000 </r>
       <r>    0.5190    1.0000 </r>
       <r>    0.5235    1.0000 </r>
       <r>    0.5798    1.0000 </r>
       <r>    0.9511    1.0000 </r>
       <r>    0.9864    1.0000 </r>
       <r>    1.1058    1.0000 </r>
       <r>    1.1685    1.0000 </r>
       <r>    1.1695    1.0000 </r>
       <r>    1.2409    1.0000 </r>
       <r>    1.3049    1.0000 </r>
       <r>    1.3399    1.0000 </r>
       <r>    1.3997    1.0000 </r>
       <r>    1.5188    1.0000 </r>
       <r>    1.5483    1.0000 </r>
       <r>    1.6706    1.0000 </r>
       <r>    1.7010    1.0000 </r>
       <r>    1.8372    1.0000 </r>
       <r>    2.1542    1.0000 </r>
       <r>    2.4753    1.0000 </r>
       <r>    2.6884    1.0000 </r>
       <r>    3.3149    0.0000 </r>
       <r>    3.4549    0.0000 </r>
       <r>    4.0126    0.0000 </r>
       <r>    4.0528    0.0000 </r>
       <r>    4.1508    0.0000 </r>
       <r>    4.3030    0.0000 </r>
       <r>    4.3588    0.0000 </r>
       <r>    4.4220    0.0000 </r>
       <r>    4.7441    0.0000 </r>
       <r>    4.7859    0.0000 </r>
       <r>    4.8051    0.0000 </r>
       <r>    5.0234    0.0000 </r>
       <r>    5.0725    0.0000 </r>
       <r>    5.1066    0.0000 </r>
       <r>    5.2458    0.0000 </r>
       <r>    5.2933    0.0000 </r>
      </set>
      <set comment="kpoint 10">
       <r>  -25.0342    1.0000 </r>
       <r>  -25.0274    1.0000 </r>
       <r>  -25.0257    1.0000 </r>
       <r>  -25.0251    1.0000 </r>
       <r>  -25.0028    1.0000 </r>
       <r>  -24.9978    1.0000 </r>
       <r>  -24.9962    1.0000 </r>
       <r>  -24.9938    1.0000 </r>
       <r>  -10.6142    1.0000 </r>
       <r>  -10.6043    1.0000 </r>
       <r>  -10.5939    1.0000 </r>
       <r>  -10.5244    1.0000 </r>
       <r>  -10.5233    1.0000 </r>
       <r>  -10.5035    1.0000 </r>
       <r>  -10.4921    1.0000 </r>
       <r>  -10.4680    1.0000 </r>
       <r>  -10.4519    1.0000 </r>
       <r>  -10.4019    1.0000 </r>
       <r>  -10.3969    1.0000 </r>
       <r>  -10.3379    1.0000 </r>
       <r>  -10.3360    1.0000 </r>
       <r>  -10.3299    1.0000 </r>
       <r>  -10.3163    1.0000 </r>
       <r>  -10.3052    1.0000 </r>
       <r>  -10.2796    1.0000 </r>
       <r>  -10.2794    1.0000 </r>
       <r>  -10.2762    1.0000 </r>
       <r>  -10.2657    1.0000 </r>
       <r>  -10.2553    1.0000 </r>
       <r>  -10.2545    1.0000 </r>
       <r>  -10.2390    1.0000 </r>
       <r>  -10.2259    1.0000 </r>
       <r>   -8.1550    1.0000 </r>
       <r>   -7.9413    1.0000 </r>
       <r>   -7.9011    1.0000 </r>
       <r>   -7.8905    1.0000 </r>
       <r>   -4.2632    1.0000 </r>
       <r>   -4.2122    1.0000 </r>
       <r>   -4.0589    1.0000 </r>
       <r>   -4.0098    1.0000 </r>
       <r>   -4.0045    1.0000 </r>
       <r>   -3.9761    1.0000 </r>
       <r>   -3.9328    1.0000 </r>
       <r>   -3.9234    1.0000 </r>
       <r>   -3.8434    1.0000 </r>
       <r>   -3.7855    1.0000 </r>
       <r>   -3.7082    1.0000 </r>
       <r>   -3.6094    1.0000 </r>
       <r>   -0.3126    1.0000 </r>
       <r>    0.2233    1.0000 </r>
       <r>    0.2804    1.0000 </r>
       <r>    0.4102    1.0000 </r>
       <r>    0.5221    1.0000 </r>
       <r>    0.5264    1.0000 </r>
       <r>    0.6004    1.0000 </r>
       <r>    0.9330    1.0000 </r>
       <r>    0.9585    1.0000 </r>
       <r>    1.1210    1.0000 </r>
       <r>    1.1459    1.0000 </r>
       <r>    1.1872    1.0000 </r>
       <r>    1.2648    1.0000 </r>
       <r>    1.2828    1.0000 </r>
       <r>    1.2975    1.0000 </r>
       <r>    1.4022    1.0000 </r>
       <r>    1.5483    1.0000 </r>
       <r>    1.5795    1.0000 </r>
       <r>    1.6579    1.0000 </r>
       <r>    1.7131    1.0000 </r>
       <r>    1.7881    1.0000 </r>
       <r>    2.1458    1.0000 </r>
       <r>    2.4735    1.0000 </r>
       <r>    2.7183    1.0000 </r>
       <r>    3.3287    0.0000 </r>
       <r>    3.4341    0.0000 </r>
       <r>    3.9669    0.0000 </r>
       <r>    4.0264    0.0000 </r>
       <r>    4.0929    0.0000 </r>
       <r>    4.3037    0.0000 </r>
       <r>    4.3397    0.0000 </r>
       <r>    4.4692    0.0000 </r>
       <r>    4.6914    0.0000 </r>
       <r>    4.7836    0.0000 </r>
       <r>    4.8248    0.0000 </r>
       <r>    5.0066    0.0000 </r>
       <r>    5.0313    0.0000 </r>
       <r>    5.1042    0.0000 </r>
       <r>    5.1653    0.0000 </r>
       <r>    5.2611    0.0000 </r>
      </set>
      <set comment="kpoint 11">
       <r>  -25.0336    1.0000 </r>
       <r>  -25.0273    1.0000 </r>
       <r>  -25.0257    1.0000 </r>
       <r>  -25.0251    1.0000 </r>
       <r>  -25.0030    1.0000 </r>
       <r>  -24.9983    1.0000 </r>
       <r>  -24.9961    1.0000 </r>
       <r>  -24.9940    1.0000 </r>
       <r>  -10.6141    1.0000 </r>
       <r>  -10.6006    1.0000 </r>
       <r>  -10.5961    1.0000 </r>
       <r>  -10.5333    1.0000 </r>
       <r>  -10.5318    1.0000 </r>
       <r>  -10.5039    1.0000 </r>
       <r>  -10.4984    1.0000 </r>
       <r>  -10.4652    1.0000 </r>
       <r>  -10.4557    1.0000 </r>
       <r>  -10.4031    1.0000 </r>
       <r>  -10.3979    1.0000 </r>
       <r>  -10.3364    1.0000 </r>
       <r>  -10.3335    1.0000 </r>
       <r>  -10.3318    1.0000 </r>
       <r>  -10.3198    1.0000 </r>
       <r>  -10.3066    1.0000 </r>
       <r>  -10.2777    1.0000 </r>
       <r>  -10.2752    1.0000 </r>
       <r>  -10.2744    1.0000 </r>
       <r>  -10.2652    1.0000 </r>
       <r>  -10.2569    1.0000 </r>
       <r>  -10.2515    1.0000 </r>
       <r>  -10.2359    1.0000 </r>
       <r>  -10.2254    1.0000 </r>
       <r>   -8.1320    1.0000 </r>
       <r>   -7.9372    1.0000 </r>
       <r>   -7.9011    1.0000 </r>
       <r>   -7.8915    1.0000 </r>
       <r>   -4.2551    1.0000 </r>
       <r>   -4.1929    1.0000 </r>
       <r>   -4.0947    1.0000 </r>
       <r>   -4.0082    1.0000 </r>
       <r>   -3.9992    1.0000 </r>
       <r>   -3.9639    1.0000 </r>
       <r>   -3.9422    1.0000 </r>
       <r>   -3.9275    1.0000 </r>
       <r>   -3.8389    1.0000 </r>
       <r>   -3.7758    1.0000 </r>
       <r>   -3.7068    1.0000 </r>
       <r>   -3.6147    1.0000 </r>
       <r>   -0.2422    1.0000 </r>
       <r>    0.2327    1.0000 </r>
       <r>    0.2472    1.0000 </r>
       <r>    0.4322    1.0000 </r>
       <r>    0.5247    1.0000 </r>
       <r>    0.5390    1.0000 </r>
       <r>    0.6198    1.0000 </r>
       <r>    0.9159    1.0000 </r>
       <r>    0.9207    1.0000 </r>
       <r>    1.1213    1.0000 </r>
       <r>    1.1333    1.0000 </r>
       <r>    1.2041    1.0000 </r>
       <r>    1.2387    1.0000 </r>
       <r>    1.2850    1.0000 </r>
       <r>    1.2905    1.0000 </r>
       <r>    1.4045    1.0000 </r>
       <r>    1.5904    1.0000 </r>
       <r>    1.6107    1.0000 </r>
       <r>    1.6490    1.0000 </r>
       <r>    1.7226    1.0000 </r>
       <r>    1.7447    1.0000 </r>
       <r>    2.1310    1.0000 </r>
       <r>    2.4715    1.0000 </r>
       <r>    2.7426    1.0000 </r>
       <r>    3.3545    0.0000 </r>
       <r>    3.4132    0.0000 </r>
       <r>    3.9085    0.0000 </r>
       <r>    3.9107    0.0000 </r>
       <r>    4.1360    0.0000 </r>
       <r>    4.2407    0.0000 </r>
       <r>    4.3662    0.0000 </r>
       <r>    4.5249    0.0000 </r>
       <r>    4.6280    0.0000 </r>
       <r>    4.7655    0.0000 </r>
       <r>    4.8449    0.0000 </r>
       <r>    4.9866    0.0000 </r>
       <r>    5.0006    0.0000 </r>
       <r>    5.0729    0.0000 </r>
       <r>    5.1150    0.0000 </r>
       <r>    5.1756    0.0000 </r>
      </set>
      <set comment="kpoint 12">
       <r>  -25.0330    1.0000 </r>
       <r>  -25.0271    1.0000 </r>
       <r>  -25.0257    1.0000 </r>
       <r>  -25.0251    1.0000 </r>
       <r>  -25.0032    1.0000 </r>
       <r>  -24.9987    1.0000 </r>
       <r>  -24.9961    1.0000 </r>
       <r>  -24.9942    1.0000 </r>
       <r>  -10.6140    1.0000 </r>
       <r>  -10.5973    1.0000 </r>
       <r>  -10.5972    1.0000 </r>
       <r>  -10.5425    1.0000 </r>
       <r>  -10.5386    1.0000 </r>
       <r>  -10.5051    1.0000 </r>
       <r>  -10.5042    1.0000 </r>
       <r>  -10.4643    1.0000 </r>
       <r>  -10.4587    1.0000 </r>
       <r>  -10.4052    1.0000 </r>
       <r>  -10.3975    1.0000 </r>
       <r>  -10.3366    1.0000 </r>
       <r>  -10.3355    1.0000 </r>
       <r>  -10.3336    1.0000 </r>
       <r>  -10.3180    1.0000 </r>
       <r>  -10.3078    1.0000 </r>
       <r>  -10.2794    1.0000 </r>
       <r>  -10.2709    1.0000 </r>
       <r>  -10.2694    1.0000 </r>
       <r>  -10.2639    1.0000 </r>
       <r>  -10.2586    1.0000 </r>
       <r>  -10.2484    1.0000 </r>
       <r>  -10.2332    1.0000 </r>
       <r>  -10.2253    1.0000 </r>
       <r>   -8.1088    1.0000 </r>
       <r>   -7.9337    1.0000 </r>
       <r>   -7.9011    1.0000 </r>
       <r>   -7.8925    1.0000 </r>
       <r>   -4.2509    1.0000 </r>
       <r>   -4.1728    1.0000 </r>
       <r>   -4.1294    1.0000 </r>
       <r>   -4.0047    1.0000 </r>
       <r>   -3.9947    1.0000 </r>
       <r>   -3.9554    1.0000 </r>
       <r>   -3.9518    1.0000 </r>
       <r>   -3.9228    1.0000 </r>
       <r>   -3.8341    1.0000 </r>
       <r>   -3.7679    1.0000 </r>
       <r>   -3.7055    1.0000 </r>
       <r>   -3.6210    1.0000 </r>
       <r>   -0.1747    1.0000 </r>
       <r>    0.2188    1.0000 </r>
       <r>    0.2380    1.0000 </r>
       <r>    0.4495    1.0000 </r>
       <r>    0.5318    1.0000 </r>
       <r>    0.5548    1.0000 </r>
       <r>    0.6370    1.0000 </r>
       <r>    0.8775    1.0000 </r>
       <r>    0.9002    1.0000 </r>
       <r>    1.0904    1.0000 </r>
       <r>    1.1420    1.0000 </r>
       <r>    1.2119    1.0000 </r>
       <r>    1.2182    1.0000 </r>
       <r>    1.2871    1.0000 </r>
       <r>    1.3014    1.0000 </r>
       <r>    1.4081    1.0000 </r>
       <r>    1.6412    1.0000 </r>
       <r>    1.6417    1.0000 </r>
       <r>    1.6437    1.0000 </r>
       <r>    1.7086    1.0000 </r>
       <r>    1.7293    1.0000 </r>
       <r>    2.1115    1.0000 </r>
       <r>    2.4711    1.0000 </r>
       <r>    2.7603    1.0000 </r>
       <r>    3.3905    0.0000 </r>
       <r>    3.3913    0.0000 </r>
       <r>    3.7985    0.0000 </r>
       <r>    3.8487    0.0000 </r>
       <r>    4.1721    0.0000 </r>
       <r>    4.1783    0.0000 </r>
       <r>    4.3808    0.0000 </r>
       <r>    4.5567    0.0000 </r>
       <r>    4.5805    0.0000 </r>
       <r>    4.7551    0.0000 </r>
       <r>    4.8446    0.0000 </r>
       <r>    4.9468    0.0000 </r>
       <r>    4.9972    0.0000 </r>
       <r>    5.0053    0.0000 </r>
       <r>    5.1038    0.0000 </r>
       <r>    5.1149    0.0000 </r>
      </set>
      <set comment="kpoint 13">
       <r>  -25.0323    1.0000 </r>
       <r>  -25.0269    1.0000 </r>
       <r>  -25.0257    1.0000 </r>
       <r>  -25.0252    1.0000 </r>
       <r>  -25.0033    1.0000 </r>
       <r>  -24.9992    1.0000 </r>
       <r>  -24.9961    1.0000 </r>
       <r>  -24.9943    1.0000 </r>
       <r>  -10.6136    1.0000 </r>
       <r>  -10.5975    1.0000 </r>
       <r>  -10.5944    1.0000 </r>
       <r>  -10.5508    1.0000 </r>
       <r>  -10.5448    1.0000 </r>
       <r>  -10.5122    1.0000 </r>
       <r>  -10.5044    1.0000 </r>
       <r>  -10.4653    1.0000 </r>
       <r>  -10.4606    1.0000 </r>
       <r>  -10.4080    1.0000 </r>
       <r>  -10.3956    1.0000 </r>
       <r>  -10.3417    1.0000 </r>
       <r>  -10.3354    1.0000 </r>
       <r>  -10.3352    1.0000 </r>
       <r>  -10.3144    1.0000 </r>
       <r>  -10.3090    1.0000 </r>
       <r>  -10.2808    1.0000 </r>
       <r>  -10.2668    1.0000 </r>
       <r>  -10.2648    1.0000 </r>
       <r>  -10.2620    1.0000 </r>
       <r>  -10.2604    1.0000 </r>
       <r>  -10.2452    1.0000 </r>
       <r>  -10.2309    1.0000 </r>
       <r>  -10.2256    1.0000 </r>
       <r>   -8.0856    1.0000 </r>
       <r>   -7.9311    1.0000 </r>
       <r>   -7.9011    1.0000 </r>
       <r>   -7.8935    1.0000 </r>
       <r>   -4.2512    1.0000 </r>
       <r>   -4.1619    1.0000 </r>
       <r>   -4.1524    1.0000 </r>
       <r>   -3.9996    1.0000 </r>
       <r>   -3.9913    1.0000 </r>
       <r>   -3.9622    1.0000 </r>
       <r>   -3.9403    1.0000 </r>
       <r>   -3.9192    1.0000 </r>
       <r>   -3.8288    1.0000 </r>
       <r>   -3.7621    1.0000 </r>
       <r>   -3.7042    1.0000 </r>
       <r>   -3.6280    1.0000 </r>
       <r>   -0.1124    1.0000 </r>
       <r>    0.1964    1.0000 </r>
       <r>    0.2390    1.0000 </r>
       <r>    0.4581    1.0000 </r>
       <r>    0.5437    1.0000 </r>
       <r>    0.5730    1.0000 </r>
       <r>    0.6519    1.0000 </r>
       <r>    0.8358    1.0000 </r>
       <r>    0.8859    1.0000 </r>
       <r>    1.0528    1.0000 </r>
       <r>    1.1477    1.0000 </r>
       <r>    1.2005    1.0000 </r>
       <r>    1.2277    1.0000 </r>
       <r>    1.2879    1.0000 </r>
       <r>    1.3137    1.0000 </r>
       <r>    1.4132    1.0000 </r>
       <r>    1.6417    1.0000 </r>
       <r>    1.6717    1.0000 </r>
       <r>    1.6821    1.0000 </r>
       <r>    1.6970    1.0000 </r>
       <r>    1.7343    1.0000 </r>
       <r>    2.0891    1.0000 </r>
       <r>    2.4740    1.0000 </r>
       <r>    2.7704    1.0000 </r>
       <r>    3.3664    0.0000 </r>
       <r>    3.4344    0.0000 </r>
       <r>    3.6970    0.0000 </r>
       <r>    3.7869    0.0000 </r>
       <r>    4.1001    0.0000 </r>
       <r>    4.2099    0.0000 </r>
       <r>    4.3832    0.0000 </r>
       <r>    4.4896    0.0000 </r>
       <r>    4.6161    0.0000 </r>
       <r>    4.7708    0.0000 </r>
       <r>    4.8368    0.0000 </r>
       <r>    4.9029    0.0000 </r>
       <r>    4.9168    0.0000 </r>
       <r>    5.0152    0.0000 </r>
       <r>    5.0428    0.0000 </r>
       <r>    5.2019    0.0000 </r>
[...]
       <r>  -10.4081    1.0000 </r>
       <r>  -10.4081    1.0000 </r>
       <r>  -10.3985    1.0000 </r>
       <r>  -10.3985    1.0000 </r>
       <r>  -10.3234    1.0000 </r>
       <r>  -10.3234    1.0000 </r>
       <r>  -10.2806    1.0000 </r>
       <r>  -10.2806    1.0000 </r>
       <r>  -10.2787    1.0000 </r>
       <r>  -10.2787    1.0000 </r>
       <r>  -10.2562    1.0000 </r>
       <r>  -10.2562    1.0000 </r>
       <r>  -10.2387    1.0000 </r>
       <r>  -10.2387    1.0000 </r>
       <r>   -8.0470    1.0000 </r>
       <r>   -8.0470    1.0000 </r>
       <r>   -7.8989    1.0000 </r>
       <r>   -7.8989    1.0000 </r>
       <r>   -4.2804    1.0000 </r>
       <r>   -4.2804    1.0000 </r>
       <r>   -4.1545    1.0000 </r>
       <r>   -4.1545    1.0000 </r>
       <r>   -3.9412    1.0000 </r>
       <r>   -3.9412    1.0000 </r>
       <r>   -3.9015    1.0000 </r>
       <r>   -3.9015    1.0000 </r>
       <r>   -3.8548    1.0000 </r>
       <r>   -3.8548    1.0000 </r>
       <r>   -3.7990    1.0000 </r>
       <r>   -3.7990    1.0000 </r>
       <r>   -0.2469    1.0000 </r>
       <r>   -0.2469    1.0000 </r>
       <r>    0.2489    1.0000 </r>
       <r>    0.2489    1.0000 </r>
       <r>    0.7407    1.0000 </r>
       <r>    0.7407    1.0000 </r>
       <r>    0.9788    1.0000 </r>
       <r>    0.9788    1.0000 </r>
       <r>    1.0546    1.0000 </r>
       <r>    1.0546    1.0000 </r>
       <r>    1.2993    1.0000 </r>
       <r>    1.2993    1.0000 </r>
       <r>    1.5232    1.0000 </r>
       <r>    1.5232    1.0000 </r>
       <r>    1.5346    1.0000 </r>
       <r>    1.5346    1.0000 </r>
       <r>    1.7106    1.0000 </r>
       <r>    1.7106    1.0000 </r>
       <r>    1.9550    1.0000 </r>
       <r>    1.9550    1.0000 </r>
       <r>    2.0929    1.0000 </r>
       <r>    2.0929    1.0000 </r>
       <r>    2.1484    1.0000 </r>
       <r>    2.1484    1.0000 </r>
       <r>    3.6260    0.0000 </r>
       <r>    3.6260    0.0000 </r>
       <r>    3.6904    0.0000 </r>
       <r>    3.6904    0.0000 </r>
       <r>    3.7968    0.0000 </r>
       <r>    3.7968    0.0000 </r>
       <r>    4.1478    0.0000 </r>
       <r>    4.1478    0.0000 </r>
       <r>    4.7917    0.0000 </r>
       <r>    4.7917    0.0000 </r>
       <r>    4.9714    0.0000 </r>
       <r>    4.9714    0.0000 </r>
       <r>    4.9897    0.0000 </r>
       <r>    4.9898    0.0000 </r>
       <r>    5.5742    0.0000 </r>
       <r>    5.6324    0.0000 </r>
      </set>
     </set>
    </set>
   </array>
  </eigenvalues>
  <separator name="orbital magnetization" >
   <v name="MAGDIPOLOUT">      0.00000000      0.00000000      0.00000000</v>
  </separator>
  <dos>
   <i name="efermi">      2.82752668 </i>
   <total>
    <array>
     <dimension dim="1">gridpoints</dimension>
     <dimension dim="2">spin</dimension>
     <field>energy</field>
     <field>total</field>
     <field>integrated</field>
     <set>
      <set comment="spin 1">
       <r>   -26.5763     0.0000     0.0000 </r>
       <r>   -26.4634     0.0000     0.0000 </r>
       <r>   -26.3505     0.0000     0.0000 </r>
       <r>   -26.2376     0.0000     0.0000 </r>
       <r>   -26.1248     0.0000     0.0000 </r>
       <r>   -26.0119     0.0000     0.0000 </r>
       <r>   -25.8990     0.0000     0.0000 </r>
       <r>   -25.7861     0.0000     0.0000 </r>
       <r>   -25.6733     0.0000     0.0000 </r>
       <r>   -25.5604     0.0000     0.0000 </r>
       <r>   -25.4475     0.0000     0.0000 </r>
       <r>   -25.3346     0.0000     0.0000 </r>
       <r>   -25.2218     0.0000     0.0000 </r>
       <r>   -25.1089     0.0000     0.0000 </r>
       <r>   -24.9960   111.4722    12.5824 </r>
       <r>   -24.8831     0.0000    16.0000 </r>
       <r>   -24.7703     0.0000    16.0000 </r>
       <r>   -24.6574     0.0000    16.0000 </r>
       <r>   -24.5445     0.0000    16.0000 </r>
       <r>   -24.4316     0.0000    16.0000 </r>
       <r>   -24.3188     0.0000    16.0000 </r>
       <r>   -24.2059     0.0000    16.0000 </r>
       <r>   -24.0930     0.0000    16.0000 </r>
       <r>   -23.9801     0.0000    16.0000 </r>
       <r>   -23.8673     0.0000    16.0000 </r>
       <r>   -23.7544     0.0000    16.0000 </r>
       <r>   -23.6415     0.0000    16.0000 </r>
       <r>   -23.5286     0.0000    16.0000 </r>
       <r>   -23.4158     0.0000    16.0000 </r>
       <r>   -23.3029     0.0000    16.0000 </r>
       <r>   -23.1900     0.0000    16.0000 </r>
       <r>   -23.0771     0.0000    16.0000 </r>
       <r>   -22.9643     0.0000    16.0000 </r>
       <r>   -22.8514     0.0000    16.0000 </r>
       <r>   -22.7385     0.0000    16.0000 </r>
       <r>   -22.6257     0.0000    16.0000 </r>
       <r>   -22.5128     0.0000    16.0000 </r>
       <r>   -22.3999     0.0000    16.0000 </r>
       <r>   -22.2870     0.0000    16.0000 </r>
       <r>   -22.1742     0.0000    16.0000 </r>
       <r>   -22.0613     0.0000    16.0000 </r>
       <r>   -21.9484     0.0000    16.0000 </r>
       <r>   -21.8355     0.0000    16.0000 </r>
       <r>   -21.7227     0.0000    16.0000 </r>
       <r>   -21.6098     0.0000    16.0000 </r>
       <r>   -21.4969     0.0000    16.0000 </r>
       <r>   -21.3840     0.0000    16.0000 </r>
       <r>   -21.2712     0.0000    16.0000 </r>
       <r>   -21.1583     0.0000    16.0000 </r>
       <r>   -21.0454     0.0000    16.0000 </r>
       <r>   -20.9325     0.0000    16.0000 </r>
       <r>   -20.8197     0.0000    16.0000 </r>
       <r>   -20.7068     0.0000    16.0000 </r>
       <r>   -20.5939     0.0000    16.0000 </r>
       <r>   -20.4810     0.0000    16.0000 </r>
       <r>   -20.3682     0.0000    16.0000 </r>
       <r>   -20.2553     0.0000    16.0000 </r>
       <r>   -20.1424     0.0000    16.0000 </r>
       <r>   -20.0295     0.0000    16.0000 </r>
       <r>   -19.9167     0.0000    16.0000 </r>
       <r>   -19.8038     0.0000    16.0000 </r>
       <r>   -19.6909     0.0000    16.0000 </r>
       <r>   -19.5780     0.0000    16.0000 </r>
       <r>   -19.4652     0.0000    16.0000 </r>
       <r>   -19.3523     0.0000    16.0000 </r>
       <r>   -19.2394     0.0000    16.0000 </r>
       <r>   -19.1265     0.0000    16.0000 </r>
       <r>   -19.0137     0.0000    16.0000 </r>
       <r>   -18.9008     0.0000    16.0000 </r>
       <r>   -18.7879     0.0000    16.0000 </r>
       <r>   -18.6750     0.0000    16.0000 </r>
       <r>   -18.5622     0.0000    16.0000 </r>
       <r>   -18.4493     0.0000    16.0000 </r>
       <r>   -18.3364     0.0000    16.0000 </r>
       <r>   -18.2235     0.0000    16.0000 </r>
       <r>   -18.1107     0.0000    16.0000 </r>
       <r>   -17.9978     0.0000    16.0000 </r>
       <r>   -17.8849     0.0000    16.0000 </r>
       <r>   -17.7721     0.0000    16.0000 </r>
       <r>   -17.6592     0.0000    16.0000 </r>
       <r>   -17.5463     0.0000    16.0000 </r>
       <r>   -17.4334     0.0000    16.0000 </r>
       <r>   -17.3206     0.0000    16.0000 </r>
       <r>   -17.2077     0.0000    16.0000 </r>
       <r>   -17.0948     0.0000    16.0000 </r>
       <r>   -16.9819     0.0000    16.0000 </r>
       <r>   -16.8691     0.0000    16.0000 </r>
       <r>   -16.7562     0.0000    16.0000 </r>
       <r>   -16.6433     0.0000    16.0000 </r>
       <r>   -16.5304     0.0000    16.0000 </r>
       <r>   -16.4176     0.0000    16.0000 </r>
       <r>   -16.3047     0.0000    16.0000 </r>
       <r>   -16.1918     0.0000    16.0000 </r>
       <r>   -16.0789     0.0000    16.0000 </r>
       <r>   -15.9661     0.0000    16.0000 </r>
       <r>   -15.8532     0.0000    16.0000 </r>
       <r>   -15.7403     0.0000    16.0000 </r>
       <r>   -15.6274     0.0000    16.0000 </r>
       <r>   -15.5146     0.0000    16.0000 </r>
       <r>   -15.4017     0.0000    16.0000 </r>
       <r>   -15.2888     0.0000    16.0000 </r>
       <r>   -15.1759     0.0000    16.0000 </r>
       <r>   -15.0631     0.0000    16.0000 </r>
       <r>   -14.9502     0.0000    16.0000 </r>
       <r>   -14.8373     0.0000    16.0000 </r>
       <r>   -14.7244     0.0000    16.0000 </r>
       <r>   -14.6116     0.0000    16.0000 </r>
       <r>   -14.4987     0.0000    16.0000 </r>
       <r>   -14.3858     0.0000    16.0000 </r>
       <r>   -14.2729     0.0000    16.0000 </r>
       <r>   -14.1601     0.0000    16.0000 </r>
       <r>   -14.0472     0.0000    16.0000 </r>
       <r>   -13.9343     0.0000    16.0000 </r>
       <r>   -13.8214     0.0000    16.0000 </r>
       <r>   -13.7086     0.0000    16.0000 </r>
       <r>   -13.5957     0.0000    16.0000 </r>
       <r>   -13.4828     0.0000    16.0000 </r>
       <r>   -13.3699     0.0000    16.0000 </r>
       <r>   -13.2571     0.0000    16.0000 </r>
       <r>   -13.1442     0.0000    16.0000 </r>
       <r>   -13.0313     0.0000    16.0000 </r>
       <r>   -12.9185     0.0000    16.0000 </r>
       <r>   -12.8056     0.0000    16.0000 </r>
       <r>   -12.6927     0.0000    16.0000 </r>
       <r>   -12.5798     0.0000    16.0000 </r>
       <r>   -12.4670     0.0000    16.0000 </r>
       <r>   -12.3541     0.0000    16.0000 </r>
       <r>   -12.2412     0.0000    16.0000 </r>
       <r>   -12.1283     0.0000    16.0000 </r>
       <r>   -12.0155     0.0000    16.0000 </r>
       <r>   -11.9026     0.0000    16.0000 </r>
       <r>   -11.7897     0.0000    16.0000 </r>
       <r>   -11.6768     0.0000    16.0000 </r>
       <r>   -11.5640     0.0000    16.0000 </r>
       <r>   -11.4511     0.0000    16.0000 </r>
       <r>   -11.3382     0.0000    16.0000 </r>
       <r>   -11.2253     0.0000    16.0000 </r>
       <r>   -11.1125     0.0000    16.0000 </r>
       <r>   -10.9996     0.0000    16.0000 </r>
       <r>   -10.8867     0.0000    16.0000 </r>
       <r>   -10.7738     0.0000    16.0000 </r>
       <r>   -10.6610     0.0004    16.0000 </r>
       <r>   -10.5481    37.3669    21.8978 </r>
       <r>   -10.4352    77.4428    33.3213 </r>
       <r>   -10.3223    67.8441    43.8779 </r>
       <r>   -10.2095   120.2642    63.9948 </r>
       <r>   -10.0966     0.0000    64.0000 </r>
       <r>    -9.9837     0.0000    64.0000 </r>
       <r>    -9.8708     0.0000    64.0000 </r>
       <r>    -9.7580     0.0000    64.0000 </r>
       <r>    -9.6451     0.0000    64.0000 </r>
       <r>    -9.5322     0.0000    64.0000 </r>
       <r>    -9.4193     0.0000    64.0000 </r>
       <r>    -9.3065     0.0000    64.0000 </r>
       <r>    -9.1936     0.0000    64.0000 </r>
       <r>    -9.0807     0.0000    64.0000 </r>
       <r>    -8.9678     0.0000    64.0000 </r>
       <r>    -8.8550     0.0000    64.0000 </r>
       <r>    -8.7421     0.0000    64.0000 </r>
       <r>    -8.6292     0.0000    64.0000 </r>
       <r>    -8.5164     0.0000    64.0000 </r>
       <r>    -8.4035     0.0000    64.0000 </r>
       <r>    -8.2906     0.0221    64.0025 </r>
       <r>    -8.1777     3.3657    64.6799 </r>
       <r>    -8.0649     4.9488    65.3786 </r>
       <r>    -7.9520    12.6304    67.0256 </r>
       <r>    -7.8391    31.7167    72.0000 </r>
       <r>    -7.7262     0.0000    72.0000 </r>
       <r>    -7.6134     0.0000    72.0000 </r>
       <r>    -7.5005     0.0000    72.0000 </r>
       <r>    -7.3876     0.0000    72.0000 </r>
       <r>    -7.2747     0.0000    72.0000 </r>
       <r>    -7.1619     0.0000    72.0000 </r>
       <r>    -7.0490     0.0000    72.0000 </r>
       <r>    -6.9361     0.0000    72.0000 </r>
       <r>    -6.8232     0.0000    72.0000 </r>
       <r>    -6.7104     0.0000    72.0000 </r>
       <r>    -6.5975     0.0000    72.0000 </r>
       <r>    -6.4846     0.0000    72.0000 </r>
       <r>    -6.3717     0.0000    72.0000 </r>
       <r>    -6.2589     0.0000    72.0000 </r>
       <r>    -6.1460     0.0000    72.0000 </r>
       <r>    -6.0331     0.0000    72.0000 </r>
       <r>    -5.9202     0.0000    72.0000 </r>
       <r>    -5.8074     0.0000    72.0000 </r>
       <r>    -5.6945     0.0000    72.0000 </r>
       <r>    -5.5816     0.0000    72.0000 </r>
       <r>    -5.4687     0.0000    72.0000 </r>
       <r>    -5.3559     0.0000    72.0000 </r>
       <r>    -5.2430     0.0000    72.0000 </r>
       <r>    -5.1301     0.0000    72.0000 </r>
       <r>    -5.0172     0.0000    72.0000 </r>
       <r>    -4.9044     0.0000    72.0000 </r>
       <r>    -4.7915     0.0000    72.0000 </r>
       <r>    -4.6786     0.0000    72.0000 </r>
       <r>    -4.5657     0.0000    72.0000 </r>
       <r>    -4.4529     0.0000    72.0000 </r>
       <r>    -4.3400     5.6663    72.6396 </r>
       <r>    -4.2271    15.7285    75.2353 </r>
       <r>    -4.1142    10.8721    76.7472 </r>
       <r>    -4.0014    24.0764    79.7976 </r>
       <r>    -3.8885    43.1074    86.8257 </r>
       <r>    -3.7756    30.6634    91.5011 </r>
       <r>    -3.6628    10.3602    93.6494 </r>
       <r>    -3.5499    16.8329    96.0000 </r>
       <r>    -3.4370     0.0000    96.0000 </r>
       <r>    -3.3241     0.0000    96.0000 </r>
       <r>    -3.2113     0.0000    96.0000 </r>
       <r>    -3.0984     0.0000    96.0000 </r>
       <r>    -2.9855     0.0000    96.0000 </r>
       <r>    -2.8726     0.0000    96.0000 </r>
       <r>    -2.7598     0.0000    96.0000 </r>
       <r>    -2.6469     0.0000    96.0000 </r>
       <r>    -2.5340     0.0000    96.0000 </r>
       <r>    -2.4211     0.0000    96.0000 </r>
       <r>    -2.3083     0.0000    96.0000 </r>
       <r>    -2.1954     0.0000    96.0000 </r>
       <r>    -2.0825     0.0000    96.0000 </r>
       <r>    -1.9696     0.0000    96.0000 </r>
       <r>    -1.8568     0.0000    96.0000 </r>
       <r>    -1.7439     0.0000    96.0000 </r>
       <r>    -1.6310     0.0000    96.0000 </r>
       <r>    -1.5181     0.0000    96.0000 </r>
       <r>    -1.4053     0.0000    96.0000 </r>
       <r>    -1.2924     0.0000    96.0000 </r>
       <r>    -1.1795     0.0000    96.0000 </r>
       <r>    -1.0666     0.0000    96.0000 </r>
       <r>    -0.9538     0.0000    96.0000 </r>
       <r>    -0.8409     0.0000    96.0000 </r>
       <r>    -0.7280     0.4713    96.0532 </r>
       <r>    -0.6151     1.7610    96.4588 </r>
       <r>    -0.5023     1.0913    96.6432 </r>
       <r>    -0.3894     0.9374    96.7858 </r>
       <r>    -0.2765     0.8459    96.9355 </r>
       <r>    -0.1636     2.2842    97.2378 </r>
       <r>    -0.0508     1.7241    97.5346 </r>
       <r>     0.0621     2.4411    97.8755 </r>
       <r>     0.1750    19.6259   100.2553 </r>
       <r>     0.2879    15.6724   102.4690 </r>
       <r>     0.4007     8.5572   103.8459 </r>
       <r>     0.5136     8.6859   105.4404 </r>
       <r>     0.6265    14.6124   107.7694 </r>
       <r>     0.7394     9.1266   109.0902 </r>
       <r>     0.8522    12.8277   111.0079 </r>
       <r>     0.9651    13.2130   113.4914 </r>
       <r>     1.0780    22.8138   117.0551 </r>
       <r>     1.1908    10.6790   118.7054 </r>
       <r>     1.3037    17.1326   121.6738 </r>
       <r>     1.4166    18.3005   124.7657 </r>
       <r>     1.5295    14.6616   127.0349 </r>
       <r>     1.6423    23.7576   130.6016 </r>
       <r>     1.7552    21.4804   133.7246 </r>
       <r>     1.8681    10.5909   135.3754 </r>
       <r>     1.9810    10.5370   137.2094 </r>
       <r>     2.0938     8.5464   138.6647 </r>
       <r>     2.2067     5.9383   139.6103 </r>
       <r>     2.3196     4.8687   140.3296 </r>
       <r>     2.4325     5.6478   141.2975 </r>
       <r>     2.5453    10.4984   143.2250 </r>
       <r>     2.6582     3.3358   143.7765 </r>
       <r>     2.7711     1.3614   143.9737 </r>
       <r>     2.8840     0.0000   144.0000 </r>
       <r>     2.9968     0.0000   144.0000 </r>
       <r>     3.1097     0.0000   144.0000 </r>
       <r>     3.2226     4.3393   144.4898 </r>
       <r>     3.3355     2.2370   145.3125 </r>
       <r>     3.4483     5.0430   146.3492 </r>
       <r>     3.5612     8.1374   147.6585 </r>
       <r>     3.6741     6.9773   148.7676 </r>
       <r>     3.7870     6.2772   149.9485 </r>
       <r>     3.8998    10.7895   151.5779 </r>
       <r>     4.0127     9.9480   153.3229 </r>
       <r>     4.1256     3.5327   154.1588 </r>
       <r>     4.2385     8.2601   155.8324 </r>
       <r>     4.3513     4.9647   156.6004 </r>
       <r>     4.4642    13.1601   158.4654 </r>
       <r>     4.5771    11.3865   160.2652 </r>
       <r>     4.6900    12.2674   162.1247 </r>
       <r>     4.8028    11.6725   163.9975 </r>
       <r>     4.9157     9.5710   165.7003 </r>
       <r>     5.0286    13.9844   167.7185 </r>
       <r>     5.1415    16.9858   170.5173 </r>
       <r>     5.2543     8.8130   171.9148 </r>
       <r>     5.3672     8.8428   173.3581 </r>
       <r>     5.4801     7.0463   174.5153 </r>
       <r>     5.5929     5.8299   175.4581 </r>
       <r>     5.7058     2.8996   175.9073 </r>
       <r>     5.8187     0.3544   176.0000 </r>
       <r>     5.9316     0.0000   176.0000 </r>
       <r>     6.0444     0.0000   176.0000 </r>
       <r>     6.1573     0.0000   176.0000 </r>
       <r>     6.2702     0.0000   176.0000 </r>
       <r>     6.3831     0.0000   176.0000 </r>
       <r>     6.4959     0.0000   176.0000 </r>
       <r>     6.6088     0.0000   176.0000 </r>
       <r>     6.7217     0.0000   176.0000 </r>
       <r>     6.8346     0.0000   176.0000 </r>
       <r>     6.9474     0.0000   176.0000 </r>
       <r>     7.0603     0.0000   176.0000 </r>
       <r>     7.1732     0.0000   176.0000 </r>
       <r>     7.2861     0.0000   176.0000 </r>
      </set>
     </set>
    </array>
   </total>
  </dos>
 </calculation>
 <structure name="finalpos" >
  <crystal>
   <varray name="basis" >
    <v>       9.09164702       0.00000000       0.00000000 </v>
    <v>       0.00000000       6.83207265       0.00000000 </v>
    <v>       0.00000000       0.00000000      11.62987835 </v>
   </varray>
   <i name="volume">    722.38748611 </i>
   <varray name="rec_basis" >
    <v>       0.10999107       0.00000000       0.00000000 </v>
    <v>       0.00000000       0.14636847       0.00000000 </v>
    <v>       0.00000000       0.00000000       0.08598542 </v>
   </varray>
  </crystal>
  <varray name="positions" >
   <v>       0.01576865       0.25000000       0.69041695 </v>
   <v>       0.98423135       0.75000002       0.30958305 </v>
   <v>       0.48423135       0.75000002       0.19041689 </v>
   <v>       0.51576865       0.25000000       0.80958309 </v>
   <v>       0.15753874       0.75000002       0.90690976 </v>
   <v>       0.84246126       0.25000000       0.09309022 </v>
   <v>       0.34246126       0.25000000       0.40690984 </v>
   <v>       0.65753874       0.75000002       0.59309020 </v>
   <v>       0.19042122       0.06020911       0.15018041 </v>
   <v>       0.80957878       0.93979088       0.84981957 </v>
   <v>       0.30957878       0.93979088       0.65018043 </v>
   <v>       0.69042122       0.06020911       0.34981957 </v>
   <v>       0.80957878       0.56020912       0.84981957 </v>
   <v>       0.19042122       0.43979088       0.15018041 </v>
   <v>       0.69042122       0.43979088       0.34981957 </v>
   <v>       0.30957878       0.56020912       0.65018043 </v>
   <v>       0.07195076       0.75000002       0.59418046 </v>
   <v>       0.92804922       0.25000000       0.40581954 </v>
   <v>       0.42804925       0.25000000       0.09418040 </v>
   <v>       0.57195078       0.75000002       0.90581958 </v>
   <v>       0.19314538       0.25000000       0.95737625 </v>
   <v>       0.80685461       0.75000002       0.04262376 </v>
   <v>       0.30685461       0.75000002       0.45737617 </v>
   <v>       0.69314539       0.25000000       0.54262375 </v>
  </varray>
 </structure>
</modeling>
