<?xml version="1.0" encoding="ISO-8859-1"?>
<modeling>
 <generator>
  <i name="program" type="string">vasp </i>
  <i name="version" type="string">5.4.4.18Apr17-6-g9f103f2a35  </i>
  <i name="subversion" type="string">(build Nov 21 2017 15:30:27) complex            parallel </i>
  <i name="platform" type="string">LinuxIFC </i>
  <i name="date" type="string">2021 03 17 </i>
  <i name="time" type="string">15:59:34 </i>
 </generator>
 <incar>
  <i type="string" name="PREC">normal</i>
  <i type="int" name="ICHARG">    11</i>
  <i type="int" name="NELM">   100</i>
  <i name="EDIFF">      0.00000100</i>
  <i name="EDIFFG">     -0.01000000</i>
  <i name="ENCUT">    500.00000000</i>
  <i name="POTIM">      0.30000000</i>
  <i type="string" name="LREAL"> Auto       ! Projection in reciprocal s</i>
  <i type="int" name="ISMEAR">     0</i>
  <i name="SIGMA">      0.01000000</i>
  <i type="logical" name="LWAVE"> T  </i>
  <i type="logical" name="LCHARG"> T  </i>
  <i type="logical" name="LASPH"> T  </i>
  <v type="int" name="KPOINT_BSE">    -1     0     0     0</v>
  <i type="int" name="NELM">   100</i>
  <i type="string" name="GGA"> MK</i>
  <i name="PARAM1">      0.12340000</i>
  <i name="PARAM2">      0.71135700</i>
  <i type="logical" name="LUSE_VDW"> T  </i>
  <i name="Zab_VDW">     -1.88670000</i>
  <i name="AGGAC">      0.00000000</i>
  <i type="logical" name="LASPH"> T  </i>
 </incar>
 <structure name="primitive_cell" >
  <crystal>
   <varray name="basis" >
    <v>      55.14001050       0.00000000       0.00000000 </v>
    <v>       0.00000000       6.68695909       0.00000000 </v>
    <v>       0.00000000       0.00000000      11.45163577 </v>
   </varray>
   <i name="volume">   4222.43562632 </i>
   <varray name="rec_basis" >
    <v>       0.01813565       0.00000000       0.00000000 </v>
    <v>       0.00000000       0.14954481       0.00000000 </v>
    <v>       0.00000000       0.00000000       0.08732377 </v>
   </varray>
  </crystal>
  <varray name="positions" >
   <v>       0.00590058       0.25000000      -0.29906566 </v>
   <v>       0.02959421       0.25000000      -0.03721723 </v>
   <v>       0.05039102      -0.42890077      -0.35801974 </v>
   <v>       0.05039102      -0.07109923      -0.35801974 </v>
   <v>       0.01205939      -0.24999998      -0.38199430 </v>
   <v>       0.03475414      -0.24999998      -0.08794855 </v>
   <v>       0.05604210       0.25000000       0.39563163 </v>
   <v>       0.08406976       0.25000000      -0.19130508 </v>
   <v>       0.04207385      -0.24999998       0.46160942 </v>
   <v>       0.02930286       0.42879156       0.14573670 </v>
   <v>       0.02930286       0.07120844       0.14573670 </v>
   <v>       0.06642279       0.25000000       0.08273716 </v>
   <v>       0.11268307       0.25000000      -0.46470374 </v>
   <v>       0.09578995      -0.24999998      -0.09084385 </v>
   <v>       0.10753471      -0.24999998      -0.40459749 </v>
   <v>       0.11202488       0.43072589       0.35296044 </v>
   <v>       0.11202488       0.06927411       0.35296044 </v>
   <v>       0.13192028      -0.43033449      -0.14590693 </v>
   <v>       0.13192028      -0.06966551      -0.14590693 </v>
   <v>       0.07662533      -0.24999998       0.19244293 </v>
   <v>       0.13545347       0.25000000       0.09318811 </v>
   <v>       0.14832439       0.25000000       0.40773748 </v>
   <v>       0.13075104      -0.24999998       0.03690763 </v>
   <v>       0.16494692       0.25000000      -0.30969377 </v>
   <v>       0.17576943      -0.24999998      -0.40859827 </v>
   <v>       0.15956084      -0.24999998       0.30853361 </v>
   <v>       0.19379167       0.25000000      -0.03596010 </v>
   <v>       0.18863522      -0.24999998      -0.09398086 </v>
   <v>       0.19309273       0.42998175       0.14602195 </v>
   <v>       0.19309273       0.07001824       0.14602195 </v>
   <v>       0.21219244      -0.43009749      -0.35439927 </v>
   <v>       0.21219244      -0.06990251      -0.35439927 </v>
   <v>       0.21154024      -0.24999998       0.46360179 </v>
   <v>       0.21726050       0.25000000       0.40496175 </v>
   <v>       0.22956277       0.25000000       0.09175416 </v>
   <v>       0.24583157       0.25000000      -0.19105339 </v>
   <v>       0.25686553      -0.24999998      -0.09175922 </v>
   <v>       0.24064052      -0.24999998       0.19088953 </v>
   <v>       0.26931198      -0.24999998      -0.40621811 </v>
   <v>       0.27498888       0.25000000      -0.46445804 </v>
   <v>       0.27438694       0.43006124       0.35342379 </v>
   <v>       0.27438694       0.06993875       0.35342379 </v>
   <v>       0.29325712      -0.43007069      -0.14647635 </v>
   <v>       0.29325712      -0.06992931      -0.14647635 </v>
   <v>      -0.28212232       0.25000000       0.11800563 </v>
   <v>       0.29265365      -0.24999998       0.03567365 </v>
   <v>       0.29834834       0.25000000       0.09410010 </v>
   <v>      -0.27596351      -0.24999998       0.20093428 </v>
   <v>      -0.29936577      -0.42879156      -0.35426328 </v>
   <v>      -0.29936577      -0.07120844      -0.35426328 </v>
   <v>       0.31079095       0.25000000       0.40827821 </v>
   <v>      -0.29965713      -0.24999998       0.46278269 </v>
   <v>      -0.30481712       0.25000000       0.41205153 </v>
   <v>       0.32697171       0.25000000      -0.30903652 </v>
   <v>      -0.31213682       0.25000000      -0.03839050 </v>
   <v>       0.32183296      -0.24999998       0.30904755 </v>
   <v>       0.33800544      -0.24999998      -0.40833891 </v>
   <v>      -0.32045395       0.42890077       0.14198024 </v>
   <v>      -0.32045395       0.07109922       0.14198024 </v>
   <v>      -0.32610508      -0.24999998      -0.10436846 </v>
   <v>      -0.33648575      -0.24999998      -0.41726278 </v>
   <v>       0.35041118      -0.24999998      -0.09401275 </v>
   <v>      -0.34668830       0.25000000      -0.30755701 </v>
   <v>       0.35610980       0.25000000      -0.03560641 </v>
   <v>       0.35552876       0.43004061       0.14650254 </v>
   <v>       0.35552876       0.06995938       0.14650254 </v>
   <v>       0.37440830      -0.43004061      -0.35349743 </v>
   <v>       0.37440830      -0.06995939      -0.35349743 </v>
   <v>      -0.35413269      -0.24999998       0.30869488 </v>
   <v>       0.37382725      -0.24999998       0.46439351 </v>
   <v>      -0.36585289       0.25000000       0.40915611 </v>
   <v>       0.37952587       0.25000000       0.40598733 </v>
   <v>      -0.38208785      -0.43072589      -0.14703956 </v>
   <v>      -0.38208785      -0.06927411      -0.14703956 </v>
   <v>      -0.37759762       0.25000000       0.09540253 </v>
   <v>       0.39193164       0.25000000       0.09166103 </v>
   <v>      -0.38274600      -0.24999998       0.03529628 </v>
   <v>       0.40810406       0.25000000      -0.19095241 </v>
   <v>      -0.40081401       0.25000000      -0.46309238 </v>
   <v>       0.40296534      -0.24999998       0.19096342 </v>
   <v>      -0.40198320       0.43033449       0.35409307 </v>
   <v>      -0.40198320       0.06966550       0.35409307 </v>
   <v>      -0.40551639      -0.24999998      -0.40681191 </v>
   <v>       0.41914610      -0.24999998      -0.09172175 </v>
   <v>       0.43158871      -0.24999998      -0.40589992 </v>
   <v>      -0.41838729      -0.24999998      -0.09226247 </v>
   <v>       0.43728340       0.25000000      -0.46432636 </v>
   <v>      -0.42962377       0.25000000      -0.19146635 </v>
   <v>       0.43667993       0.43007069       0.35352365 </v>
   <v>       0.43667993       0.06992930       0.35352365 </v>
   <v>       0.45555013      -0.43006124      -0.14657621 </v>
   <v>       0.45555013      -0.06993876      -0.14657621 </v>
   <v>      -0.43500981      -0.24999998       0.19030617 </v>
   <v>       0.45494821      -0.24999998       0.03554197 </v>
   <v>      -0.44583233       0.25000000       0.09140167 </v>
   <v>       0.46062508       0.25000000       0.09378191 </v>
   <v>      -0.45869816       0.25000000       0.40601922 </v>
   <v>      -0.46315563      -0.42998175      -0.35397803 </v>
   <v>      -0.46315563      -0.07001825      -0.35397803 </v>
   <v>       0.47307154       0.25000000       0.40824074 </v>
   <v>      -0.46385459      -0.24999998       0.46403982 </v>
   <v>       0.48929657       0.25000000      -0.30911041 </v>
   <v>       0.48410550      -0.24999998       0.30894657 </v>
   <v>      -0.48160317       0.25000000      -0.03639813 </v>
   <v>      -0.48225536       0.43009749       0.14560071 </v>
   <v>      -0.48225536       0.06990250       0.14560071 </v>
   <v>      -0.49962569      -0.24999998      -0.40824578 </v>
   <v>      -0.48732345      -0.24999998      -0.09503833 </v>
  </varray>
 </structure>
 <varray name="primitive_index" >
  <v type="int" >        1 </v>
  <v type="int" >       91 </v>
  <v type="int" >       68 </v>
  <v type="int" >       46 </v>
  <v type="int" >       73 </v>
  <v type="int" >       19 </v>
  <v type="int" >       28 </v>
  <v type="int" >       15 </v>
  <v type="int" >      100 </v>
  <v type="int" >       59 </v>
  <v type="int" >       37 </v>
  <v type="int" >       82 </v>
  <v type="int" >      105 </v>
  <v type="int" >       87 </v>
  <v type="int" >       33 </v>
  <v type="int" >       64 </v>
  <v type="int" >       51 </v>
  <v type="int" >       55 </v>
  <v type="int" >       42 </v>
  <v type="int" >       10 </v>
  <v type="int" >       24 </v>
  <v type="int" >       78 </v>
  <v type="int" >       96 </v>
  <v type="int" >        2 </v>
  <v type="int" >       74 </v>
  <v type="int" >        6 </v>
  <v type="int" >       92 </v>
  <v type="int" >       20 </v>
  <v type="int" >       60 </v>
  <v type="int" >       38 </v>
  <v type="int" >       69 </v>
  <v type="int" >       47 </v>
  <v type="int" >      101 </v>
  <v type="int" >       29 </v>
  <v type="int" >       83 </v>
  <v type="int" >       16 </v>
  <v type="int" >       88 </v>
  <v type="int" >       11 </v>
  <v type="int" >       34 </v>
  <v type="int" >      106 </v>
  <v type="int" >       65 </v>
  <v type="int" >       52 </v>
  <v type="int" >       56 </v>
  <v type="int" >       43 </v>
  <v type="int" >       86 </v>
  <v type="int" >       97 </v>
  <v type="int" >       25 </v>
  <v type="int" >       14 </v>
  <v type="int" >       72 </v>
  <v type="int" >       50 </v>
  <v type="int" >       79 </v>
  <v type="int" >      104 </v>
  <v type="int" >       32 </v>
  <v type="int" >        3 </v>
  <v type="int" >       95 </v>
  <v type="int" >        7 </v>
  <v type="int" >       75 </v>
  <v type="int" >       63 </v>
  <v type="int" >       41 </v>
  <v type="int" >       23 </v>
  <v type="int" >       77 </v>
  <v type="int" >       21 </v>
  <v type="int" >        5 </v>
  <v type="int" >       93 </v>
  <v type="int" >       61 </v>
  <v type="int" >       39 </v>
  <v type="int" >       70 </v>
  <v type="int" >       48 </v>
  <v type="int" >        9 </v>
  <v type="int" >      102 </v>
  <v type="int" >       81 </v>
  <v type="int" >       30 </v>
  <v type="int" >       58 </v>
  <v type="int" >       45 </v>
  <v type="int" >       27 </v>
  <v type="int" >       84 </v>
  <v type="int" >       99 </v>
  <v type="int" >       17 </v>
  <v type="int" >      108 </v>
  <v type="int" >       12 </v>
  <v type="int" >       67 </v>
  <v type="int" >       54 </v>
  <v type="int" >       36 </v>
  <v type="int" >       89 </v>
  <v type="int" >       35 </v>
  <v type="int" >       90 </v>
  <v type="int" >      107 </v>
  <v type="int" >       18 </v>
  <v type="int" >       66 </v>
  <v type="int" >       53 </v>
  <v type="int" >       57 </v>
  <v type="int" >       44 </v>
  <v type="int" >       13 </v>
  <v type="int" >       98 </v>
  <v type="int" >       85 </v>
  <v type="int" >       26 </v>
  <v type="int" >       31 </v>
  <v type="int" >       71 </v>
  <v type="int" >       49 </v>
  <v type="int" >       80 </v>
  <v type="int" >      103 </v>
  <v type="int" >        4 </v>
  <v type="int" >        8 </v>
  <v type="int" >       94 </v>
  <v type="int" >       62 </v>
  <v type="int" >       40 </v>
  <v type="int" >       76 </v>
  <v type="int" >       22 </v>
 </varray>
 <kpoints>
  <generation param="listgenerated">
   <i name="divisions" type="int">      20 </i>
   <v>       0.00000000       0.00000000       0.00000000 </v>
   <v>       0.00000000       0.50000000       0.00000000 </v>
   <v>       0.00000000       0.50000000       0.50000000 </v>
   <v>       0.00000000       0.00000000       0.50000000 </v>
   <v>       0.00000000       0.00000000       0.00000000 </v>
  </generation>
  <varray name="kpointlist" >
   <v>       0.00000000       0.00000000       0.00000000 </v>
   <v>       0.00000000       0.02631579       0.00000000 </v>
   <v>       0.00000000       0.05263158       0.00000000 </v>
   <v>       0.00000000       0.07894737       0.00000000 </v>
   <v>       0.00000000       0.10526316       0.00000000 </v>
   <v>       0.00000000       0.13157895       0.00000000 </v>
   <v>       0.00000000       0.15789474       0.00000000 </v>
   <v>       0.00000000       0.18421053       0.00000000 </v>
   <v>       0.00000000       0.21052632       0.00000000 </v>
   <v>       0.00000000       0.23684211       0.00000000 </v>
   <v>       0.00000000       0.26315789       0.00000000 </v>
   <v>       0.00000000       0.28947368       0.00000000 </v>
   <v>       0.00000000       0.31578947       0.00000000 </v>
   <v>       0.00000000       0.34210526       0.00000000 </v>
   <v>       0.00000000       0.36842105       0.00000000 </v>
   <v>       0.00000000       0.39473684       0.00000000 </v>
   <v>       0.00000000       0.42105263       0.00000000 </v>
   <v>       0.00000000       0.44736842       0.00000000 </v>
   <v>       0.00000000       0.47368421       0.00000000 </v>
   <v>       0.00000000       0.50000000       0.00000000 </v>
   <v>       0.00000000       0.50000000       0.00000000 </v>
   <v>       0.00000000       0.50000000       0.02631579 </v>
   <v>       0.00000000       0.50000000       0.05263158 </v>
   <v>       0.00000000       0.50000000       0.07894737 </v>
   <v>       0.00000000       0.50000000       0.10526316 </v>
   <v>       0.00000000       0.50000000       0.13157895 </v>
   <v>       0.00000000       0.50000000       0.15789474 </v>
   <v>       0.00000000       0.50000000       0.18421053 </v>
   <v>       0.00000000       0.50000000       0.21052632 </v>
   <v>       0.00000000       0.50000000       0.23684211 </v>
   <v>       0.00000000       0.50000000       0.26315789 </v>
   <v>       0.00000000       0.50000000       0.28947368 </v>
   <v>       0.00000000       0.50000000       0.31578947 </v>
   <v>       0.00000000       0.50000000       0.34210526 </v>
   <v>       0.00000000       0.50000000       0.36842105 </v>
   <v>       0.00000000       0.50000000       0.39473684 </v>
   <v>       0.00000000       0.50000000       0.42105263 </v>
   <v>       0.00000000       0.50000000       0.44736842 </v>
   <v>       0.00000000       0.50000000       0.47368421 </v>
   <v>       0.00000000       0.50000000       0.50000000 </v>
   <v>       0.00000000       0.50000000       0.50000000 </v>
   <v>       0.00000000       0.47368421       0.50000000 </v>
   <v>       0.00000000       0.44736842       0.50000000 </v>
   <v>       0.00000000       0.42105263       0.50000000 </v>
   <v>       0.00000000       0.39473684       0.50000000 </v>
   <v>       0.00000000       0.36842105       0.50000000 </v>
   <v>       0.00000000       0.34210526       0.50000000 </v>
   <v>       0.00000000       0.31578947       0.50000000 </v>
   <v>       0.00000000       0.28947368       0.50000000 </v>
   <v>       0.00000000       0.26315789       0.50000000 </v>
   <v>       0.00000000       0.23684211       0.50000000 </v>
   <v>       0.00000000       0.21052632       0.50000000 </v>
   <v>       0.00000000       0.18421053       0.50000000 </v>
   <v>       0.00000000       0.15789474       0.50000000 </v>
   <v>       0.00000000       0.13157895       0.50000000 </v>
   <v>       0.00000000       0.10526316       0.50000000 </v>
   <v>       0.00000000       0.07894737       0.50000000 </v>
   <v>       0.00000000       0.05263158       0.50000000 </v>
   <v>       0.00000000       0.02631579       0.50000000 </v>
   <v>       0.00000000       0.00000000       0.50000000 </v>
   <v>       0.00000000       0.00000000       0.50000000 </v>
   <v>       0.00000000       0.00000000       0.47368421 </v>
   <v>       0.00000000       0.00000000       0.44736842 </v>
   <v>       0.00000000       0.00000000       0.42105263 </v>
   <v>       0.00000000       0.00000000       0.39473684 </v>
   <v>       0.00000000       0.00000000       0.36842105 </v>
   <v>       0.00000000       0.00000000       0.34210526 </v>
   <v>       0.00000000       0.00000000       0.31578947 </v>
   <v>       0.00000000       0.00000000       0.28947368 </v>
   <v>       0.00000000       0.00000000       0.26315789 </v>
   <v>       0.00000000       0.00000000       0.23684211 </v>
   <v>       0.00000000       0.00000000       0.21052632 </v>
   <v>       0.00000000       0.00000000       0.18421053 </v>
   <v>       0.00000000       0.00000000       0.15789474 </v>
   <v>       0.00000000       0.00000000       0.13157895 </v>
   <v>       0.00000000       0.00000000       0.10526316 </v>
   <v>       0.00000000       0.00000000       0.07894737 </v>
   <v>       0.00000000       0.00000000       0.05263158 </v>
   <v>       0.00000000       0.00000000       0.02631579 </v>
   <v>       0.00000000       0.00000000       0.00000000 </v>
  </varray>
  <varray name="weights" >
   <v>       0.01250000 </v>
   <v>       0.01250000 </v>
   <v>       0.01250000 </v>
   <v>       0.01250000 </v>
   <v>       0.01250000 </v>
   <v>       0.01250000 </v>
   <v>       0.01250000 </v>
   <v>       0.01250000 </v>
   <v>       0.01250000 </v>
   <v>       0.01250000 </v>
   <v>       0.01250000 </v>
   <v>       0.01250000 </v>
   <v>       0.01250000 </v>
   <v>       0.01250000 </v>
   <v>       0.01250000 </v>
   <v>       0.01250000 </v>
   <v>       0.01250000 </v>
   <v>       0.01250000 </v>
   <v>       0.01250000 </v>
   <v>       0.01250000 </v>
   <v>       0.01250000 </v>
   <v>       0.01250000 </v>
   <v>       0.01250000 </v>
   <v>       0.01250000 </v>
   <v>       0.01250000 </v>
   <v>       0.01250000 </v>
   <v>       0.01250000 </v>
   <v>       0.01250000 </v>
   <v>       0.01250000 </v>
   <v>       0.01250000 </v>
   <v>       0.01250000 </v>
   <v>       0.01250000 </v>
   <v>       0.01250000 </v>
   <v>       0.01250000 </v>
   <v>       0.01250000 </v>
   <v>       0.01250000 </v>
   <v>       0.01250000 </v>
   <v>       0.01250000 </v>
   <v>       0.01250000 </v>
   <v>       0.01250000 </v>
   <v>       0.01250000 </v>
   <v>       0.01250000 </v>
   <v>       0.01250000 </v>
   <v>       0.01250000 </v>
   <v>       0.01250000 </v>
   <v>       0.01250000 </v>
   <v>       0.01250000 </v>
   <v>       0.01250000 </v>
   <v>       0.01250000 </v>
   <v>       0.01250000 </v>
   <v>       0.01250000 </v>
   <v>       0.01250000 </v>
   <v>       0.01250000 </v>
   <v>       0.01250000 </v>
   <v>       0.01250000 </v>
   <v>       0.01250000 </v>
   <v>       0.01250000 </v>
   <v>       0.01250000 </v>
   <v>       0.01250000 </v>
   <v>       0.01250000 </v>
   <v>       0.01250000 </v>
   <v>       0.01250000 </v>
   <v>       0.01250000 </v>
   <v>       0.01250000 </v>
   <v>       0.01250000 </v>
   <v>       0.01250000 </v>
   <v>       0.01250000 </v>
   <v>       0.01250000 </v>
   <v>       0.01250000 </v>
   <v>       0.01250000 </v>
   <v>       0.01250000 </v>
   <v>       0.01250000 </v>
   <v>       0.01250000 </v>
   <v>       0.01250000 </v>
   <v>       0.01250000 </v>
   <v>       0.01250000 </v>
   <v>       0.01250000 </v>
   <v>       0.01250000 </v>
   <v>       0.01250000 </v>
   <v>       0.01250000 </v>
  </varray>
 </kpoints>
 <parameters>
  <separator name="general" >
   <i type="string" name="SYSTEM">unknown system</i>
   <i type="logical" name="LCOMPAT"> F  </i>
  </separator>
  <separator name="electronic" >
   <i type="string" name="PREC">normal</i>
   <i name="ENMAX">    500.00000000</i>
   <i name="ENAUG">    351.16500000</i>
   <i name="EDIFF">      0.00000100</i>
   <i type="int" name="IALGO">    38</i>
   <i type="int" name="IWAVPR">    10</i>
   <i type="int" name="NBANDS">   392</i>
   <i name="NELECT">    648.00000000</i>
   <i type="int" name="TURBO">     0</i>
   <i type="int" name="IRESTART">     0</i>
   <i type="int" name="NREBOOT">     0</i>
   <i type="int" name="NMIN">     0</i>
   <i name="EREF">      0.00000000</i>
   <separator name="electronic smearing" >
    <i type="int" name="ISMEAR">     0</i>
    <i name="SIGMA">      0.01000000</i>
    <i name="KSPACING">      0.50000000</i>
    <i type="logical" name="KGAMMA"> T  </i>
   </separator>
   <separator name="electronic projectors" >
    <i type="logical" name="LREAL"> T  </i>
    <v name="ROPT">     -0.00050000     -0.00050000</v>
    <i type="int" name="LMAXPAW">  -100</i>
    <i type="int" name="LMAXMIX">     2</i>
    <i type="logical" name="NLSPLINE"> F  </i>
   </separator>
   <separator name="electronic startup" >
    <i type="int" name="ISTART">     0</i>
    <i type="int" name="ICHARG">    11</i>
    <i type="int" name="INIWAV">     1</i>
   </separator>
   <separator name="electronic spin" >
    <i type="int" name="ISPIN">     1</i>
    <i type="logical" name="LNONCOLLINEAR"> F  </i>
    <v name="MAGMOM">      1.00000000      1.00000000      1.00000000      1.00000000      1.00000000      1.00000000      1.00000000      1.00000000      1.00000000      1.00000000      1.00000000      1.00000000      1.00000000      1.00000000      1.00000000      1.00000000      1.00000000      1.00000000      1.00000000      1.00000000
      1.00000000      1.00000000      1.00000000      1.00000000      1.00000000      1.00000000      1.00000000      1.00000000      1.00000000      1.00000000      1.00000000      1.00000000      1.00000000      1.00000000      1.00000000      1.00000000      1.00000000      1.00000000      1.00000000      1.00000000
      1.00000000      1.00000000      1.00000000      1.00000000      1.00000000      1.00000000      1.00000000      1.00000000      1.00000000      1.00000000      1.00000000      1.00000000      1.00000000      1.00000000      1.00000000      1.00000000      1.00000000      1.00000000      1.00000000      1.00000000
      1.00000000      1.00000000      1.00000000      1.00000000      1.00000000      1.00000000      1.00000000      1.00000000      1.00000000      1.00000000      1.00000000      1.00000000      1.00000000      1.00000000      1.00000000      1.00000000      1.00000000      1.00000000      1.00000000      1.00000000
      1.00000000      1.00000000      1.00000000      1.00000000      1.00000000      1.00000000      1.00000000      1.00000000      1.00000000      1.00000000      1.00000000      1.00000000      1.00000000      1.00000000      1.00000000      1.00000000      1.00000000      1.00000000      1.00000000      1.00000000
      1.00000000      1.00000000      1.00000000      1.00000000      1.00000000      1.00000000      1.00000000      1.00000000</v>
    <i name="NUPDOWN">     -1.00000000</i>
    <i type="logical" name="LSORBIT"> F  </i>
    <v name="SAXIS">      0.00000000      0.00000000      1.00000000</v>
    <i type="logical" name="LSPIRAL"> F  </i>
    <v name="QSPIRAL">      0.00000000      0.00000000      0.00000000</v>
    <i type="logical" name="LZEROZ"> F  </i>
   </separator>
   <separator name="electronic exchange-correlation" >
    <i type="logical" name="LASPH"> T  </i>
    <i type="logical" name="LMETAGGA"> F  </i>
   </separator>
   <separator name="electronic convergence" >
    <i type="int" name="NELM">   100</i>
    <i type="int" name="NELMDL">    -5</i>
    <i type="int" name="NELMIN">     2</i>
    <i name="ENINI">    500.00000000</i>
    <separator name="electronic convergence detail" >
     <i type="logical" name="LDIAG"> T  </i>
     <i type="logical" name="LSUBROT"> F  </i>
     <i name="WEIMIN">      0.00000000</i>
     <i name="EBREAK">      0.00000000</i>
     <i name="DEPER">      0.30000000</i>
     <i type="int" name="NRMM">     4</i>
     <i name="TIME">      0.40000000</i>
    </separator>
   </separator>
   <separator name="electronic mixer" >
    <i name="AMIX">      0.40000000</i>
    <i name="BMIX">      1.00000000</i>
    <i name="AMIN">      0.10000000</i>
    <i name="AMIX_MAG">      1.60000000</i>
    <i name="BMIX_MAG">      1.00000000</i>
    <separator name="electronic mixer details" >
     <i type="int" name="IMIX">     4</i>
     <i type="logical" name="MIXFIRST"> F  </i>
     <i type="int" name="MAXMIX">   -45</i>
     <i name="WC">    100.00000000</i>
     <i type="int" name="INIMIX">     1</i>
     <i type="int" name="MIXPRE">     1</i>
     <i type="int" name="MREMOVE">     5</i>
    </separator>
   </separator>
   <separator name="electronic dipolcorrection" >
    <i type="logical" name="LDIPOL"> F  </i>
    <i type="logical" name="LMONO"> F  </i>
    <i type="int" name="IDIPOL">     0</i>
    <i name="EPSILON">      1.00000000</i>
    <v name="DIPOL">   -100.00000000   -100.00000000   -100.00000000</v>
    <i name="EFIELD">      0.00000000</i>
   </separator>
  </separator>
  <separator name="grids" >
   <i type="int" name="NGX">   320</i>
   <i type="int" name="NGY">    40</i>
   <i type="int" name="NGZ">    64</i>
   <i type="int" name="NGXF">   640</i>
   <i type="int" name="NGYF">    80</i>
   <i type="int" name="NGZF">   128</i>
   <i type="logical" name="ADDGRID"> F  </i>
  </separator>
  <separator name="ionic" >
   <i type="int" name="NSW">     0</i>
   <i type="int" name="IBRION">    -1</i>
   <i type="int" name="MDALGO">     0</i>
   <i type="int" name="ISIF">     2</i>
   <i name="PSTRESS">      0.00000000</i>
   <i name="EDIFFG">     -0.01000000</i>
   <i type="int" name="NFREE">     0</i>
   <i name="POTIM">      0.30000000</i>
   <i name="SMASS">     -3.00000000</i>
   <i name="SCALEE">      1.00000000</i>
  </separator>
  <separator name="ionic md" >
   <i name="TEBEG">      0.00010000</i>
   <i name="TEEND">      0.00010000</i>
   <i type="int" name="NBLOCK">     1</i>
   <i type="int" name="KBLOCK">     1</i>
   <i type="int" name="NPACO">   256</i>
   <i name="APACO">     16.00000000</i>
  </separator>
  <separator name="symmetry" >
   <i type="int" name="ISYM">     2</i>
   <i name="SYMPREC">      0.00001000</i>
  </separator>
  <separator name="dos" >
   <i type="int" name="LORBIT">     0</i>
   <v name="RWIGS">     -1.00000000     -1.00000000</v>
   <i type="int" name="NEDOS">   301</i>
   <i name="EMIN">     10.00000000</i>
   <i name="EMAX">    -10.00000000</i>
   <i name="EFERMI">      0.00000000</i>
  </separator>
  <separator name="writing" >
   <i type="int" name="NWRITE">     2</i>
   <i type="logical" name="LWAVE"> T  </i>
   <i type="logical" name="LDOWNSAMPLE"> F  </i>
   <i type="logical" name="LCHARG"> T  </i>
   <i type="logical" name="LPARD"> F  </i>
   <i type="logical" name="LVTOT"> F  </i>
   <i type="logical" name="LVHAR"> F  </i>
   <i type="logical" name="LELF"> F  </i>
   <i type="logical" name="LOPTICS"> F  </i>
   <v name="STM">      0.00000000      0.00000000      0.00000000      0.00000000      0.00000000      0.00000000      0.00000000</v>
  </separator>
  <separator name="performance" >
   <i type="int" name="NPAR">     8</i>
   <i type="int" name="NSIM">     4</i>
   <i type="int" name="NBLK">    -1</i>
   <i type="logical" name="LPLANE"> T  </i>
   <i type="logical" name="LSCALAPACK"> T  </i>
   <i type="logical" name="LSCAAWARE"> F  </i>
   <i type="logical" name="LSCALU"> F  </i>
   <i type="logical" name="LASYNC"> F  </i>
   <i type="logical" name="LORBITALREAL"> F  </i>
  </separator>
  <separator name="miscellaneous" >
   <i type="int" name="IDIOT">     3</i>
   <i type="int" name="ISPECIAL">     0</i>
   <i type="logical" name="LMUSIC"> F  </i>
   <v name="POMASS">    137.32700000     28.08500000</v>
   <v name="DARWINR">      0.00000000      0.00000000</v>
   <v name="DARWINV">      1.00000000      1.00000000</v>
   <i type="logical" name="LCORR"> T  </i>
  </separator>
  <i type="logical" name="GGA_COMPAT"> T  </i>
  <i type="logical" name="LBERRY"> F  </i>
  <i type="int" name="ICORELEVEL">     0</i>
  <i type="logical" name="LDAU"> F  </i>
  <i type="int" name="I_CONSTRAINED_M">     0</i>
  <separator name="electronic exchange-correlation" >
   <i type="string" name="GGA">MK</i>
   <i type="int" name="VOSKOWN">     0</i>
   <i type="logical" name="LHFCALC"> F  </i>
   <i type="string" name="PRECFOCK"></i>
   <i type="logical" name="LSYMGRAD"> F  </i>
   <i type="logical" name="LHFONE"> F  </i>
   <i type="logical" name="LRHFCALC"> F  </i>
   <i type="logical" name="LTHOMAS"> F  </i>
   <i type="logical" name="LMODELHF"> F  </i>
   <i name="ENCUT4O">     -1.00000000</i>
   <i type="int" name="EXXOEP">     0</i>
   <i type="int" name="FOURORBIT">     0</i>
   <i name="AEXX">      0.00000000</i>
   <i name="HFALPHA">      0.00000000</i>
   <i name="MCALPHA">      0.00000000</i>
   <i name="ALDAX">      1.00000000</i>
   <i name="AGGAX">      1.00000000</i>
   <i name="ALDAC">      1.00000000</i>
   <i name="AGGAC">      0.00000000</i>
   <i type="int" name="NKREDX">     1</i>
   <i type="int" name="NKREDY">     1</i>
   <i type="int" name="NKREDZ">     1</i>
   <i type="logical" name="SHIFTRED"> F  </i>
   <i type="logical" name="ODDONLY"> F  </i>
   <i type="logical" name="EVENONLY"> F  </i>
   <i type="int" name="LMAXFOCK">     0</i>
   <i type="int" name="NMAXFOCKAE">     0</i>
   <i type="logical" name="LFOCKAEDFT"> F  </i>
   <i name="HFSCREEN">      0.00000000</i>
   <i name="HFSCREENC">      0.00000000</i>
   <i type="int" name="NBANDSGWLOW">     0</i>
  </separator>
  <separator name="vdW DFT" >
   <i type="logical" name="LUSE_VDW"> T  </i>
   <i name="Zab_VDW">     -1.88670000</i>
   <i name="PARAM1">      0.12340000</i>
   <i name="PARAM2">      0.71135700</i>
   <i name="PARAM3">      0.00000000</i>
  </separator>
  <separator name="model GW" >
   <i type="int" name="MODEL_GW">     0</i>
   <i name="MODEL_EPS0">     23.45797570</i>
   <i name="MODEL_ALPHA">      1.00000000</i>
  </separator>
  <separator name="linear response parameters" >
   <i type="logical" name="LEPSILON"> F  </i>
   <i type="logical" name="LRPA"> F  </i>
   <i type="logical" name="LNABLA"> F  </i>
   <i type="logical" name="LVEL"> F  </i>
   <i type="int" name="KINTER">     0</i>
   <i name="CSHIFT">      0.10000000</i>
   <i name="OMEGAMAX">     -1.00000000</i>
   <i name="DEG_THRESHOLD">      0.00200000</i>
   <i name="RTIME">     -0.10000000</i>
   <i name="WPLASMAI">      0.00000000</i>
   <v name="DFIELD">      0.00000000      0.00000000      0.00000000</v>
   <v name="WPLASMA">      0.00000000      0.00000000      0.00000000      0.00000000      0.00000000      0.00000000      0.00000000      0.00000000      0.00000000</v>
  </separator>
  <separator name="orbital magnetization" >
   <i type="logical" name="NUCIND"> F  </i>
   <v name="MAGPOS">      0.00000000      0.00000000      0.00000000</v>
   <i type="logical" name="LNICSALL"> T  </i>
   <i type="logical" name="ORBITALMAG"> F  </i>
   <i type="logical" name="LMAGBLOCH"> F  </i>
   <i type="logical" name="LCHIMAG"> F  </i>
   <i type="logical" name="LGAUGE"> T  </i>
   <i type="int" name="MAGATOM">     0</i>
   <v name="MAGDIPOL">      0.00000000      0.00000000      0.00000000</v>
   <v name="AVECCONST">      0.00000000      0.00000000      0.00000000</v>
  </separator>
  <separator name="response functions" >
   <i type="logical" name="LADDER"> F  </i>
   <i type="logical" name="LRPAFORCE"> F  </i>
   <i type="logical" name="LFXC"> F  </i>
   <i type="logical" name="LHARTREE"> T  </i>
   <i type="int" name="IBSE">     0</i>
   <v type="int" name="KPOINT">    -1     0     0     0</v>
   <i type="logical" name="LTCTE"> F  </i>
   <i type="logical" name="LTETE"> F  </i>
   <i type="logical" name="LTRIPLET"> F  </i>
   <i type="logical" name="LFXCEPS"> F  </i>
   <i type="logical" name="LFXHEG"> F  </i>
   <i type="int" name="NATURALO">     2</i>
   <i type="logical" name="L2ORDER"> F  </i>
   <i type="logical" name="LMP2LT"> F  </i>
   <i type="logical" name="LUSEW"> F  </i>
   <i name="ENCUTGW">     -2.00000000</i>
   <i name="ENCUTGWSOFT">     -2.00000000</i>
   <i name="ENCUTLF">     -1.00000000</i>
   <i type="int" name="LMAXMP2">    -1</i>
   <i name="SCISSOR">      0.00000000</i>
   <i type="int" name="NOMEGA">     0</i>
   <i type="int" name="NOMEGAR">     0</i>
   <i type="int" name="NBANDSGW">    -1</i>
   <i type="int" name="NBANDSO">    -1</i>
   <i type="int" name="NBANDSV">    -1</i>
   <i type="int" name="NELM">   100</i>
   <i type="int" name="NELMHF">     1</i>
   <i type="int" name="DIM">     3</i>
   <i type="int" name="ANTIRES">     0</i>
   <i name="OMEGAMAX">    -30.00000000</i>
   <i name="OMEGAMIN">    -30.00000000</i>
   <i name="OMEGATL">   -200.00000000</i>
   <i type="int" name="OMEGAGRID">   140</i>
   <i name="CSHIFT">     -0.10000000</i>
   <i type="logical" name="SELFENERGY"> F  </i>
   <i type="logical" name="LSPECTRAL"> F  </i>
   <i type="logical" name="LSPECTRALGW"> F  </i>
   <i type="logical" name="LSINGLES"> F  </i>
   <i type="logical" name="LFERMIGW"> F  </i>
   <i type="logical" name="ODDONLYGW"> F  </i>
   <i type="logical" name="EVENONLYGW"> F  </i>
   <i type="int" name="NKREDLFX">     1</i>
   <i type="int" name="NKREDLFY">     1</i>
   <i type="int" name="NKREDLFZ">     1</i>
   <i type="int" name="MAXMEM">  2800</i>
   <i type="int" name="TELESCOPE">     0</i>
   <i type="int" name="TAUPAR">     1</i>
   <i type="int" name="OMEGAPAR">    -1</i>
   <i name="LAMBDA">      1.00000000</i>
  </separator>
  <separator name="External order field" >
   <i name="OFIELD_KAPPA">      0.00000000</i>
   <v name="OFIELD_K">      0.00000000      0.00000000      0.00000000</v>
   <i name="OFIELD_Q6_NEAR">      0.00000000</i>
   <i name="OFIELD_Q6_FAR">      0.00000000</i>
   <i name="OFIELD_A">      0.00000000</i>
  </separator>
 </parameters>
 <atominfo>
  <atoms>     108 </atoms>
  <types>       2 </types>
  <array name="atoms" >
   <dimension dim="1">ion</dimension>
   <field type="string">element</field>
   <field type="int">atomtype</field>
   <set>
    <rc><c>Ba</c><c>   1</c></rc>
    <rc><c>Ba</c><c>   1</c></rc>
    <rc><c>Ba</c><c>   1</c></rc>
    <rc><c>Ba</c><c>   1</c></rc>
    <rc><c>Ba</c><c>   1</c></rc>
    <rc><c>Ba</c><c>   1</c></rc>
    <rc><c>Ba</c><c>   1</c></rc>
    <rc><c>Ba</c><c>   1</c></rc>
    <rc><c>Ba</c><c>   1</c></rc>
    <rc><c>Ba</c><c>   1</c></rc>
    <rc><c>Ba</c><c>   1</c></rc>
    <rc><c>Ba</c><c>   1</c></rc>
    <rc><c>Ba</c><c>   1</c></rc>
    <rc><c>Ba</c><c>   1</c></rc>
    <rc><c>Ba</c><c>   1</c></rc>
    <rc><c>Ba</c><c>   1</c></rc>
    <rc><c>Ba</c><c>   1</c></rc>
    <rc><c>Ba</c><c>   1</c></rc>
    <rc><c>Ba</c><c>   1</c></rc>
    <rc><c>Ba</c><c>   1</c></rc>
    <rc><c>Ba</c><c>   1</c></rc>
    <rc><c>Ba</c><c>   1</c></rc>
    <rc><c>Ba</c><c>   1</c></rc>
    <rc><c>Ba</c><c>   1</c></rc>
    <rc><c>Ba</c><c>   1</c></rc>
    <rc><c>Ba</c><c>   1</c></rc>
    <rc><c>Ba</c><c>   1</c></rc>
    <rc><c>Ba</c><c>   1</c></rc>
    <rc><c>Ba</c><c>   1</c></rc>
    <rc><c>Ba</c><c>   1</c></rc>
    <rc><c>Ba</c><c>   1</c></rc>
    <rc><c>Ba</c><c>   1</c></rc>
    <rc><c>Ba</c><c>   1</c></rc>
    <rc><c>Ba</c><c>   1</c></rc>
    <rc><c>Ba</c><c>   1</c></rc>
    <rc><c>Ba</c><c>   1</c></rc>
    <rc><c>Si</c><c>   2</c></rc>
    <rc><c>Si</c><c>   2</c></rc>
    <rc><c>Si</c><c>   2</c></rc>
    <rc><c>Si</c><c>   2</c></rc>
    <rc><c>Si</c><c>   2</c></rc>
    <rc><c>Si</c><c>   2</c></rc>
    <rc><c>Si</c><c>   2</c></rc>
    <rc><c>Si</c><c>   2</c></rc>
    <rc><c>Si</c><c>   2</c></rc>
    <rc><c>Si</c><c>   2</c></rc>
    <rc><c>Si</c><c>   2</c></rc>
    <rc><c>Si</c><c>   2</c></rc>
    <rc><c>Si</c><c>   2</c></rc>
    <rc><c>Si</c><c>   2</c></rc>
    <rc><c>Si</c><c>   2</c></rc>
    <rc><c>Si</c><c>   2</c></rc>
    <rc><c>Si</c><c>   2</c></rc>
    <rc><c>Si</c><c>   2</c></rc>
    <rc><c>Si</c><c>   2</c></rc>
    <rc><c>Si</c><c>   2</c></rc>
    <rc><c>Si</c><c>   2</c></rc>
    <rc><c>Si</c><c>   2</c></rc>
    <rc><c>Si</c><c>   2</c></rc>
    <rc><c>Si</c><c>   2</c></rc>
    <rc><c>Si</c><c>   2</c></rc>
    <rc><c>Si</c><c>   2</c></rc>
    <rc><c>Si</c><c>   2</c></rc>
    <rc><c>Si</c><c>   2</c></rc>
    <rc><c>Si</c><c>   2</c></rc>
    <rc><c>Si</c><c>   2</c></rc>
    <rc><c>Si</c><c>   2</c></rc>
    <rc><c>Si</c><c>   2</c></rc>
    <rc><c>Si</c><c>   2</c></rc>
    <rc><c>Si</c><c>   2</c></rc>
    <rc><c>Si</c><c>   2</c></rc>
    <rc><c>Si</c><c>   2</c></rc>
    <rc><c>Si</c><c>   2</c></rc>
    <rc><c>Si</c><c>   2</c></rc>
    <rc><c>Si</c><c>   2</c></rc>
    <rc><c>Si</c><c>   2</c></rc>
    <rc><c>Si</c><c>   2</c></rc>
    <rc><c>Si</c><c>   2</c></rc>
    <rc><c>Si</c><c>   2</c></rc>
    <rc><c>Si</c><c>   2</c></rc>
    <rc><c>Si</c><c>   2</c></rc>
    <rc><c>Si</c><c>   2</c></rc>
    <rc><c>Si</c><c>   2</c></rc>
    <rc><c>Si</c><c>   2</c></rc>
    <rc><c>Si</c><c>   2</c></rc>
    <rc><c>Si</c><c>   2</c></rc>
    <rc><c>Si</c><c>   2</c></rc>
    <rc><c>Si</c><c>   2</c></rc>
    <rc><c>Si</c><c>   2</c></rc>
    <rc><c>Si</c><c>   2</c></rc>
    <rc><c>Si</c><c>   2</c></rc>
    <rc><c>Si</c><c>   2</c></rc>
    <rc><c>Si</c><c>   2</c></rc>
    <rc><c>Si</c><c>   2</c></rc>
    <rc><c>Si</c><c>   2</c></rc>
    <rc><c>Si</c><c>   2</c></rc>
    <rc><c>Si</c><c>   2</c></rc>
    <rc><c>Si</c><c>   2</c></rc>
    <rc><c>Si</c><c>   2</c></rc>
    <rc><c>Si</c><c>   2</c></rc>
    <rc><c>Si</c><c>   2</c></rc>
    <rc><c>Si</c><c>   2</c></rc>
    <rc><c>Si</c><c>   2</c></rc>
    <rc><c>Si</c><c>   2</c></rc>
    <rc><c>Si</c><c>   2</c></rc>
    <rc><c>Si</c><c>   2</c></rc>
    <rc><c>Si</c><c>   2</c></rc>
    <rc><c>Si</c><c>   2</c></rc>
   </set>
  </array>
  <array name="atomtypes" >
   <dimension dim="1">type</dimension>
   <field type="int">atomspertype</field>
   <field type="string">element</field>
   <field>mass</field>
   <field>valence</field>
   <field type="string">pseudopotential</field>
   <set>
    <rc><c>  36</c><c>Ba</c><c>    137.32700000</c><c>     10.00000000</c><c> PAW_PBE Ba_sv 06Sep2000                </c></rc>
    <rc><c>  72</c><c>Si</c><c>     28.08500000</c><c>      4.00000000</c><c> PAW_PBE Si 05Jan2001                   </c></rc>
   </set>
  </array>
 </atominfo>
 <structure name="initialpos" >
  <crystal>
   <varray name="basis" >
    <v>      55.14001050       0.00000000       0.00000000 </v>
    <v>       0.00000000       6.68695909       0.00000000 </v>
    <v>       0.00000000       0.00000000      11.45163577 </v>
   </varray>
   <i name="volume">   4222.43562632 </i>
   <varray name="rec_basis" >
    <v>       0.01813565       0.00000000       0.00000000 </v>
    <v>       0.00000000       0.14954481       0.00000000 </v>
    <v>       0.00000000       0.00000000       0.08732377 </v>
   </varray>
  </crystal>
  <varray name="positions" >
   <v>       0.00590058       0.25000000       0.70093434 </v>
   <v>       0.16494692       0.25000000       0.69030623 </v>
   <v>       0.32697171       0.25000000       0.69096348 </v>
   <v>       0.48929657       0.25000000       0.69088959 </v>
   <v>       0.65331170       0.25000000       0.69244299 </v>
   <v>       0.15956084       0.75000002       0.30853361 </v>
   <v>       0.32183296       0.75000002       0.30904755 </v>
   <v>       0.48410550       0.75000002       0.30894657 </v>
   <v>       0.64586731       0.75000002       0.30869488 </v>
   <v>       0.07662533       0.75000002       0.19244293 </v>
   <v>       0.24064052       0.75000002       0.19088953 </v>
   <v>       0.40296534       0.75000002       0.19096342 </v>
   <v>       0.56499019       0.75000002       0.19030617 </v>
   <v>       0.72403649       0.75000002       0.20093428 </v>
   <v>       0.08406976       0.25000000       0.80869492 </v>
   <v>       0.24583157       0.25000000       0.80894661 </v>
   <v>       0.40810406       0.25000000       0.80904759 </v>
   <v>       0.57037623       0.25000000       0.80853365 </v>
   <v>       0.03475414       0.75000002       0.91205145 </v>
   <v>       0.18863522       0.75000002       0.90601914 </v>
   <v>       0.35041118       0.75000002       0.90598725 </v>
   <v>       0.51267655       0.75000002       0.90496167 </v>
   <v>       0.67389492       0.75000002       0.89563154 </v>
   <v>       0.13545347       0.25000000       0.09318811 </v>
   <v>       0.29834834       0.25000000       0.09410010 </v>
   <v>       0.46062508       0.25000000       0.09378191 </v>
   <v>       0.62240238       0.25000000       0.09540253 </v>
   <v>       0.05604210       0.25000000       0.39563163 </v>
   <v>       0.21726050       0.25000000       0.40496175 </v>
   <v>       0.37952587       0.25000000       0.40598733 </v>
   <v>       0.54130184       0.25000000       0.40601922 </v>
   <v>       0.69518288       0.25000000       0.41205153 </v>
   <v>       0.10753471       0.75000002       0.59540251 </v>
   <v>       0.26931198       0.75000002       0.59378189 </v>
   <v>       0.43158871       0.75000002       0.59410008 </v>
   <v>       0.59448361       0.75000002       0.59318809 </v>
   <v>       0.02930286       0.07120844       0.14573670 </v>
   <v>       0.19309273       0.07001824       0.14602195 </v>
   <v>       0.35552876       0.06995938       0.14650254 </v>
   <v>       0.51774464       0.06990250       0.14560071 </v>
   <v>       0.67954605       0.07109922       0.14198024 </v>
   <v>       0.13192028       0.93033449       0.85409307 </v>
   <v>       0.29325712       0.93007069       0.85352365 </v>
   <v>       0.45555013       0.93006124       0.85342379 </v>
   <v>       0.61791215       0.93072589       0.85296044 </v>
   <v>       0.05039102       0.92890077       0.64198026 </v>
   <v>       0.21219244       0.93009749       0.64560073 </v>
   <v>       0.37440830       0.93004061       0.64650257 </v>
   <v>       0.53684437       0.92998175       0.64602197 </v>
   <v>       0.70063423       0.92879156       0.64573672 </v>
   <v>       0.11202488       0.06927411       0.35296044 </v>
   <v>       0.27438694       0.06993875       0.35342379 </v>
   <v>       0.43667993       0.06992930       0.35352365 </v>
   <v>       0.59801680       0.06966550       0.35409307 </v>
   <v>       0.13192028       0.56966551       0.85409307 </v>
   <v>       0.29325712       0.56992931       0.85352365 </v>
   <v>       0.45555013       0.56993876       0.85342379 </v>
   <v>       0.61791215       0.56927411       0.85296044 </v>
   <v>       0.02930286       0.42879156       0.14573670 </v>
   <v>       0.19309273       0.42998175       0.14602195 </v>
   <v>       0.35552876       0.43004061       0.14650254 </v>
   <v>       0.51774464       0.43009749       0.14560071 </v>
   <v>       0.67954605       0.42890077       0.14198024 </v>
   <v>       0.11202488       0.43072589       0.35296044 </v>
   <v>       0.27438694       0.43006124       0.35342379 </v>
   <v>       0.43667993       0.43007069       0.35352365 </v>
   <v>       0.59801680       0.43033449       0.35409307 </v>
   <v>       0.05039102       0.57109923       0.64198026 </v>
   <v>       0.21219244       0.56990251       0.64560073 </v>
   <v>       0.37440830       0.56995939       0.64650257 </v>
   <v>       0.53684437       0.57001825       0.64602197 </v>
   <v>       0.70063423       0.57120844       0.64573672 </v>
   <v>       0.01205939       0.75000002       0.61800570 </v>
   <v>       0.17576943       0.75000002       0.59140173 </v>
   <v>       0.33800544       0.75000002       0.59166109 </v>
   <v>       0.50037431       0.75000002       0.59175422 </v>
   <v>       0.66351425       0.75000002       0.58273722 </v>
   <v>       0.14832439       0.25000000       0.40773748 </v>
   <v>       0.31079095       0.25000000       0.40827821 </v>
   <v>       0.47307154       0.25000000       0.40824074 </v>
   <v>       0.63414711       0.25000000       0.40915611 </v>
   <v>       0.06642279       0.25000000       0.08273716 </v>
   <v>       0.22956277       0.25000000       0.09175416 </v>
   <v>       0.39193164       0.25000000       0.09166103 </v>
   <v>       0.55416767       0.25000000       0.09140167 </v>
   <v>       0.71787768       0.25000000       0.11800563 </v>
   <v>       0.09578995       0.75000002       0.90915615 </v>
   <v>       0.25686553       0.75000002       0.90824078 </v>
   <v>       0.41914610       0.75000002       0.90827825 </v>
   <v>       0.58161271       0.75000002       0.90773753 </v>
   <v>       0.02959421       0.25000000       0.96278277 </v>
   <v>       0.19379167       0.25000000       0.96403990 </v>
   <v>       0.35610980       0.25000000       0.96439359 </v>
   <v>       0.51839683       0.25000000       0.96360187 </v>
   <v>       0.68786318       0.25000000       0.96160950 </v>
   <v>       0.13075104       0.75000002       0.03690763 </v>
   <v>       0.29265365       0.75000002       0.03567365 </v>
   <v>       0.45494821       0.75000002       0.03554197 </v>
   <v>       0.61725400       0.75000002       0.03529628 </v>
   <v>       0.04207385       0.75000002       0.46160942 </v>
   <v>       0.21154024       0.75000002       0.46360179 </v>
   <v>       0.37382725       0.75000002       0.46439351 </v>
   <v>       0.53614541       0.75000002       0.46403982 </v>
   <v>       0.70034287       0.75000002       0.46278269 </v>
   <v>       0.11268307       0.25000000       0.53529626 </v>
   <v>       0.27498888       0.25000000       0.53554196 </v>
   <v>       0.43728340       0.25000000       0.53567364 </v>
   <v>       0.59918599       0.25000000       0.53690762 </v>
  </varray>
 </structure>
 <calculation>
  <scstep>
   <time name="dav">  110.02  110.31</time>
   <time name="total">  113.68  114.01</time>
   <energy>
    <i name="alphaZ">   1543.44378375 </i>
    <i name="ewald"> 138772.19162141 </i>
    <i name="hartreedc">-170026.18696749 </i>
    <i name="XCdc">    219.87494935 </i>
    <i name="pawpsdc">  17399.64784964 </i>
    <i name="pawaedc"> -16074.89462502 </i>
    <i name="eentropy">     -0.00191185 </i>
    <i name="bandstr">   -108.81506555 </i>
    <i name="atom">  32711.18154363 </i>
    <i name="e_fr_energy">   4436.44117788 </i>
    <i name="e_wo_entrp">   4436.44308973 </i>
    <i name="e_0_energy">   4436.44213381 </i>
   </energy>
  </scstep>
  <scstep>
   <time name="dav">  138.96  139.32</time>
   <time name="total">  138.96  139.32</time>
   <energy>
    <i name="e_fr_energy">    130.03006332 </i>
    <i name="e_wo_entrp">    130.03046093 </i>
    <i name="e_0_energy">    130.03026213 </i>
   </energy>
  </scstep>
  <scstep>
   <time name="dav">  128.22  128.52</time>
   <time name="total">  128.22  128.53</time>
   <energy>
    <i name="e_fr_energy">   -405.33377858 </i>
    <i name="e_wo_entrp">   -405.33377858 </i>
    <i name="e_0_energy">   -405.33377858 </i>
   </energy>
  </scstep>
  <scstep>
   <time name="dav">  139.89  140.23</time>
   <time name="total">  139.89  140.23</time>
   <energy>
    <i name="e_fr_energy">   -430.94214260 </i>
    <i name="e_wo_entrp">   -430.94214260 </i>
    <i name="e_0_energy">   -430.94214260 </i>
   </energy>
  </scstep>
  <scstep>
   <time name="dav">  148.53  148.89</time>
   <time name="total">  148.53  148.89</time>
   <energy>
    <i name="e_fr_energy">   -432.05382570 </i>
    <i name="e_wo_entrp">   -432.05382570 </i>
    <i name="e_0_energy">   -432.05382570 </i>
   </energy>
  </scstep>
  <scstep>
   <time name="dav">  140.92  141.27</time>
   <time name="total">  140.92  141.27</time>
   <energy>
    <i name="e_fr_energy">   -432.08521906 </i>
    <i name="e_wo_entrp">   -432.08521906 </i>
    <i name="e_0_energy">   -432.08521906 </i>
   </energy>
  </scstep>
  <scstep>
   <time name="dav">  157.02  157.39</time>
   <time name="total">  157.02  157.40</time>
   <energy>
    <i name="e_fr_energy">   -432.08657677 </i>
    <i name="e_wo_entrp">   -432.08657677 </i>
    <i name="e_0_energy">   -432.08657677 </i>
   </energy>
  </scstep>
  <scstep>
   <time name="dav">  143.57  143.92</time>
   <time name="total">  143.58  143.92</time>
   <energy>
    <i name="e_fr_energy">   -432.08663014 </i>
    <i name="e_wo_entrp">   -432.08663014 </i>
    <i name="e_0_energy">   -432.08663014 </i>
   </energy>
  </scstep>
  <scstep>
   <time name="dav">  130.20  130.51</time>
   <time name="total">  130.21  130.52</time>
   <energy>
    <i name="e_fr_energy">   -432.08663293 </i>
    <i name="e_wo_entrp">   -432.08663293 </i>
    <i name="e_0_energy">   -432.08663293 </i>
   </energy>
  </scstep>
  <scstep>
   <time name="dav">   92.14   92.37</time>
   <time name="total">   92.15   92.37</time>
   <energy>
    <i name="alphaZ">   1543.44378375 </i>
    <i name="ewald"> 138772.19162141 </i>
    <i name="hartreedc">-170026.18696749 </i>
    <i name="XCdc">    219.87494935 </i>
    <i name="pawpsdc">  17399.64784964 </i>
    <i name="pawaedc"> -16074.89462502 </i>
    <i name="eentropy">     -0.00000000 </i>
    <i name="bandstr">  -4977.34478833 </i>
    <i name="atom">  32711.18154363 </i>
    <i name="e_fr_energy">   -432.08663305 </i>
    <i name="e_wo_entrp">   -432.08663305 </i>
    <i name="e_0_energy">   -432.08663305 </i>
   </energy>
  </scstep>
  <structure>
   <crystal>
    <varray name="basis" >
     <v>      55.14001050       0.00000000       0.00000000 </v>
     <v>       0.00000000       6.68695909       0.00000000 </v>
     <v>       0.00000000       0.00000000      11.45163577 </v>
    </varray>
    <i name="volume">   4222.43562632 </i>
    <varray name="rec_basis" >
     <v>       0.01813565       0.00000000       0.00000000 </v>
     <v>       0.00000000       0.14954481       0.00000000 </v>
     <v>       0.00000000       0.00000000       0.08732377 </v>
    </varray>
   </crystal>
   <varray name="positions" >
    <v>       0.00590058       0.25000000       0.70093434 </v>
    <v>       0.16494692       0.25000000       0.69030623 </v>
    <v>       0.32697171       0.25000000       0.69096348 </v>
    <v>       0.48929657       0.25000000       0.69088959 </v>
    <v>       0.65331170       0.25000000       0.69244299 </v>
    <v>       0.15956084       0.75000002       0.30853361 </v>
    <v>       0.32183296       0.75000002       0.30904755 </v>
    <v>       0.48410550       0.75000002       0.30894657 </v>
    <v>       0.64586731       0.75000002       0.30869488 </v>
    <v>       0.07662533       0.75000002       0.19244293 </v>
    <v>       0.24064052       0.75000002       0.19088953 </v>
    <v>       0.40296534       0.75000002       0.19096342 </v>
    <v>       0.56499019       0.75000002       0.19030617 </v>
    <v>       0.72403649       0.75000002       0.20093428 </v>
    <v>       0.08406976       0.25000000       0.80869492 </v>
    <v>       0.24583157       0.25000000       0.80894661 </v>
    <v>       0.40810406       0.25000000       0.80904759 </v>
    <v>       0.57037623       0.25000000       0.80853365 </v>
    <v>       0.03475414       0.75000002       0.91205145 </v>
    <v>       0.18863522       0.75000002       0.90601914 </v>
    <v>       0.35041118       0.75000002       0.90598725 </v>
    <v>       0.51267655       0.75000002       0.90496167 </v>
    <v>       0.67389492       0.75000002       0.89563154 </v>
    <v>       0.13545347       0.25000000       0.09318811 </v>
    <v>       0.29834834       0.25000000       0.09410010 </v>
    <v>       0.46062508       0.25000000       0.09378191 </v>
    <v>       0.62240238       0.25000000       0.09540253 </v>
    <v>       0.05604210       0.25000000       0.39563163 </v>
    <v>       0.21726050       0.25000000       0.40496175 </v>
    <v>       0.37952587       0.25000000       0.40598733 </v>
    <v>       0.54130184       0.25000000       0.40601922 </v>
    <v>       0.69518288       0.25000000       0.41205153 </v>
    <v>       0.10753471       0.75000002       0.59540251 </v>
    <v>       0.26931198       0.75000002       0.59378189 </v>
    <v>       0.43158871       0.75000002       0.59410008 </v>
    <v>       0.59448361       0.75000002       0.59318809 </v>
    <v>       0.02930286       0.07120844       0.14573670 </v>
    <v>       0.19309273       0.07001824       0.14602195 </v>
    <v>       0.35552876       0.06995938       0.14650254 </v>
    <v>       0.51774464       0.06990250       0.14560071 </v>
    <v>       0.67954605       0.07109922       0.14198024 </v>
    <v>       0.13192028       0.93033449       0.85409307 </v>
    <v>       0.29325712       0.93007069       0.85352365 </v>
    <v>       0.45555013       0.93006124       0.85342379 </v>
    <v>       0.61791215       0.93072589       0.85296044 </v>
    <v>       0.05039102       0.92890077       0.64198026 </v>
    <v>       0.21219244       0.93009749       0.64560073 </v>
    <v>       0.37440830       0.93004061       0.64650257 </v>
    <v>       0.53684437       0.92998175       0.64602197 </v>
    <v>       0.70063423       0.92879156       0.64573672 </v>
    <v>       0.11202488       0.06927411       0.35296044 </v>
    <v>       0.27438694       0.06993875       0.35342379 </v>
    <v>       0.43667993       0.06992930       0.35352365 </v>
    <v>       0.59801680       0.06966550       0.35409307 </v>
    <v>       0.13192028       0.56966551       0.85409307 </v>
    <v>       0.29325712       0.56992931       0.85352365 </v>
    <v>       0.45555013       0.56993876       0.85342379 </v>
    <v>       0.61791215       0.56927411       0.85296044 </v>
    <v>       0.02930286       0.42879156       0.14573670 </v>
    <v>       0.19309273       0.42998175       0.14602195 </v>
    <v>       0.35552876       0.43004061       0.14650254 </v>
    <v>       0.51774464       0.43009749       0.14560071 </v>
    <v>       0.67954605       0.42890077       0.14198024 </v>
    <v>       0.11202488       0.43072589       0.35296044 </v>
    <v>       0.27438694       0.43006124       0.35342379 </v>
    <v>       0.43667993       0.43007069       0.35352365 </v>
    <v>       0.59801680       0.43033449       0.35409307 </v>
    <v>       0.05039102       0.57109923       0.64198026 </v>
    <v>       0.21219244       0.56990251       0.64560073 </v>
    <v>       0.37440830       0.56995939       0.64650257 </v>
    <v>       0.53684437       0.57001825       0.64602197 </v>
    <v>       0.70063423       0.57120844       0.64573672 </v>
    <v>       0.01205939       0.75000002       0.61800570 </v>
    <v>       0.17576943       0.75000002       0.59140173 </v>
    <v>       0.33800544       0.75000002       0.59166109 </v>
    <v>       0.50037431       0.75000002       0.59175422 </v>
    <v>       0.66351425       0.75000002       0.58273722 </v>
    <v>       0.14832439       0.25000000       0.40773748 </v>
    <v>       0.31079095       0.25000000       0.40827821 </v>
    <v>       0.47307154       0.25000000       0.40824074 </v>
    <v>       0.63414711       0.25000000       0.40915611 </v>
    <v>       0.06642279       0.25000000       0.08273716 </v>
    <v>       0.22956277       0.25000000       0.09175416 </v>
    <v>       0.39193164       0.25000000       0.09166103 </v>
    <v>       0.55416767       0.25000000       0.09140167 </v>
    <v>       0.71787768       0.25000000       0.11800563 </v>
    <v>       0.09578995       0.75000002       0.90915615 </v>
    <v>       0.25686553       0.75000002       0.90824078 </v>
    <v>       0.41914610       0.75000002       0.90827825 </v>
    <v>       0.58161271       0.75000002       0.90773753 </v>
    <v>       0.02959421       0.25000000       0.96278277 </v>
    <v>       0.19379167       0.25000000       0.96403990 </v>
    <v>       0.35610980       0.25000000       0.96439359 </v>
    <v>       0.51839683       0.25000000       0.96360187 </v>
    <v>       0.68786318       0.25000000       0.96160950 </v>
    <v>       0.13075104       0.75000002       0.03690763 </v>
    <v>       0.29265365       0.75000002       0.03567365 </v>
    <v>       0.45494821       0.75000002       0.03554197 </v>
    <v>       0.61725400       0.75000002       0.03529628 </v>
    <v>       0.04207385       0.75000002       0.46160942 </v>
    <v>       0.21154024       0.75000002       0.46360179 </v>
    <v>       0.37382725       0.75000002       0.46439351 </v>
    <v>       0.53614541       0.75000002       0.46403982 </v>
    <v>       0.70034287       0.75000002       0.46278269 </v>
    <v>       0.11268307       0.25000000       0.53529626 </v>
    <v>       0.27498888       0.25000000       0.53554196 </v>
    <v>       0.43728340       0.25000000       0.53567364 </v>
    <v>       0.59918599       0.25000000       0.53690762 </v>
   </varray>
  </structure>
  <varray name="forces" >
   <v>       0.01980568      -0.00000000      -0.03694739 </v>
   <v>       0.03354865       0.00000000      -0.02185421 </v>
   <v>       0.03718952      -0.00000000      -0.02080333 </v>
   <v>       0.03741822      -0.00000000      -0.02375134 </v>
   <v>       0.05927515       0.00000000      -0.01451254 </v>
   <v>      -0.04112030      -0.00000000       0.01712130 </v>
   <v>      -0.03646058       0.00000000       0.02084429 </v>
   <v>      -0.03917237       0.00000000       0.01962056 </v>
   <v>      -0.03566036      -0.00000000       0.01039030 </v>
   <v>      -0.05927515       0.00000000      -0.01451254 </v>
   <v>      -0.03741822      -0.00000000      -0.02375134 </v>
   <v>      -0.03718952       0.00000000      -0.02080333 </v>
   <v>      -0.03354865       0.00000000      -0.02185421 </v>
   <v>      -0.01980568      -0.00000000      -0.03694739 </v>
   <v>       0.03566036      -0.00000000       0.01039030 </v>
   <v>       0.03917237      -0.00000000       0.01962056 </v>
   <v>       0.03646058       0.00000000       0.02084429 </v>
   <v>       0.04112030       0.00000000       0.01712130 </v>
   <v>       0.01116285       0.00000000      -0.00468496 </v>
   <v>       0.01031197       0.00000000       0.02731249 </v>
   <v>       0.01684966       0.00000000       0.03012326 </v>
   <v>       0.01597682       0.00000000       0.03042608 </v>
   <v>       0.02427429       0.00000000       0.03413235 </v>
   <v>      -0.01206849      -0.00000000      -0.02517253 </v>
   <v>      -0.01555741      -0.00000000      -0.03013310 </v>
   <v>      -0.01772044      -0.00000000      -0.02830024 </v>
   <v>      -0.01054386       0.00000000      -0.02871126 </v>
   <v>      -0.02427429      -0.00000000       0.03413235 </v>
   <v>      -0.01597682       0.00000000       0.03042608 </v>
   <v>      -0.01684966      -0.00000000       0.03012326 </v>
   <v>      -0.01031197      -0.00000000       0.02731249 </v>
   <v>      -0.01116285      -0.00000000      -0.00468496 </v>
   <v>       0.01054386      -0.00000000      -0.02871126 </v>
   <v>       0.01772044      -0.00000000      -0.02830024 </v>
   <v>       0.01555741      -0.00000000      -0.03013310 </v>
   <v>       0.01206849      -0.00000000      -0.02517253 </v>
   <v>       0.01797814       0.00567163       0.00090753 </v>
   <v>       0.02335972       0.02222121      -0.00983902 </v>
   <v>       0.02584920       0.01878464      -0.00689382 </v>
   <v>       0.02579092       0.02105837      -0.00685914 </v>
   <v>       0.01548960       0.02660610      -0.00163879 </v>
   <v>      -0.02536242      -0.01440606       0.00904694 </v>
   <v>      -0.02260560      -0.02047970       0.00907366 </v>
   <v>      -0.02533716      -0.01904780       0.00839144 </v>
   <v>      -0.02674326      -0.02195426       0.01153691 </v>
   <v>      -0.01548960      -0.02660610      -0.00163879 </v>
   <v>      -0.02579092      -0.02105837      -0.00685914 </v>
   <v>      -0.02584920      -0.01878464      -0.00689382 </v>
   <v>      -0.02335972      -0.02222121      -0.00983902 </v>
   <v>      -0.01797814      -0.00567163       0.00090753 </v>
   <v>       0.02674326       0.02195426       0.01153691 </v>
   <v>       0.02533716       0.01904780       0.00839144 </v>
   <v>       0.02260560       0.02047970       0.00907366 </v>
   <v>       0.02536242       0.01440606       0.00904694 </v>
   <v>      -0.02536242       0.01440606       0.00904694 </v>
   <v>      -0.02260560       0.02047970       0.00907366 </v>
   <v>      -0.02533716       0.01904780       0.00839144 </v>
   <v>      -0.02674326       0.02195426       0.01153691 </v>
   <v>       0.01797814      -0.00567163       0.00090753 </v>
   <v>       0.02335972      -0.02222121      -0.00983902 </v>
   <v>       0.02584920      -0.01878464      -0.00689382 </v>
   <v>       0.02579092      -0.02105837      -0.00685914 </v>
   <v>       0.01548960      -0.02660610      -0.00163879 </v>
   <v>       0.02674326      -0.02195426       0.01153691 </v>
   <v>       0.02533716      -0.01904780       0.00839144 </v>
   <v>       0.02260560      -0.02047970       0.00907366 </v>
   <v>       0.02536242      -0.01440606       0.00904694 </v>
   <v>      -0.01548960       0.02660610      -0.00163879 </v>
   <v>      -0.02579092       0.02105837      -0.00685914 </v>
   <v>      -0.02584920       0.01878464      -0.00689382 </v>
   <v>      -0.02335972       0.02222121      -0.00983902 </v>
   <v>      -0.01797814       0.00567163       0.00090753 </v>
   <v>       0.02926741       0.00000000       0.01847286 </v>
   <v>      -0.00144964       0.00000000       0.01524546 </v>
   <v>      -0.00543827      -0.00000000       0.01280849 </v>
   <v>      -0.00496423      -0.00000000       0.01105387 </v>
   <v>      -0.01866546       0.00000000       0.00651770 </v>
   <v>       0.00498294      -0.00000000      -0.00830184 </v>
   <v>       0.00714139      -0.00000000      -0.01224910 </v>
   <v>       0.00313554      -0.00000000      -0.01236660 </v>
   <v>       0.00903382      -0.00000000      -0.01445164 </v>
   <v>       0.01866546      -0.00000000       0.00651770 </v>
   <v>       0.00496423      -0.00000000       0.01105387 </v>
   <v>       0.00543827       0.00000000       0.01280849 </v>
   <v>       0.00144964       0.00000000       0.01524546 </v>
   <v>      -0.02926741      -0.00000000       0.01847286 </v>
   <v>      -0.00903382       0.00000000      -0.01445164 </v>
   <v>      -0.00313554       0.00000000      -0.01236660 </v>
   <v>      -0.00714139       0.00000000      -0.01224910 </v>
   <v>      -0.00498294      -0.00000000      -0.00830184 </v>
   <v>       0.00667530       0.00000000       0.00654187 </v>
   <v>      -0.00728736      -0.00000000      -0.00401791 </v>
   <v>      -0.00694258      -0.00000000      -0.00679697 </v>
   <v>      -0.01070501       0.00000000      -0.00700908 </v>
   <v>      -0.00966519       0.00000000      -0.00827568 </v>
   <v>       0.00921472       0.00000000       0.00407575 </v>
   <v>       0.01104515      -0.00000000       0.00254838 </v>
   <v>       0.00879062      -0.00000000       0.00587841 </v>
   <v>       0.01535223       0.00000000       0.00777490 </v>
   <v>       0.00966519      -0.00000000      -0.00827568 </v>
   <v>       0.01070501       0.00000000      -0.00700908 </v>
   <v>       0.00694258       0.00000000      -0.00679697 </v>
   <v>       0.00728736      -0.00000000      -0.00401791 </v>
   <v>      -0.00667530       0.00000000       0.00654187 </v>
   <v>      -0.01535223       0.00000000       0.00777490 </v>
   <v>      -0.00879062      -0.00000000       0.00587841 </v>
   <v>      -0.01104515      -0.00000000       0.00254838 </v>
   <v>      -0.00921472      -0.00000000       0.00407575 </v>
  </varray>
  <varray name="stress" >
   <v>      -0.28538026       0.00000000       0.00000000 </v>
   <v>       0.00000000      -0.45111575       0.00000000 </v>
   <v>       0.00000000       0.00000000      -0.59154456 </v>
  </varray>
  <energy>
   <i name="e_fr_energy">   -432.08663305 </i>
   <i name="e_wo_entrp">   -432.08663305 </i>
   <i name="e_0_energy">     -0.00000000 </i>
  </energy>
  <time name="totalsc"> 1642.88 1664.90</time>
  <eigenvalues>
   <array>
    <dimension dim="1">band</dimension>
    <dimension dim="2">kpoint</dimension>
    <dimension dim="3">spin</dimension>
    <field>eigene</field>
    <field>occ</field>
    <set>
     <set comment="spin 1">
      <set comment="kpoint 1">
       <r>  -26.8820    1.0000 </r>
       <r>  -26.8813    1.0000 </r>
       <r>  -25.9189    1.0000 </r>
       <r>  -25.9180    1.0000 </r>
       <r>  -25.9004    1.0000 </r>
       <r>  -25.8990    1.0000 </r>
       <r>  -25.8874    1.0000 </r>
       <r>  -25.8863    1.0000 </r>
       <r>  -25.8352    1.0000 </r>
       <r>  -25.8333    1.0000 </r>
       <r>  -25.8314    1.0000 </r>
       <r>  -25.8302    1.0000 </r>
       <r>  -25.8268    1.0000 </r>
       <r>  -25.8266    1.0000 </r>
       <r>  -25.8264    1.0000 </r>
       <r>  -25.8259    1.0000 </r>
       <r>  -25.8187    1.0000 </r>
       <r>  -25.8171    1.0000 </r>
       <r>  -25.8070    1.0000 </r>
       <r>  -25.8050    1.0000 </r>
       <r>  -25.7561    1.0000 </r>
       <r>  -25.7544    1.0000 </r>
       <r>  -25.7514    1.0000 </r>
       <r>  -25.7504    1.0000 </r>
       <r>  -25.7502    1.0000 </r>
       <r>  -25.7490    1.0000 </r>
       <r>  -25.7465    1.0000 </r>
       <r>  -25.7460    1.0000 </r>
       <r>  -25.7449    1.0000 </r>
       <r>  -25.7434    1.0000 </r>
       <r>  -25.7420    1.0000 </r>
       <r>  -25.7415    1.0000 </r>
       <r>  -25.7321    1.0000 </r>
       <r>  -25.7303    1.0000 </r>
       <r>  -25.6941    1.0000 </r>
       <r>  -25.6929    1.0000 </r>
       <r>  -12.2559    1.0000 </r>
       <r>  -12.2552    1.0000 </r>
       <r>  -12.1840    1.0000 </r>
       <r>  -12.1833    1.0000 </r>
       <r>  -12.0909    1.0000 </r>
       <r>  -12.0902    1.0000 </r>
       <r>  -11.5013    1.0000 </r>
       <r>  -11.5001    1.0000 </r>
       <r>  -11.4359    1.0000 </r>
       <r>  -11.4353    1.0000 </r>
       <r>  -11.4300    1.0000 </r>
       <r>  -11.4265    1.0000 </r>
       <r>  -11.4089    1.0000 </r>
       <r>  -11.3966    1.0000 </r>
       <r>  -11.3843    1.0000 </r>
       <r>  -11.3757    1.0000 </r>
       <r>  -11.3649    1.0000 </r>
       <r>  -11.3623    1.0000 </r>
       <r>  -11.3598    1.0000 </r>
       <r>  -11.3487    1.0000 </r>
       <r>  -11.3477    1.0000 </r>
       <r>  -11.3275    1.0000 </r>
       <r>  -11.3224    1.0000 </r>
       <r>  -11.3185    1.0000 </r>
       <r>  -11.3116    1.0000 </r>
       <r>  -11.3012    1.0000 </r>
       <r>  -11.2925    1.0000 </r>
       <r>  -11.2896    1.0000 </r>
       <r>  -11.2781    1.0000 </r>
       <r>  -11.2752    1.0000 </r>
       <r>  -11.2711    1.0000 </r>
       <r>  -11.2708    1.0000 </r>
       <r>  -11.2687    1.0000 </r>
       <r>  -11.2608    1.0000 </r>
       <r>  -11.2548    1.0000 </r>
       <r>  -11.2547    1.0000 </r>
       <r>  -11.2526    1.0000 </r>
       <r>  -11.2486    1.0000 </r>
       <r>  -11.2431    1.0000 </r>
       <r>  -11.2420    1.0000 </r>
       <r>  -11.2407    1.0000 </r>
       <r>  -11.2400    1.0000 </r>
       <r>  -11.2377    1.0000 </r>
       <r>  -11.2359    1.0000 </r>
       <r>  -11.2324    1.0000 </r>
       <r>  -11.2318    1.0000 </r>
       <r>  -11.2310    1.0000 </r>
       <r>  -11.2289    1.0000 </r>
       <r>  -11.2264    1.0000 </r>
       <r>  -11.2186    1.0000 </r>
       <r>  -11.2163    1.0000 </r>
       <r>  -11.2141    1.0000 </r>
       <r>  -11.2092    1.0000 </r>
       <r>  -11.2048    1.0000 </r>
       <r>  -11.2044    1.0000 </r>
       <r>  -11.2034    1.0000 </r>
       <r>  -11.2006    1.0000 </r>
       <r>  -11.1999    1.0000 </r>
       <r>  -11.1986    1.0000 </r>
       <r>  -11.1894    1.0000 </r>
       <r>  -11.1801    1.0000 </r>
       <r>  -11.1700    1.0000 </r>
       <r>  -11.1545    1.0000 </r>
       <r>  -11.1517    1.0000 </r>
       <r>  -11.1325    1.0000 </r>
       <r>  -11.1096    1.0000 </r>
       <r>  -11.0931    1.0000 </r>
       <r>  -11.0907    1.0000 </r>
       <r>  -11.0816    1.0000 </r>
       <r>  -11.0792    1.0000 </r>
       <r>  -11.0754    1.0000 </r>
       <r>  -11.0727    1.0000 </r>
       <r>  -11.0722    1.0000 </r>
       <r>  -11.0712    1.0000 </r>
       <r>  -11.0617    1.0000 </r>
       <r>  -11.0612    1.0000 </r>
       <r>  -11.0605    1.0000 </r>
       <r>  -11.0542    1.0000 </r>
       <r>  -11.0498    1.0000 </r>
       <r>  -11.0493    1.0000 </r>
       <r>  -11.0486    1.0000 </r>
       <r>  -11.0480    1.0000 </r>
       <r>  -11.0449    1.0000 </r>
       <r>  -11.0423    1.0000 </r>
       <r>  -11.0391    1.0000 </r>
       <r>  -11.0380    1.0000 </r>
       <r>  -11.0324    1.0000 </r>
       <r>  -11.0295    1.0000 </r>
       <r>  -11.0268    1.0000 </r>
       <r>  -11.0263    1.0000 </r>
       <r>  -11.0240    1.0000 </r>
       <r>  -11.0171    1.0000 </r>
       <r>  -11.0170    1.0000 </r>
       <r>  -11.0161    1.0000 </r>
       <r>  -11.0158    1.0000 </r>
       <r>  -11.0143    1.0000 </r>
       <r>  -11.0087    1.0000 </r>
       <r>  -11.0057    1.0000 </r>
       <r>  -11.0053    1.0000 </r>
       <r>  -11.0029    1.0000 </r>
       <r>  -11.0005    1.0000 </r>
       <r>  -10.9995    1.0000 </r>
       <r>  -10.9922    1.0000 </r>
       <r>  -10.9909    1.0000 </r>
       <r>  -10.9895    1.0000 </r>
       <r>  -10.9860    1.0000 </r>
       <r>  -10.9803    1.0000 </r>
       <r>  -10.9790    1.0000 </r>
       <r>   -9.1066    1.0000 </r>
       <r>   -9.0707    1.0000 </r>
       <r>   -9.0160    1.0000 </r>
       <r>   -8.9529    1.0000 </r>
       <r>   -8.8941    1.0000 </r>
       <r>   -8.8487    1.0000 </r>
       <r>   -8.8430    1.0000 </r>
       <r>   -8.8352    1.0000 </r>
       <r>   -8.8199    1.0000 </r>
       <r>   -8.8198    1.0000 </r>
       <r>   -8.8041    1.0000 </r>
       <r>   -8.8031    1.0000 </r>
       <r>   -8.7994    1.0000 </r>
       <r>   -8.7844    1.0000 </r>
       <r>   -8.7768    1.0000 </r>
       <r>   -8.7763    1.0000 </r>
       <r>   -8.4321    1.0000 </r>
       <r>   -8.4310    1.0000 </r>
       <r>   -4.4870    1.0000 </r>
       <r>   -4.4839    1.0000 </r>
       <r>   -4.4714    1.0000 </r>
       <r>   -4.4392    1.0000 </r>
       <r>   -4.4342    1.0000 </r>
       <r>   -4.4208    1.0000 </r>
       <r>   -4.4010    1.0000 </r>
       <r>   -4.3383    1.0000 </r>
       <r>   -4.2924    1.0000 </r>
       <r>   -4.2737    1.0000 </r>
       <r>   -4.1984    1.0000 </r>
       <r>   -4.1950    1.0000 </r>
       <r>   -4.1503    1.0000 </r>
       <r>   -4.1429    1.0000 </r>
       <r>   -4.1352    1.0000 </r>
       <r>   -4.1238    1.0000 </r>
       <r>   -4.1085    1.0000 </r>
       <r>   -4.1052    1.0000 </r>
       <r>   -4.1024    1.0000 </r>
       <r>   -4.0630    1.0000 </r>
       <r>   -4.0581    1.0000 </r>
       <r>   -4.0391    1.0000 </r>
       <r>   -4.0387    1.0000 </r>
       <r>   -4.0245    1.0000 </r>
       <r>   -4.0203    1.0000 </r>
       <r>   -4.0160    1.0000 </r>
       <r>   -4.0088    1.0000 </r>
       <r>   -3.9995    1.0000 </r>
       <r>   -3.9994    1.0000 </r>
       <r>   -3.9905    1.0000 </r>
       <r>   -3.9745    1.0000 </r>
       <r>   -3.9650    1.0000 </r>
       <r>   -3.9573    1.0000 </r>
       <r>   -3.9571    1.0000 </r>
       <r>   -3.9372    1.0000 </r>
       <r>   -3.9287    1.0000 </r>
       <r>   -3.9173    1.0000 </r>
       <r>   -3.9146    1.0000 </r>
       <r>   -3.9141    1.0000 </r>
       <r>   -3.9084    1.0000 </r>
       <r>   -3.9076    1.0000 </r>
       <r>   -3.8902    1.0000 </r>
       <r>   -3.8869    1.0000 </r>
       <r>   -3.8807    1.0000 </r>
       <r>   -3.8557    1.0000 </r>
       <r>   -3.8477    1.0000 </r>
       <r>   -3.8239    1.0000 </r>
       <r>   -3.7646    1.0000 </r>
       <r>   -3.7248    1.0000 </r>
       <r>   -3.7132    1.0000 </r>
       <r>   -3.6252    1.0000 </r>
       <r>   -3.6133    1.0000 </r>
       <r>   -3.3988    1.0000 </r>
       <r>   -3.3977    1.0000 </r>
       <r>   -1.8453    1.0000 </r>
       <r>   -1.7176    1.0000 </r>
       <r>   -1.5415    1.0000 </r>
       <r>   -1.3441    1.0000 </r>
       <r>   -1.1522    1.0000 </r>
       <r>   -0.9872    1.0000 </r>
       <r>   -0.8444    1.0000 </r>
       <r>   -0.8322    1.0000 </r>
       <r>   -0.7758    1.0000 </r>
       <r>   -0.7726    1.0000 </r>
       <r>   -0.7585    1.0000 </r>
       <r>   -0.7552    1.0000 </r>
       <r>   -0.7413    1.0000 </r>
       <r>   -0.7122    1.0000 </r>
       <r>   -0.6893    1.0000 </r>
       <r>   -0.6345    1.0000 </r>
       <r>   -0.6239    1.0000 </r>
       <r>   -0.6054    1.0000 </r>
       <r>   -0.4909    1.0000 </r>
       <r>   -0.4102    1.0000 </r>
       <r>   -0.3723    1.0000 </r>
       <r>   -0.3237    1.0000 </r>
       <r>   -0.3008    1.0000 </r>
       <r>   -0.2275    1.0000 </r>
       <r>   -0.1837    1.0000 </r>
       <r>   -0.1751    1.0000 </r>
       <r>   -0.1240    1.0000 </r>
       <r>   -0.1011    1.0000 </r>
       <r>   -0.0322    1.0000 </r>
       <r>   -0.0163    1.0000 </r>
       <r>   -0.0145    1.0000 </r>
       <r>   -0.0103    1.0000 </r>
       <r>    0.0248    1.0000 </r>
       <r>    0.0293    1.0000 </r>
       <r>    0.0334    1.0000 </r>
       <r>    0.0728    1.0000 </r>
       <r>    0.0790    1.0000 </r>
       <r>    0.0852    1.0000 </r>
       <r>    0.0908    1.0000 </r>
       <r>    0.1147    1.0000 </r>
       <r>    0.1215    1.0000 </r>
       <r>    0.1483    1.0000 </r>
       <r>    0.1666    1.0000 </r>
       <r>    0.1851    1.0000 </r>
       <r>    0.1914    1.0000 </r>
       <r>    0.2104    1.0000 </r>
       <r>    0.2202    1.0000 </r>
       <r>    0.2217    1.0000 </r>
       <r>    0.2707    1.0000 </r>
       <r>    0.2876    1.0000 </r>
       <r>    0.2913    1.0000 </r>
       <r>    0.3092    1.0000 </r>
       <r>    0.3194    1.0000 </r>
       <r>    0.3226    1.0000 </r>
       <r>    0.3441    1.0000 </r>
       <r>    0.3760    1.0000 </r>
       <r>    0.3995    1.0000 </r>
       <r>    0.4051    1.0000 </r>
       <r>    0.4174    1.0000 </r>
       <r>    0.4186    1.0000 </r>
       <r>    0.4796    1.0000 </r>
       <r>    0.4820    1.0000 </r>
       <r>    0.4842    1.0000 </r>
       <r>    0.5464    1.0000 </r>
       <r>    0.5535    1.0000 </r>
       <r>    0.5602    1.0000 </r>
       <r>    0.5933    1.0000 </r>
       <r>    0.5943    1.0000 </r>
       <r>    0.5990    1.0000 </r>
       <r>    0.6082    1.0000 </r>
       <r>    0.6093    1.0000 </r>
       <r>    0.6275    1.0000 </r>
       <r>    0.6435    1.0000 </r>
       <r>    0.6571    1.0000 </r>
       <r>    0.6629    1.0000 </r>
       <r>    0.6841    1.0000 </r>
       <r>    0.6870    1.0000 </r>
       <r>    0.6883    1.0000 </r>
       <r>    0.7010    1.0000 </r>
       <r>    0.7186    1.0000 </r>
       <r>    0.7426    1.0000 </r>
       <r>    0.7467    1.0000 </r>
       <r>    0.7639    1.0000 </r>
       <r>    0.8044    1.0000 </r>
       <r>    0.9043    1.0000 </r>
       <r>    0.9383    1.0000 </r>
       <r>    1.0205    1.0000 </r>
       <r>    1.0304    1.0000 </r>
       <r>    1.0305    1.0000 </r>
       <r>    1.0427    1.0000 </r>
       <r>    1.0586    1.0000 </r>
       <r>    1.0595    1.0000 </r>
       <r>    1.0698    1.0000 </r>
       <r>    1.0844    1.0000 </r>
       <r>    1.1192    1.0000 </r>
       <r>    1.1827    1.0000 </r>
       <r>    1.1901    1.0000 </r>
       <r>    1.2198    1.0000 </r>
       <r>    1.2434    1.0000 </r>
       <r>    1.2769    1.0000 </r>
       <r>    1.3167    1.0000 </r>
       <r>    1.3242    1.0000 </r>
       <r>    1.3324    1.0000 </r>
       <r>    1.3721    1.0000 </r>
       <r>    1.4333    1.0000 </r>
       <r>    1.4344    1.0000 </r>
       <r>    1.4618    1.0000 </r>
       <r>    1.4772    1.0000 </r>
       <r>    2.6440    0.0000 </r>
       <r>    2.6475    0.0000 </r>
       <r>    2.7044    0.0000 </r>
       <r>    2.7240    0.0000 </r>
       <r>    2.7325    0.0000 </r>
       <r>    2.7740    0.0000 </r>
       <r>    2.8312    0.0000 </r>
       <r>    2.8730    0.0000 </r>
       <r>    2.9044    0.0000 </r>
       <r>    2.9200    0.0000 </r>
       <r>    2.9213    0.0000 </r>
       <r>    2.9220    0.0000 </r>
       <r>    2.9348    0.0000 </r>
       <r>    2.9529    0.0000 </r>
       <r>    2.9655    0.0000 </r>
       <r>    2.9874    0.0000 </r>
       <r>    3.0502    0.0000 </r>
       <r>    3.0646    0.0000 </r>
       <r>    3.1091    0.0000 </r>
       <r>    3.1135    0.0000 </r>
       <r>    3.1610    0.0000 </r>
       <r>    3.1747    0.0000 </r>
       <r>    3.1812    0.0000 </r>
       <r>    3.2025    0.0000 </r>
       <r>    3.2201    0.0000 </r>
       <r>    3.2560    0.0000 </r>
       <r>    3.3026    0.0000 </r>
       <r>    3.3606    0.0000 </r>
       <r>    3.3998    0.0000 </r>
       <r>    3.4074    0.0000 </r>
       <r>    3.4388    0.0000 </r>
       <r>    3.5321    0.0000 </r>
       <r>    3.5331    0.0000 </r>
       <r>    3.5364    0.0000 </r>
       <r>    3.5610    0.0000 </r>
       <r>    3.5835    0.0000 </r>
       <r>    3.5948    0.0000 </r>
       <r>    3.6353    0.0000 </r>
       <r>    3.6571    0.0000 </r>
       <r>    3.7463    0.0000 </r>
       <r>    3.7509    0.0000 </r>
       <r>    3.8240    0.0000 </r>
       <r>    3.8830    0.0000 </r>
       <r>    3.9418    0.0000 </r>
       <r>    3.9431    0.0000 </r>
       <r>    3.9681    0.0000 </r>
       <r>    4.0301    0.0000 </r>
       <r>    4.0622    0.0000 </r>
       <r>    4.0681    0.0000 </r>
       <r>    4.0727    0.0000 </r>
       <r>    4.0812    0.0000 </r>
       <r>    4.1375    0.0000 </r>
       <r>    4.1504    0.0000 </r>
       <r>    4.1937    0.0000 </r>
       <r>    4.2028    0.0000 </r>
       <r>    4.2115    0.0000 </r>
       <r>    4.2264    0.0000 </r>
       <r>    4.2663    0.0000 </r>
       <r>    4.3263    0.0000 </r>
       <r>    4.3459    0.0000 </r>
       <r>    4.3565    0.0000 </r>
       <r>    4.3872    0.0000 </r>
       <r>    4.4315    0.0000 </r>
       <r>    4.4386    0.0000 </r>
       <r>    4.4634    0.0000 </r>
       <r>    4.4952    0.0000 </r>
       <r>    4.5498    0.0000 </r>
       <r>    4.6200    0.0000 </r>
      </set>
      <set comment="kpoint 2">
       <r>  -26.8819    1.0000 </r>
       <r>  -26.8813    1.0000 </r>
       <r>  -25.9189    1.0000 </r>
       <r>  -25.9180    1.0000 </r>
       <r>  -25.9004    1.0000 </r>
       <r>  -25.8990    1.0000 </r>
       <r>  -25.8874    1.0000 </r>
       <r>  -25.8863    1.0000 </r>
       <r>  -25.8352    1.0000 </r>
       <r>  -25.8333    1.0000 </r>
       <r>  -25.8314    1.0000 </r>
       <r>  -25.8302    1.0000 </r>
       <r>  -25.8268    1.0000 </r>
       <r>  -25.8266    1.0000 </r>
       <r>  -25.8264    1.0000 </r>
       <r>  -25.8259    1.0000 </r>
       <r>  -25.8187    1.0000 </r>
       <r>  -25.8171    1.0000 </r>
       <r>  -25.8070    1.0000 </r>
       <r>  -25.8050    1.0000 </r>
       <r>  -25.7561    1.0000 </r>
[...]
       <r>   -23.0225     0.0000    72.0000 </r>
       <r>   -22.9069     0.0000    72.0000 </r>
       <r>   -22.7912     0.0000    72.0000 </r>
       <r>   -22.6755     0.0000    72.0000 </r>
       <r>   -22.5598     0.0000    72.0000 </r>
       <r>   -22.4442     0.0000    72.0000 </r>
       <r>   -22.3285     0.0000    72.0000 </r>
       <r>   -22.2128     0.0000    72.0000 </r>
       <r>   -22.0971     0.0000    72.0000 </r>
       <r>   -21.9814     0.0000    72.0000 </r>
       <r>   -21.8658     0.0000    72.0000 </r>
       <r>   -21.7501     0.0000    72.0000 </r>
       <r>   -21.6344     0.0000    72.0000 </r>
       <r>   -21.5187     0.0000    72.0000 </r>
       <r>   -21.4031     0.0000    72.0000 </r>
       <r>   -21.2874     0.0000    72.0000 </r>
       <r>   -21.1717     0.0000    72.0000 </r>
       <r>   -21.0560     0.0000    72.0000 </r>
       <r>   -20.9403     0.0000    72.0000 </r>
       <r>   -20.8247     0.0000    72.0000 </r>
       <r>   -20.7090     0.0000    72.0000 </r>
       <r>   -20.5933     0.0000    72.0000 </r>
       <r>   -20.4776     0.0000    72.0000 </r>
       <r>   -20.3620     0.0000    72.0000 </r>
       <r>   -20.2463     0.0000    72.0000 </r>
       <r>   -20.1306     0.0000    72.0000 </r>
       <r>   -20.0149     0.0000    72.0000 </r>
       <r>   -19.8993     0.0000    72.0000 </r>
       <r>   -19.7836     0.0000    72.0000 </r>
       <r>   -19.6679     0.0000    72.0000 </r>
       <r>   -19.5522     0.0000    72.0000 </r>
       <r>   -19.4365     0.0000    72.0000 </r>
       <r>   -19.3209     0.0000    72.0000 </r>
       <r>   -19.2052     0.0000    72.0000 </r>
       <r>   -19.0895     0.0000    72.0000 </r>
       <r>   -18.9738     0.0000    72.0000 </r>
       <r>   -18.8582     0.0000    72.0000 </r>
       <r>   -18.7425     0.0000    72.0000 </r>
       <r>   -18.6268     0.0000    72.0000 </r>
       <r>   -18.5111     0.0000    72.0000 </r>
       <r>   -18.3954     0.0000    72.0000 </r>
       <r>   -18.2798     0.0000    72.0000 </r>
       <r>   -18.1641     0.0000    72.0000 </r>
       <r>   -18.0484     0.0000    72.0000 </r>
       <r>   -17.9327     0.0000    72.0000 </r>
       <r>   -17.8171     0.0000    72.0000 </r>
       <r>   -17.7014     0.0000    72.0000 </r>
       <r>   -17.5857     0.0000    72.0000 </r>
       <r>   -17.4700     0.0000    72.0000 </r>
       <r>   -17.3544     0.0000    72.0000 </r>
       <r>   -17.2387     0.0000    72.0000 </r>
       <r>   -17.1230     0.0000    72.0000 </r>
       <r>   -17.0073     0.0000    72.0000 </r>
       <r>   -16.8916     0.0000    72.0000 </r>
       <r>   -16.7760     0.0000    72.0000 </r>
       <r>   -16.6603     0.0000    72.0000 </r>
       <r>   -16.5446     0.0000    72.0000 </r>
       <r>   -16.4289     0.0000    72.0000 </r>
       <r>   -16.3133     0.0000    72.0000 </r>
       <r>   -16.1976     0.0000    72.0000 </r>
       <r>   -16.0819     0.0000    72.0000 </r>
       <r>   -15.9662     0.0000    72.0000 </r>
       <r>   -15.8506     0.0000    72.0000 </r>
       <r>   -15.7349     0.0000    72.0000 </r>
       <r>   -15.6192     0.0000    72.0000 </r>
       <r>   -15.5035     0.0000    72.0000 </r>
       <r>   -15.3878     0.0000    72.0000 </r>
       <r>   -15.2722     0.0000    72.0000 </r>
       <r>   -15.1565     0.0000    72.0000 </r>
       <r>   -15.0408     0.0000    72.0000 </r>
       <r>   -14.9251     0.0000    72.0000 </r>
       <r>   -14.8095     0.0000    72.0000 </r>
       <r>   -14.6938     0.0000    72.0000 </r>
       <r>   -14.5781     0.0000    72.0000 </r>
       <r>   -14.4624     0.0000    72.0000 </r>
       <r>   -14.3467     0.0000    72.0000 </r>
       <r>   -14.2311     0.0000    72.0000 </r>
       <r>   -14.1154     0.0000    72.0000 </r>
       <r>   -13.9997     0.0000    72.0000 </r>
       <r>   -13.8840     0.0000    72.0000 </r>
       <r>   -13.7684     0.0000    72.0000 </r>
       <r>   -13.6527     0.0000    72.0000 </r>
       <r>   -13.5370     0.0000    72.0000 </r>
       <r>   -13.4213     0.0000    72.0000 </r>
       <r>   -13.3057     0.0000    72.0000 </r>
       <r>   -13.1900     0.0000    72.0000 </r>
       <r>   -13.0743     0.0000    72.0000 </r>
       <r>   -12.9586     0.0000    72.0000 </r>
       <r>   -12.8429     0.0000    72.0000 </r>
       <r>   -12.7273     0.0000    72.0000 </r>
       <r>   -12.6116     0.0000    72.0000 </r>
       <r>   -12.4959     0.0000    72.0000 </r>
       <r>   -12.3802     0.0000    72.0000 </r>
       <r>   -12.2646     1.8011    72.2084 </r>
       <r>   -12.1489    34.5798    80.0001 </r>
       <r>   -12.0332    19.8829    84.0000 </r>
       <r>   -11.9175     0.0000    84.0000 </r>
       <r>   -11.8018     0.0000    84.0000 </r>
       <r>   -11.6862     0.0000    84.0000 </r>
       <r>   -11.5705     0.0000    84.0000 </r>
       <r>   -11.4548    46.1528    89.3388 </r>
       <r>   -11.3391   181.6991   120.8935 </r>
       <r>   -11.2235   281.8472   166.8283 </r>
       <r>   -11.1078   201.6927   203.7313 </r>
       <r>   -10.9921   484.2126   274.1124 </r>
       <r>   -10.8764     0.0000   288.0000 </r>
       <r>   -10.7608     0.0000   288.0000 </r>
       <r>   -10.6451     0.0000   288.0000 </r>
       <r>   -10.5294     0.0000   288.0000 </r>
       <r>   -10.4137     0.0000   288.0000 </r>
       <r>   -10.2980     0.0000   288.0000 </r>
       <r>   -10.1824     0.0000   288.0000 </r>
       <r>   -10.0667     0.0000   288.0000 </r>
       <r>    -9.9510     0.0000   288.0000 </r>
       <r>    -9.8353     0.0000   288.0000 </r>
       <r>    -9.7197     0.0000   288.0000 </r>
       <r>    -9.6040     0.0000   288.0000 </r>
       <r>    -9.4883     0.0000   288.0000 </r>
       <r>    -9.3726     0.0000   288.0000 </r>
       <r>    -9.2569     0.0000   288.0000 </r>
       <r>    -9.1413     0.0000   288.0000 </r>
       <r>    -9.0256     7.7789   288.9748 </r>
       <r>    -8.9099    20.8475   292.0116 </r>
       <r>    -8.7942   162.9369   312.8481 </r>
       <r>    -8.6786    11.6704   320.0000 </r>
       <r>    -8.5629     0.0000   320.0000 </r>
       <r>    -8.4472     1.7728   320.2051 </r>
       <r>    -8.3315    18.5862   324.0000 </r>
       <r>    -8.2159     0.0000   324.0000 </r>
       <r>    -8.1002     0.0000   324.0000 </r>
       <r>    -7.9845     0.0000   324.0000 </r>
       <r>    -7.8688     0.0000   324.0000 </r>
       <r>    -7.7531     0.0000   324.0000 </r>
       <r>    -7.6375     0.0000   324.0000 </r>
       <r>    -7.5218     0.0000   324.0000 </r>
       <r>    -7.4061     0.0000   324.0000 </r>
       <r>    -7.2904     0.0000   324.0000 </r>
       <r>    -7.1748     0.0000   324.0000 </r>
       <r>    -7.0591     0.0000   324.0000 </r>
       <r>    -6.9434     0.0000   324.0000 </r>
       <r>    -6.8277     0.0000   324.0000 </r>
       <r>    -6.7120     0.0000   324.0000 </r>
       <r>    -6.5964     0.0000   324.0000 </r>
       <r>    -6.4807     0.0000   324.0000 </r>
       <r>    -6.3650     0.0000   324.0000 </r>
       <r>    -6.2493     0.0000   324.0000 </r>
       <r>    -6.1337     0.0000   324.0000 </r>
       <r>    -6.0180     0.0000   324.0000 </r>
       <r>    -5.9023     0.0000   324.0000 </r>
       <r>    -5.7866     0.0000   324.0000 </r>
       <r>    -5.6710     0.0000   324.0000 </r>
       <r>    -5.5553     0.0000   324.0000 </r>
       <r>    -5.4396     0.0000   324.0000 </r>
       <r>    -5.3239     0.0000   324.0000 </r>
       <r>    -5.2082     0.0000   324.0000 </r>
       <r>    -5.0926     0.0000   324.0000 </r>
       <r>    -4.9769     0.0000   324.0000 </r>
       <r>    -4.8612     0.0000   324.0000 </r>
       <r>    -4.7455     0.0000   324.0000 </r>
       <r>    -4.6299     0.0000   324.0000 </r>
       <r>    -4.5142     0.0035   324.0004 </r>
       <r>    -4.3985    66.1291   332.6496 </r>
       <r>    -4.2828    61.6497   344.1565 </r>
       <r>    -4.1671    41.9162   352.4487 </r>
       <r>    -4.0515    90.0009   365.2861 </r>
       <r>    -3.9358   141.4382   391.4612 </r>
       <r>    -3.8201   110.4817   413.0802 </r>
       <r>    -3.7044    44.6401   421.3638 </r>
       <r>    -3.5888    36.5015   426.2224 </r>
       <r>    -3.4731    12.0003   430.1632 </r>
       <r>    -3.3574    13.3994   432.0000 </r>
       <r>    -3.2417     0.0000   432.0000 </r>
       <r>    -3.1261     0.0000   432.0000 </r>
       <r>    -3.0104     0.0000   432.0000 </r>
       <r>    -2.8947     0.0000   432.0000 </r>
       <r>    -2.7790     0.0000   432.0000 </r>
       <r>    -2.6633     0.0000   432.0000 </r>
       <r>    -2.5477     0.0000   432.0000 </r>
       <r>    -2.4320     0.0000   432.0000 </r>
       <r>    -2.3163     0.0000   432.0000 </r>
       <r>    -2.2006     0.0000   432.0000 </r>
       <r>    -2.0850     0.0000   432.0000 </r>
       <r>    -1.9693     0.0000   432.0000 </r>
       <r>    -1.8536     0.0730   432.0084 </r>
       <r>    -1.7379     1.3677   432.3082 </r>
       <r>    -1.6223     2.3259   432.7441 </r>
       <r>    -1.5066     3.5316   433.2335 </r>
       <r>    -1.3909     2.4361   433.6818 </r>
       <r>    -1.2752     5.0960   434.4145 </r>
       <r>    -1.1595     7.0389   435.5642 </r>
       <r>    -1.0439    10.2984   437.3913 </r>
       <r>    -0.9282    10.8363   439.1535 </r>
       <r>    -0.8125    35.7090   443.7807 </r>
       <r>    -0.6968    50.3641   451.0760 </r>
       <r>    -0.5812    47.6252   459.2091 </r>
       <r>    -0.4655    53.8576   467.6301 </r>
       <r>    -0.3498    55.1646   475.4313 </r>
       <r>    -0.2341    42.4383   483.2091 </r>
       <r>    -0.1184    57.3760   492.0121 </r>
       <r>    -0.0028    62.5662   501.2875 </r>
       <r>     0.1129    81.5969   515.4639 </r>
       <r>     0.2286    92.1489   529.9845 </r>
       <r>     0.3443    91.6347   545.2750 </r>
       <r>     0.4599    76.9128   558.3721 </r>
       <r>     0.5756    53.8091   568.9995 </r>
       <r>     0.6913    71.4017   581.0345 </r>
       <r>     0.8070    95.7555   597.6767 </r>
       <r>     0.9226    33.3903   604.1625 </r>
       <r>     1.0383    45.5823   612.8228 </r>
       <r>     1.1540    54.3665   623.1140 </r>
       <r>     1.2697    54.0959   631.6827 </r>
       <r>     1.3854    43.6329   639.3723 </r>
       <r>     1.5010    45.4552   647.2581 </r>
       <r>     1.6167     1.7896   647.9070 </r>
       <r>     1.7324     0.0000   648.0000 </r>
       <r>     1.8481     0.0000   648.0000 </r>
       <r>     1.9637     0.0000   648.0000 </r>
       <r>     2.0794     0.0000   648.0000 </r>
       <r>     2.1951     0.0000   648.0000 </r>
       <r>     2.3108     0.0000   648.0000 </r>
       <r>     2.4265     6.4467   648.7457 </r>
       <r>     2.5421    30.1224   653.3345 </r>
       <r>     2.6578    33.6388   658.7912 </r>
       <r>     2.7735    40.1681   665.1465 </r>
       <r>     2.8892    41.2173   671.8929 </r>
       <r>     3.0048    55.9456   681.3716 </r>
       <r>     3.1205    51.8283   689.8954 </r>
       <r>     3.2362    47.7122   698.0692 </r>
       <r>     3.3519    49.8565   706.2173 </r>
       <r>     3.4675    49.7519   714.8552 </r>
       <r>     3.5832    48.0787   722.5116 </r>
       <r>     3.6989    56.9466   732.0374 </r>
       <r>     3.8146    48.7126   740.4349 </r>
       <r>     3.9303    44.5448   747.9528 </r>
       <r>     4.0459    55.8119   756.9312 </r>
       <r>     4.1616    48.9629   766.0139 </r>
       <r>     4.2773    55.1726   775.3822 </r>
       <r>     4.3930    29.4594   780.5078 </r>
       <r>     4.5086    14.8096   783.1881 </r>
       <r>     4.6243     3.3105   783.8330 </r>
       <r>     4.7400     0.2161   784.0000 </r>
       <r>     4.8557     0.0000   784.0000 </r>
       <r>     4.9714     0.0000   784.0000 </r>
       <r>     5.0870     0.0000   784.0000 </r>
       <r>     5.2027     0.0000   784.0000 </r>
       <r>     5.3184     0.0000   784.0000 </r>
       <r>     5.4341     0.0000   784.0000 </r>
       <r>     5.5497     0.0000   784.0000 </r>
       <r>     5.6654     0.0000   784.0000 </r>
       <r>     5.7811     0.0000   784.0000 </r>
       <r>     5.8968     0.0000   784.0000 </r>
       <r>     6.0124     0.0000   784.0000 </r>
       <r>     6.1281     0.0000   784.0000 </r>
       <r>     6.2438     0.0000   784.0000 </r>
      </set>
     </set>
    </array>
   </total>
  </dos>
 </calculation>
 <structure name="finalpos" >
  <crystal>
   <varray name="basis" >
    <v>      55.14001050       0.00000000       0.00000000 </v>
    <v>       0.00000000       6.68695909       0.00000000 </v>
    <v>       0.00000000       0.00000000      11.45163577 </v>
   </varray>
   <i name="volume">   4222.43562632 </i>
   <varray name="rec_basis" >
    <v>       0.01813565       0.00000000       0.00000000 </v>
    <v>       0.00000000       0.14954481       0.00000000 </v>
    <v>       0.00000000       0.00000000       0.08732377 </v>
   </varray>
  </crystal>
  <varray name="positions" >
   <v>       0.00590058       0.25000000       0.70093434 </v>
   <v>       0.16494692       0.25000000       0.69030623 </v>
   <v>       0.32697171       0.25000000       0.69096348 </v>
   <v>       0.48929657       0.25000000       0.69088959 </v>
   <v>       0.65331170       0.25000000       0.69244299 </v>
   <v>       0.15956084       0.75000002       0.30853361 </v>
   <v>       0.32183296       0.75000002       0.30904755 </v>
   <v>       0.48410550       0.75000002       0.30894657 </v>
   <v>       0.64586731       0.75000002       0.30869488 </v>
   <v>       0.07662533       0.75000002       0.19244293 </v>
   <v>       0.24064052       0.75000002       0.19088953 </v>
   <v>       0.40296534       0.75000002       0.19096342 </v>
   <v>       0.56499019       0.75000002       0.19030617 </v>
   <v>       0.72403649       0.75000002       0.20093428 </v>
   <v>       0.08406976       0.25000000       0.80869492 </v>
   <v>       0.24583157       0.25000000       0.80894661 </v>
   <v>       0.40810406       0.25000000       0.80904759 </v>
   <v>       0.57037623       0.25000000       0.80853365 </v>
   <v>       0.03475414       0.75000002       0.91205145 </v>
   <v>       0.18863522       0.75000002       0.90601914 </v>
   <v>       0.35041118       0.75000002       0.90598725 </v>
   <v>       0.51267655       0.75000002       0.90496167 </v>
   <v>       0.67389492       0.75000002       0.89563154 </v>
   <v>       0.13545347       0.25000000       0.09318811 </v>
   <v>       0.29834834       0.25000000       0.09410010 </v>
   <v>       0.46062508       0.25000000       0.09378191 </v>
   <v>       0.62240238       0.25000000       0.09540253 </v>
   <v>       0.05604210       0.25000000       0.39563163 </v>
   <v>       0.21726050       0.25000000       0.40496175 </v>
   <v>       0.37952587       0.25000000       0.40598733 </v>
   <v>       0.54130184       0.25000000       0.40601922 </v>
   <v>       0.69518288       0.25000000       0.41205153 </v>
   <v>       0.10753471       0.75000002       0.59540251 </v>
   <v>       0.26931198       0.75000002       0.59378189 </v>
   <v>       0.43158871       0.75000002       0.59410008 </v>
   <v>       0.59448361       0.75000002       0.59318809 </v>
   <v>       0.02930286       0.07120844       0.14573670 </v>
   <v>       0.19309273       0.07001824       0.14602195 </v>
   <v>       0.35552876       0.06995938       0.14650254 </v>
   <v>       0.51774464       0.06990250       0.14560071 </v>
   <v>       0.67954605       0.07109922       0.14198024 </v>
   <v>       0.13192028       0.93033449       0.85409307 </v>
   <v>       0.29325712       0.93007069       0.85352365 </v>
   <v>       0.45555013       0.93006124       0.85342379 </v>
   <v>       0.61791215       0.93072589       0.85296044 </v>
   <v>       0.05039102       0.92890077       0.64198026 </v>
   <v>       0.21219244       0.93009749       0.64560073 </v>
   <v>       0.37440830       0.93004061       0.64650257 </v>
   <v>       0.53684437       0.92998175       0.64602197 </v>
   <v>       0.70063423       0.92879156       0.64573672 </v>
   <v>       0.11202488       0.06927411       0.35296044 </v>
   <v>       0.27438694       0.06993875       0.35342379 </v>
   <v>       0.43667993       0.06992930       0.35352365 </v>
   <v>       0.59801680       0.06966550       0.35409307 </v>
   <v>       0.13192028       0.56966551       0.85409307 </v>
   <v>       0.29325712       0.56992931       0.85352365 </v>
   <v>       0.45555013       0.56993876       0.85342379 </v>
   <v>       0.61791215       0.56927411       0.85296044 </v>
   <v>       0.02930286       0.42879156       0.14573670 </v>
   <v>       0.19309273       0.42998175       0.14602195 </v>
   <v>       0.35552876       0.43004061       0.14650254 </v>
   <v>       0.51774464       0.43009749       0.14560071 </v>
   <v>       0.67954605       0.42890077       0.14198024 </v>
   <v>       0.11202488       0.43072589       0.35296044 </v>
   <v>       0.27438694       0.43006124       0.35342379 </v>
   <v>       0.43667993       0.43007069       0.35352365 </v>
   <v>       0.59801680       0.43033449       0.35409307 </v>
   <v>       0.05039102       0.57109923       0.64198026 </v>
   <v>       0.21219244       0.56990251       0.64560073 </v>
   <v>       0.37440830       0.56995939       0.64650257 </v>
   <v>       0.53684437       0.57001825       0.64602197 </v>
   <v>       0.70063423       0.57120844       0.64573672 </v>
   <v>       0.01205939       0.75000002       0.61800570 </v>
   <v>       0.17576943       0.75000002       0.59140173 </v>
   <v>       0.33800544       0.75000002       0.59166109 </v>
   <v>       0.50037431       0.75000002       0.59175422 </v>
   <v>       0.66351425       0.75000002       0.58273722 </v>
   <v>       0.14832439       0.25000000       0.40773748 </v>
   <v>       0.31079095       0.25000000       0.40827821 </v>
   <v>       0.47307154       0.25000000       0.40824074 </v>
   <v>       0.63414711       0.25000000       0.40915611 </v>
   <v>       0.06642279       0.25000000       0.08273716 </v>
   <v>       0.22956277       0.25000000       0.09175416 </v>
   <v>       0.39193164       0.25000000       0.09166103 </v>
   <v>       0.55416767       0.25000000       0.09140167 </v>
   <v>       0.71787768       0.25000000       0.11800563 </v>
   <v>       0.09578995       0.75000002       0.90915615 </v>
   <v>       0.25686553       0.75000002       0.90824078 </v>
   <v>       0.41914610       0.75000002       0.90827825 </v>
   <v>       0.58161271       0.75000002       0.90773753 </v>
   <v>       0.02959421       0.25000000       0.96278277 </v>
   <v>       0.19379167       0.25000000       0.96403990 </v>
   <v>       0.35610980       0.25000000       0.96439359 </v>
   <v>       0.51839683       0.25000000       0.96360187 </v>
   <v>       0.68786318       0.25000000       0.96160950 </v>
   <v>       0.13075104       0.75000002       0.03690763 </v>
   <v>       0.29265365       0.75000002       0.03567365 </v>
   <v>       0.45494821       0.75000002       0.03554197 </v>
   <v>       0.61725400       0.75000002       0.03529628 </v>
   <v>       0.04207385       0.75000002       0.46160942 </v>
   <v>       0.21154024       0.75000002       0.46360179 </v>
   <v>       0.37382725       0.75000002       0.46439351 </v>
   <v>       0.53614541       0.75000002       0.46403982 </v>
   <v>       0.70034287       0.75000002       0.46278269 </v>
   <v>       0.11268307       0.25000000       0.53529626 </v>
   <v>       0.27498888       0.25000000       0.53554196 </v>
   <v>       0.43728340       0.25000000       0.53567364 </v>
   <v>       0.59918599       0.25000000       0.53690762 </v>
  </varray>
 </structure>
</modeling>
