<?xml version="1.0" encoding="ISO-8859-1"?>
<modeling>
 <generator>
  <i name="program" type="string">vasp </i>
  <i name="version" type="string">5.4.4.18Apr17-6-g9f103f2a35  </i>
  <i name="subversion" type="string">(build Nov 21 2017 15:30:27) complex            parallel </i>
  <i name="platform" type="string">LinuxIFC </i>
  <i name="date" type="string">2021 03 03 </i>
  <i name="time" type="string">20:23:30 </i>
 </generator>
 <incar>
  <i type="string" name="PREC">normal</i>
  <i type="int" name="ICHARG">    11</i>
  <i type="int" name="NELM">   100</i>
  <i name="EDIFF">      0.00000100</i>
  <i name="EDIFFG">     -0.01000000</i>
  <i name="ENCUT">    500.00000000</i>
  <i name="POTIM">      0.30000000</i>
  <i type="string" name="LREAL"> Auto       ! Projection in reciprocal s</i>
  <i type="int" name="ISMEAR">     0</i>
  <i name="SIGMA">      0.01000000</i>
  <i type="logical" name="LWAVE"> T  </i>
  <i type="logical" name="LCHARG"> T  </i>
  <i type="logical" name="LASPH"> T  </i>
  <v type="int" name="KPOINT_BSE">    -1     0     0     0</v>
  <i type="int" name="NELM">   100</i>
  <i type="string" name="GGA"> MK</i>
  <i name="PARAM1">      0.12340000</i>
  <i name="PARAM2">      0.71135700</i>
  <i type="logical" name="LUSE_VDW"> T  </i>
  <i name="Zab_VDW">     -1.88670000</i>
  <i name="AGGAC">      0.00000000</i>
  <i type="logical" name="LASPH"> T  </i>
 </incar>
 <structure name="primitive_cell" >
  <crystal>
   <varray name="basis" >
    <v>      46.26166235       0.00000000       0.00000000 </v>
    <v>       0.00000000       6.67732496       0.00000000 </v>
    <v>       0.00000000       0.00000000      11.43647175 </v>
   </varray>
   <i name="volume">   3532.77361687 </i>
   <varray name="rec_basis" >
    <v>       0.02161617       0.00000000       0.00000000 </v>
    <v>       0.00000000       0.14976057       0.00000000 </v>
    <v>       0.00000000       0.00000000       0.08743955 </v>
   </varray>
  </crystal>
  <varray name="positions" >
   <v>       0.00706690       0.25000000      -0.29946047 </v>
   <v>       0.03527710       0.25000000      -0.03705281 </v>
   <v>       0.06020629      -0.42910901      -0.35807684 </v>
   <v>       0.06020629      -0.07089099      -0.35807684 </v>
   <v>       0.01452496      -0.24999998      -0.38199481 </v>
   <v>       0.04161101      -0.24999998      -0.08772266 </v>
   <v>       0.06701653       0.25000000       0.39573995 </v>
   <v>       0.10035008       0.25000000      -0.19121024 </v>
   <v>       0.05027733      -0.24999998       0.46135003 </v>
   <v>       0.03498026       0.42912176       0.14607327 </v>
   <v>       0.03498026       0.07087823       0.14607327 </v>
   <v>       0.07919472       0.25000000       0.08296649 </v>
   <v>       0.13459954       0.25000000      -0.46445642 </v>
   <v>       0.11438279      -0.24999998      -0.09099941 </v>
   <v>       0.12832880      -0.24999998      -0.40467980 </v>
   <v>       0.13379957       0.43090404       0.35296225 </v>
   <v>       0.13379957       0.06909595       0.35296225 </v>
   <v>       0.15745880      -0.43065579      -0.14597287 </v>
   <v>       0.15745880      -0.06934421      -0.14597287 </v>
   <v>       0.09153061      -0.24999998       0.19277373 </v>
   <v>       0.16180807       0.25000000       0.09315823 </v>
   <v>       0.17710050       0.25000000       0.40771812 </v>
   <v>       0.15601666      -0.24999998       0.03709677 </v>
   <v>       0.19699500       0.25000000      -0.30991500 </v>
   <v>       0.21002526      -0.24999998      -0.40849770 </v>
   <v>       0.19047347      -0.24999998       0.30870004 </v>
   <v>       0.23138535       0.25000000      -0.03608536 </v>
   <v>       0.22506468      -0.24999998      -0.09417881 </v>
   <v>       0.23046552       0.43026240       0.14610794 </v>
   <v>       0.23046552       0.06973760       0.14610794 </v>
   <v>       0.25346482      -0.43032742      -0.35447821 </v>
   <v>       0.25346482      -0.06967258      -0.35447821 </v>
   <v>       0.25259036      -0.24999998       0.46328567 </v>
   <v>       0.25953591       0.25000000       0.40500472 </v>
   <v>       0.27396503       0.25000000       0.09209473 </v>
   <v>       0.29347814       0.25000000      -0.19089980 </v>
   <v>       0.30668149      -0.24999998      -0.09193704 </v>
   <v>       0.28723559      -0.24999998       0.19057323 </v>
   <v>       0.32154671      -0.24999998      -0.40626107 </v>
   <v>       0.32830864       0.25000000      -0.46439624 </v>
   <v>       0.32759700       0.43032600       0.35322181 </v>
   <v>       0.32759700       0.06967399       0.35322181 </v>
   <v>       0.35005210      -0.43032600      -0.14677819 </v>
   <v>       0.35005210      -0.06967400      -0.14677819 </v>
   <v>      -0.33687591       0.25000000       0.11800513 </v>
   <v>       0.34934044      -0.24999998       0.03560377 </v>
   <v>       0.35610237       0.25000000       0.09373895 </v>
   <v>      -0.32941780      -0.24999998       0.20053947 </v>
   <v>      -0.35733121      -0.42912176      -0.35392671 </v>
   <v>      -0.35733121      -0.07087824      -0.35392671 </v>
   <v>       0.37096757       0.25000000       0.40806292 </v>
   <v>      -0.35762803      -0.24999998       0.46294711 </v>
   <v>      -0.36396194       0.25000000       0.41227742 </v>
   <v>       0.39041347       0.25000000      -0.30942671 </v>
   <v>      -0.37262825       0.25000000      -0.03864989 </v>
   <v>       0.38417096      -0.24999998       0.30910016 </v>
   <v>       0.40368407      -0.24999998      -0.40790521 </v>
   <v>      -0.38255722       0.42910901       0.14192314 </v>
   <v>      -0.38255722       0.07089098       0.14192314 </v>
   <v>      -0.38936745      -0.24999998      -0.10426013 </v>
   <v>      -0.40154561      -0.24999998      -0.41703345 </v>
   <v>       0.41811317      -0.24999998      -0.09499537 </v>
   <v>      -0.41388155       0.25000000      -0.30722621 </v>
   <v>       0.42505872       0.25000000      -0.03671424 </v>
   <v>       0.42418424       0.43032742       0.14552177 </v>
   <v>       0.42418424       0.06967257       0.14552177 </v>
   <v>       0.44718354      -0.43026240      -0.35389204 </v>
   <v>       0.44718354      -0.06973760      -0.35389204 </v>
   <v>      -0.42270098      -0.24999998       0.30878972 </v>
   <v>       0.44626373      -0.24999998       0.46391455 </v>
   <v>      -0.43673373       0.25000000       0.40900055 </v>
   <v>       0.45258440       0.25000000       0.40582128 </v>
   <v>      -0.45615052      -0.43090404      -0.14703775 </v>
   <v>      -0.45615052      -0.06909596      -0.14703775 </v>
   <v>      -0.45067972       0.25000000       0.09532022 </v>
   <v>       0.46762380       0.25000000       0.09150224 </v>
   <v>      -0.45695047      -0.24999998       0.03554359 </v>
   <v>       0.48717559       0.25000000      -0.19129992 </v>
   <v>      -0.47836757       0.25000000      -0.46290324 </v>
   <v>       0.48065410      -0.24999998       0.19008494 </v>
   <v>      -0.47980969       0.43065579       0.35402713 </v>
   <v>      -0.47980969       0.06934420       0.35402713 </v>
   <v>      -0.48415899      -0.24999998      -0.40684179 </v>
   <v>      -0.49945140      -0.24999998      -0.09228184 </v>
  </varray>
 </structure>
 <varray name="primitive_index" >
  <v type="int" >        1 </v>
  <v type="int" >       71 </v>
  <v type="int" >       53 </v>
  <v type="int" >       36 </v>
  <v type="int" >       57 </v>
  <v type="int" >       15 </v>
  <v type="int" >       22 </v>
  <v type="int" >       12 </v>
  <v type="int" >       78 </v>
  <v type="int" >       46 </v>
  <v type="int" >       29 </v>
  <v type="int" >       64 </v>
  <v type="int" >       82 </v>
  <v type="int" >       68 </v>
  <v type="int" >       26 </v>
  <v type="int" >       50 </v>
  <v type="int" >       40 </v>
  <v type="int" >       43 </v>
  <v type="int" >       33 </v>
  <v type="int" >        8 </v>
  <v type="int" >       19 </v>
  <v type="int" >       61 </v>
  <v type="int" >       75 </v>
  <v type="int" >        2 </v>
  <v type="int" >       58 </v>
  <v type="int" >        5 </v>
  <v type="int" >       72 </v>
  <v type="int" >       16 </v>
  <v type="int" >       47 </v>
  <v type="int" >       30 </v>
  <v type="int" >       54 </v>
  <v type="int" >       37 </v>
  <v type="int" >       79 </v>
  <v type="int" >       23 </v>
  <v type="int" >       65 </v>
  <v type="int" >       13 </v>
  <v type="int" >       69 </v>
  <v type="int" >        9 </v>
  <v type="int" >       27 </v>
  <v type="int" >       83 </v>
  <v type="int" >       51 </v>
  <v type="int" >       41 </v>
  <v type="int" >       44 </v>
  <v type="int" >       34 </v>
  <v type="int" >       67 </v>
  <v type="int" >       76 </v>
  <v type="int" >       20 </v>
  <v type="int" >       11 </v>
  <v type="int" >       56 </v>
  <v type="int" >       39 </v>
  <v type="int" >       62 </v>
  <v type="int" >       81 </v>
  <v type="int" >       25 </v>
  <v type="int" >        3 </v>
  <v type="int" >       74 </v>
  <v type="int" >        6 </v>
  <v type="int" >       59 </v>
  <v type="int" >       49 </v>
  <v type="int" >       32 </v>
  <v type="int" >       18 </v>
  <v type="int" >       60 </v>
  <v type="int" >       17 </v>
  <v type="int" >        4 </v>
  <v type="int" >       73 </v>
  <v type="int" >       48 </v>
  <v type="int" >       31 </v>
  <v type="int" >       55 </v>
  <v type="int" >       38 </v>
  <v type="int" >        7 </v>
  <v type="int" >       80 </v>
  <v type="int" >       63 </v>
  <v type="int" >       24 </v>
  <v type="int" >       45 </v>
  <v type="int" >       35 </v>
  <v type="int" >       21 </v>
  <v type="int" >       66 </v>
  <v type="int" >       77 </v>
  <v type="int" >       14 </v>
  <v type="int" >       84 </v>
  <v type="int" >       10 </v>
  <v type="int" >       52 </v>
  <v type="int" >       42 </v>
  <v type="int" >       28 </v>
  <v type="int" >       70 </v>
 </varray>
 <kpoints>
  <generation param="listgenerated">
   <i name="divisions" type="int">      20 </i>
   <v>       0.00000000       0.00000000       0.00000000 </v>
   <v>       0.00000000       0.50000000       0.00000000 </v>
   <v>       0.00000000       0.50000000       0.50000000 </v>
   <v>       0.00000000       0.00000000       0.50000000 </v>
   <v>       0.00000000       0.00000000       0.00000000 </v>
  </generation>
  <varray name="kpointlist" >
   <v>       0.00000000       0.00000000       0.00000000 </v>
   <v>       0.00000000       0.02631579       0.00000000 </v>
   <v>       0.00000000       0.05263158       0.00000000 </v>
   <v>       0.00000000       0.07894737       0.00000000 </v>
   <v>       0.00000000       0.10526316       0.00000000 </v>
   <v>       0.00000000       0.13157895       0.00000000 </v>
   <v>       0.00000000       0.15789474       0.00000000 </v>
   <v>       0.00000000       0.18421053       0.00000000 </v>
   <v>       0.00000000       0.21052632       0.00000000 </v>
   <v>       0.00000000       0.23684211       0.00000000 </v>
   <v>       0.00000000       0.26315789       0.00000000 </v>
   <v>       0.00000000       0.28947368       0.00000000 </v>
   <v>       0.00000000       0.31578947       0.00000000 </v>
   <v>       0.00000000       0.34210526       0.00000000 </v>
   <v>       0.00000000       0.36842105       0.00000000 </v>
   <v>       0.00000000       0.39473684       0.00000000 </v>
   <v>       0.00000000       0.42105263       0.00000000 </v>
   <v>       0.00000000       0.44736842       0.00000000 </v>
   <v>       0.00000000       0.47368421       0.00000000 </v>
   <v>       0.00000000       0.50000000       0.00000000 </v>
   <v>       0.00000000       0.50000000       0.00000000 </v>
   <v>       0.00000000       0.50000000       0.02631579 </v>
   <v>       0.00000000       0.50000000       0.05263158 </v>
   <v>       0.00000000       0.50000000       0.07894737 </v>
   <v>       0.00000000       0.50000000       0.10526316 </v>
   <v>       0.00000000       0.50000000       0.13157895 </v>
   <v>       0.00000000       0.50000000       0.15789474 </v>
   <v>       0.00000000       0.50000000       0.18421053 </v>
   <v>       0.00000000       0.50000000       0.21052632 </v>
   <v>       0.00000000       0.50000000       0.23684211 </v>
   <v>       0.00000000       0.50000000       0.26315789 </v>
   <v>       0.00000000       0.50000000       0.28947368 </v>
   <v>       0.00000000       0.50000000       0.31578947 </v>
   <v>       0.00000000       0.50000000       0.34210526 </v>
   <v>       0.00000000       0.50000000       0.36842105 </v>
   <v>       0.00000000       0.50000000       0.39473684 </v>
   <v>       0.00000000       0.50000000       0.42105263 </v>
   <v>       0.00000000       0.50000000       0.44736842 </v>
   <v>       0.00000000       0.50000000       0.47368421 </v>
   <v>       0.00000000       0.50000000       0.50000000 </v>
   <v>       0.00000000       0.50000000       0.50000000 </v>
   <v>       0.00000000       0.47368421       0.50000000 </v>
   <v>       0.00000000       0.44736842       0.50000000 </v>
   <v>       0.00000000       0.42105263       0.50000000 </v>
   <v>       0.00000000       0.39473684       0.50000000 </v>
   <v>       0.00000000       0.36842105       0.50000000 </v>
   <v>       0.00000000       0.34210526       0.50000000 </v>
   <v>       0.00000000       0.31578947       0.50000000 </v>
   <v>       0.00000000       0.28947368       0.50000000 </v>
   <v>       0.00000000       0.26315789       0.50000000 </v>
   <v>       0.00000000       0.23684211       0.50000000 </v>
   <v>       0.00000000       0.21052632       0.50000000 </v>
   <v>       0.00000000       0.18421053       0.50000000 </v>
   <v>       0.00000000       0.15789474       0.50000000 </v>
   <v>       0.00000000       0.13157895       0.50000000 </v>
   <v>       0.00000000       0.10526316       0.50000000 </v>
   <v>       0.00000000       0.07894737       0.50000000 </v>
   <v>       0.00000000       0.05263158       0.50000000 </v>
   <v>       0.00000000       0.02631579       0.50000000 </v>
   <v>       0.00000000       0.00000000       0.50000000 </v>
   <v>       0.00000000       0.00000000       0.50000000 </v>
   <v>       0.00000000       0.00000000       0.47368421 </v>
   <v>       0.00000000       0.00000000       0.44736842 </v>
   <v>       0.00000000       0.00000000       0.42105263 </v>
   <v>       0.00000000       0.00000000       0.39473684 </v>
   <v>       0.00000000       0.00000000       0.36842105 </v>
   <v>       0.00000000       0.00000000       0.34210526 </v>
   <v>       0.00000000       0.00000000       0.31578947 </v>
   <v>       0.00000000       0.00000000       0.28947368 </v>
   <v>       0.00000000       0.00000000       0.26315789 </v>
   <v>       0.00000000       0.00000000       0.23684211 </v>
   <v>       0.00000000       0.00000000       0.21052632 </v>
   <v>       0.00000000       0.00000000       0.18421053 </v>
   <v>       0.00000000       0.00000000       0.15789474 </v>
   <v>       0.00000000       0.00000000       0.13157895 </v>
   <v>       0.00000000       0.00000000       0.10526316 </v>
   <v>       0.00000000       0.00000000       0.07894737 </v>
   <v>       0.00000000       0.00000000       0.05263158 </v>
   <v>       0.00000000       0.00000000       0.02631579 </v>
   <v>       0.00000000       0.00000000       0.00000000 </v>
  </varray>
  <varray name="weights" >
   <v>       0.01250000 </v>
   <v>       0.01250000 </v>
   <v>       0.01250000 </v>
   <v>       0.01250000 </v>
   <v>       0.01250000 </v>
   <v>       0.01250000 </v>
   <v>       0.01250000 </v>
   <v>       0.01250000 </v>
   <v>       0.01250000 </v>
   <v>       0.01250000 </v>
   <v>       0.01250000 </v>
   <v>       0.01250000 </v>
   <v>       0.01250000 </v>
   <v>       0.01250000 </v>
   <v>       0.01250000 </v>
   <v>       0.01250000 </v>
   <v>       0.01250000 </v>
   <v>       0.01250000 </v>
   <v>       0.01250000 </v>
   <v>       0.01250000 </v>
   <v>       0.01250000 </v>
   <v>       0.01250000 </v>
   <v>       0.01250000 </v>
   <v>       0.01250000 </v>
   <v>       0.01250000 </v>
   <v>       0.01250000 </v>
   <v>       0.01250000 </v>
   <v>       0.01250000 </v>
   <v>       0.01250000 </v>
   <v>       0.01250000 </v>
   <v>       0.01250000 </v>
   <v>       0.01250000 </v>
   <v>       0.01250000 </v>
   <v>       0.01250000 </v>
   <v>       0.01250000 </v>
   <v>       0.01250000 </v>
   <v>       0.01250000 </v>
   <v>       0.01250000 </v>
   <v>       0.01250000 </v>
   <v>       0.01250000 </v>
   <v>       0.01250000 </v>
   <v>       0.01250000 </v>
   <v>       0.01250000 </v>
   <v>       0.01250000 </v>
   <v>       0.01250000 </v>
   <v>       0.01250000 </v>
   <v>       0.01250000 </v>
   <v>       0.01250000 </v>
   <v>       0.01250000 </v>
   <v>       0.01250000 </v>
   <v>       0.01250000 </v>
   <v>       0.01250000 </v>
   <v>       0.01250000 </v>
   <v>       0.01250000 </v>
   <v>       0.01250000 </v>
   <v>       0.01250000 </v>
   <v>       0.01250000 </v>
   <v>       0.01250000 </v>
   <v>       0.01250000 </v>
   <v>       0.01250000 </v>
   <v>       0.01250000 </v>
   <v>       0.01250000 </v>
   <v>       0.01250000 </v>
   <v>       0.01250000 </v>
   <v>       0.01250000 </v>
   <v>       0.01250000 </v>
   <v>       0.01250000 </v>
   <v>       0.01250000 </v>
   <v>       0.01250000 </v>
   <v>       0.01250000 </v>
   <v>       0.01250000 </v>
   <v>       0.01250000 </v>
   <v>       0.01250000 </v>
   <v>       0.01250000 </v>
   <v>       0.01250000 </v>
   <v>       0.01250000 </v>
   <v>       0.01250000 </v>
   <v>       0.01250000 </v>
   <v>       0.01250000 </v>
   <v>       0.01250000 </v>
  </varray>
 </kpoints>
 <parameters>
  <separator name="general" >
   <i type="string" name="SYSTEM">unknown system</i>
   <i type="logical" name="LCOMPAT"> F  </i>
  </separator>
  <separator name="electronic" >
   <i type="string" name="PREC">normal</i>
   <i name="ENMAX">    500.00000000</i>
   <i name="ENAUG">    351.16500000</i>
   <i name="EDIFF">      0.00000100</i>
   <i type="int" name="IALGO">    38</i>
   <i type="int" name="IWAVPR">    10</i>
   <i type="int" name="NBANDS">   304</i>
   <i name="NELECT">    504.00000000</i>
   <i type="int" name="TURBO">     0</i>
   <i type="int" name="IRESTART">     0</i>
   <i type="int" name="NREBOOT">     0</i>
   <i type="int" name="NMIN">     0</i>
   <i name="EREF">      0.00000000</i>
   <separator name="electronic smearing" >
    <i type="int" name="ISMEAR">     0</i>
    <i name="SIGMA">      0.01000000</i>
    <i name="KSPACING">      0.50000000</i>
    <i type="logical" name="KGAMMA"> T  </i>
   </separator>
   <separator name="electronic projectors" >
    <i type="logical" name="LREAL"> T  </i>
    <v name="ROPT">     -0.00050000     -0.00050000</v>
    <i type="int" name="LMAXPAW">  -100</i>
    <i type="int" name="LMAXMIX">     2</i>
    <i type="logical" name="NLSPLINE"> F  </i>
   </separator>
   <separator name="electronic startup" >
    <i type="int" name="ISTART">     0</i>
    <i type="int" name="ICHARG">    11</i>
    <i type="int" name="INIWAV">     1</i>
   </separator>
   <separator name="electronic spin" >
    <i type="int" name="ISPIN">     1</i>
    <i type="logical" name="LNONCOLLINEAR"> F  </i>
    <v name="MAGMOM">      1.00000000      1.00000000      1.00000000      1.00000000      1.00000000      1.00000000      1.00000000      1.00000000      1.00000000      1.00000000      1.00000000      1.00000000      1.00000000      1.00000000      1.00000000      1.00000000      1.00000000      1.00000000      1.00000000      1.00000000
      1.00000000      1.00000000      1.00000000      1.00000000      1.00000000      1.00000000      1.00000000      1.00000000      1.00000000      1.00000000      1.00000000      1.00000000      1.00000000      1.00000000      1.00000000      1.00000000      1.00000000      1.00000000      1.00000000      1.00000000
      1.00000000      1.00000000      1.00000000      1.00000000      1.00000000      1.00000000      1.00000000      1.00000000      1.00000000      1.00000000      1.00000000      1.00000000      1.00000000      1.00000000      1.00000000      1.00000000      1.00000000      1.00000000      1.00000000      1.00000000
      1.00000000      1.00000000      1.00000000      1.00000000      1.00000000      1.00000000      1.00000000      1.00000000      1.00000000      1.00000000      1.00000000      1.00000000      1.00000000      1.00000000      1.00000000      1.00000000      1.00000000      1.00000000      1.00000000      1.00000000
      1.00000000      1.00000000      1.00000000      1.00000000</v>
    <i name="NUPDOWN">     -1.00000000</i>
    <i type="logical" name="LSORBIT"> F  </i>
    <v name="SAXIS">      0.00000000      0.00000000      1.00000000</v>
    <i type="logical" name="LSPIRAL"> F  </i>
    <v name="QSPIRAL">      0.00000000      0.00000000      0.00000000</v>
    <i type="logical" name="LZEROZ"> F  </i>
   </separator>
   <separator name="electronic exchange-correlation" >
    <i type="logical" name="LASPH"> T  </i>
    <i type="logical" name="LMETAGGA"> F  </i>
   </separator>
   <separator name="electronic convergence" >
    <i type="int" name="NELM">   100</i>
    <i type="int" name="NELMDL">    -5</i>
    <i type="int" name="NELMIN">     2</i>
    <i name="ENINI">    500.00000000</i>
    <separator name="electronic convergence detail" >
     <i type="logical" name="LDIAG"> T  </i>
     <i type="logical" name="LSUBROT"> F  </i>
     <i name="WEIMIN">      0.00000000</i>
     <i name="EBREAK">      0.00000000</i>
     <i name="DEPER">      0.30000000</i>
     <i type="int" name="NRMM">     4</i>
     <i name="TIME">      0.40000000</i>
    </separator>
   </separator>
   <separator name="electronic mixer" >
    <i name="AMIX">      0.40000000</i>
    <i name="BMIX">      1.00000000</i>
    <i name="AMIN">      0.10000000</i>
    <i name="AMIX_MAG">      1.60000000</i>
    <i name="BMIX_MAG">      1.00000000</i>
    <separator name="electronic mixer details" >
     <i type="int" name="IMIX">     4</i>
     <i type="logical" name="MIXFIRST"> F  </i>
     <i type="int" name="MAXMIX">   -45</i>
     <i name="WC">    100.00000000</i>
     <i type="int" name="INIMIX">     1</i>
     <i type="int" name="MIXPRE">     1</i>
     <i type="int" name="MREMOVE">     5</i>
    </separator>
   </separator>
   <separator name="electronic dipolcorrection" >
    <i type="logical" name="LDIPOL"> F  </i>
    <i type="logical" name="LMONO"> F  </i>
    <i type="int" name="IDIPOL">     0</i>
    <i name="EPSILON">      1.00000000</i>
    <v name="DIPOL">   -100.00000000   -100.00000000   -100.00000000</v>
    <i name="EFIELD">      0.00000000</i>
   </separator>
  </separator>
  <separator name="grids" >
   <i type="int" name="NGX">   256</i>
   <i type="int" name="NGY">    40</i>
   <i type="int" name="NGZ">    64</i>
   <i type="int" name="NGXF">   512</i>
   <i type="int" name="NGYF">    80</i>
   <i type="int" name="NGZF">   128</i>
   <i type="logical" name="ADDGRID"> F  </i>
  </separator>
  <separator name="ionic" >
   <i type="int" name="NSW">     0</i>
   <i type="int" name="IBRION">    -1</i>
   <i type="int" name="MDALGO">     0</i>
   <i type="int" name="ISIF">     2</i>
   <i name="PSTRESS">      0.00000000</i>
   <i name="EDIFFG">     -0.01000000</i>
   <i type="int" name="NFREE">     0</i>
   <i name="POTIM">      0.30000000</i>
   <i name="SMASS">     -3.00000000</i>
   <i name="SCALEE">      1.00000000</i>
  </separator>
  <separator name="ionic md" >
   <i name="TEBEG">      0.00010000</i>
   <i name="TEEND">      0.00010000</i>
   <i type="int" name="NBLOCK">     1</i>
   <i type="int" name="KBLOCK">     1</i>
   <i type="int" name="NPACO">   256</i>
   <i name="APACO">     16.00000000</i>
  </separator>
  <separator name="symmetry" >
   <i type="int" name="ISYM">     2</i>
   <i name="SYMPREC">      0.00001000</i>
  </separator>
  <separator name="dos" >
   <i type="int" name="LORBIT">     0</i>
   <v name="RWIGS">     -1.00000000     -1.00000000</v>
   <i type="int" name="NEDOS">   301</i>
   <i name="EMIN">     10.00000000</i>
   <i name="EMAX">    -10.00000000</i>
   <i name="EFERMI">      0.00000000</i>
  </separator>
  <separator name="writing" >
   <i type="int" name="NWRITE">     2</i>
   <i type="logical" name="LWAVE"> T  </i>
   <i type="logical" name="LDOWNSAMPLE"> F  </i>
   <i type="logical" name="LCHARG"> T  </i>
   <i type="logical" name="LPARD"> F  </i>
   <i type="logical" name="LVTOT"> F  </i>
   <i type="logical" name="LVHAR"> F  </i>
   <i type="logical" name="LELF"> F  </i>
   <i type="logical" name="LOPTICS"> F  </i>
   <v name="STM">      0.00000000      0.00000000      0.00000000      0.00000000      0.00000000      0.00000000      0.00000000</v>
  </separator>
  <separator name="performance" >
   <i type="int" name="NPAR">     8</i>
   <i type="int" name="NSIM">     4</i>
   <i type="int" name="NBLK">    -1</i>
   <i type="logical" name="LPLANE"> T  </i>
   <i type="logical" name="LSCALAPACK"> T  </i>
   <i type="logical" name="LSCAAWARE"> F  </i>
   <i type="logical" name="LSCALU"> F  </i>
   <i type="logical" name="LASYNC"> F  </i>
   <i type="logical" name="LORBITALREAL"> F  </i>
  </separator>
  <separator name="miscellaneous" >
   <i type="int" name="IDIOT">     3</i>
   <i type="int" name="ISPECIAL">     0</i>
   <i type="logical" name="LMUSIC"> F  </i>
   <v name="POMASS">    137.32700000     28.08500000</v>
   <v name="DARWINR">      0.00000000      0.00000000</v>
   <v name="DARWINV">      1.00000000      1.00000000</v>
   <i type="logical" name="LCORR"> T  </i>
  </separator>
  <i type="logical" name="GGA_COMPAT"> T  </i>
  <i type="logical" name="LBERRY"> F  </i>
  <i type="int" name="ICORELEVEL">     0</i>
  <i type="logical" name="LDAU"> F  </i>
  <i type="int" name="I_CONSTRAINED_M">     0</i>
  <separator name="electronic exchange-correlation" >
   <i type="string" name="GGA">MK</i>
   <i type="int" name="VOSKOWN">     0</i>
   <i type="logical" name="LHFCALC"> F  </i>
   <i type="string" name="PRECFOCK"></i>
   <i type="logical" name="LSYMGRAD"> F  </i>
   <i type="logical" name="LHFONE"> F  </i>
   <i type="logical" name="LRHFCALC"> F  </i>
   <i type="logical" name="LTHOMAS"> F  </i>
   <i type="logical" name="LMODELHF"> F  </i>
   <i name="ENCUT4O">     -1.00000000</i>
   <i type="int" name="EXXOEP">     0</i>
   <i type="int" name="FOURORBIT">     0</i>
   <i name="AEXX">      0.00000000</i>
   <i name="HFALPHA">      0.00000000</i>
   <i name="MCALPHA">      0.00000000</i>
   <i name="ALDAX">      1.00000000</i>
   <i name="AGGAX">      1.00000000</i>
   <i name="ALDAC">      1.00000000</i>
   <i name="AGGAC">      0.00000000</i>
   <i type="int" name="NKREDX">     1</i>
   <i type="int" name="NKREDY">     1</i>
   <i type="int" name="NKREDZ">     1</i>
   <i type="logical" name="SHIFTRED"> F  </i>
   <i type="logical" name="ODDONLY"> F  </i>
   <i type="logical" name="EVENONLY"> F  </i>
   <i type="int" name="LMAXFOCK">     0</i>
   <i type="int" name="NMAXFOCKAE">     0</i>
   <i type="logical" name="LFOCKAEDFT"> F  </i>
   <i name="HFSCREEN">      0.00000000</i>
   <i name="HFSCREENC">      0.00000000</i>
   <i type="int" name="NBANDSGWLOW">     0</i>
  </separator>
  <separator name="vdW DFT" >
   <i type="logical" name="LUSE_VDW"> T  </i>
   <i name="Zab_VDW">     -1.88670000</i>
   <i name="PARAM1">      0.12340000</i>
   <i name="PARAM2">      0.71135700</i>
   <i name="PARAM3">      0.00000000</i>
  </separator>
  <separator name="model GW" >
   <i type="int" name="MODEL_GW">     0</i>
   <i name="MODEL_EPS0">     25.23409726</i>
   <i name="MODEL_ALPHA">      1.00000000</i>
  </separator>
  <separator name="linear response parameters" >
   <i type="logical" name="LEPSILON"> F  </i>
   <i type="logical" name="LRPA"> F  </i>
   <i type="logical" name="LNABLA"> F  </i>
   <i type="logical" name="LVEL"> F  </i>
   <i type="int" name="KINTER">     0</i>
   <i name="CSHIFT">      0.10000000</i>
   <i name="OMEGAMAX">     -1.00000000</i>
   <i name="DEG_THRESHOLD">      0.00200000</i>
   <i name="RTIME">     -0.10000000</i>
   <i name="WPLASMAI">      0.00000000</i>
   <v name="DFIELD">      0.00000000      0.00000000      0.00000000</v>
   <v name="WPLASMA">      0.00000000      0.00000000      0.00000000      0.00000000      0.00000000      0.00000000      0.00000000      0.00000000      0.00000000</v>
  </separator>
  <separator name="orbital magnetization" >
   <i type="logical" name="NUCIND"> F  </i>
   <v name="MAGPOS">      0.00000000      0.00000000      0.00000000</v>
   <i type="logical" name="LNICSALL"> T  </i>
   <i type="logical" name="ORBITALMAG"> F  </i>
   <i type="logical" name="LMAGBLOCH"> F  </i>
   <i type="logical" name="LCHIMAG"> F  </i>
   <i type="logical" name="LGAUGE"> T  </i>
   <i type="int" name="MAGATOM">     0</i>
   <v name="MAGDIPOL">      0.00000000      0.00000000      0.00000000</v>
   <v name="AVECCONST">      0.00000000      0.00000000      0.00000000</v>
  </separator>
  <separator name="response functions" >
   <i type="logical" name="LADDER"> F  </i>
   <i type="logical" name="LRPAFORCE"> F  </i>
   <i type="logical" name="LFXC"> F  </i>
   <i type="logical" name="LHARTREE"> T  </i>
   <i type="int" name="IBSE">     0</i>
   <v type="int" name="KPOINT">    -1     0     0     0</v>
   <i type="logical" name="LTCTE"> F  </i>
   <i type="logical" name="LTETE"> F  </i>
   <i type="logical" name="LTRIPLET"> F  </i>
   <i type="logical" name="LFXCEPS"> F  </i>
   <i type="logical" name="LFXHEG"> F  </i>
   <i type="int" name="NATURALO">     2</i>
   <i type="logical" name="L2ORDER"> F  </i>
   <i type="logical" name="LMP2LT"> F  </i>
   <i type="logical" name="LUSEW"> F  </i>
   <i name="ENCUTGW">     -2.00000000</i>
   <i name="ENCUTGWSOFT">     -2.00000000</i>
   <i name="ENCUTLF">     -1.00000000</i>
   <i type="int" name="LMAXMP2">    -1</i>
   <i name="SCISSOR">      0.00000000</i>
   <i type="int" name="NOMEGA">     0</i>
   <i type="int" name="NOMEGAR">     0</i>
   <i type="int" name="NBANDSGW">    -1</i>
   <i type="int" name="NBANDSO">    -1</i>
   <i type="int" name="NBANDSV">    -1</i>
   <i type="int" name="NELM">   100</i>
   <i type="int" name="NELMHF">     1</i>
   <i type="int" name="DIM">     3</i>
   <i type="int" name="ANTIRES">     0</i>
   <i name="OMEGAMAX">    -30.00000000</i>
   <i name="OMEGAMIN">    -30.00000000</i>
   <i name="OMEGATL">   -200.00000000</i>
   <i type="int" name="OMEGAGRID">   140</i>
   <i name="CSHIFT">     -0.10000000</i>
   <i type="logical" name="SELFENERGY"> F  </i>
   <i type="logical" name="LSPECTRAL"> F  </i>
   <i type="logical" name="LSPECTRALGW"> F  </i>
   <i type="logical" name="LSINGLES"> F  </i>
   <i type="logical" name="LFERMIGW"> F  </i>
   <i type="logical" name="ODDONLYGW"> F  </i>
   <i type="logical" name="EVENONLYGW"> F  </i>
   <i type="int" name="NKREDLFX">     1</i>
   <i type="int" name="NKREDLFY">     1</i>
   <i type="int" name="NKREDLFZ">     1</i>
   <i type="int" name="MAXMEM">  2800</i>
   <i type="int" name="TELESCOPE">     0</i>
   <i type="int" name="TAUPAR">     1</i>
   <i type="int" name="OMEGAPAR">    -1</i>
   <i name="LAMBDA">      1.00000000</i>
  </separator>
  <separator name="External order field" >
   <i name="OFIELD_KAPPA">      0.00000000</i>
   <v name="OFIELD_K">      0.00000000      0.00000000      0.00000000</v>
   <i name="OFIELD_Q6_NEAR">      0.00000000</i>
   <i name="OFIELD_Q6_FAR">      0.00000000</i>
   <i name="OFIELD_A">      0.00000000</i>
  </separator>
 </parameters>
 <atominfo>
  <atoms>      84 </atoms>
  <types>       2 </types>
  <array name="atoms" >
   <dimension dim="1">ion</dimension>
   <field type="string">element</field>
   <field type="int">atomtype</field>
   <set>
    <rc><c>Ba</c><c>   1</c></rc>
    <rc><c>Ba</c><c>   1</c></rc>
    <rc><c>Ba</c><c>   1</c></rc>
    <rc><c>Ba</c><c>   1</c></rc>
    <rc><c>Ba</c><c>   1</c></rc>
    <rc><c>Ba</c><c>   1</c></rc>
    <rc><c>Ba</c><c>   1</c></rc>
    <rc><c>Ba</c><c>   1</c></rc>
    <rc><c>Ba</c><c>   1</c></rc>
    <rc><c>Ba</c><c>   1</c></rc>
    <rc><c>Ba</c><c>   1</c></rc>
    <rc><c>Ba</c><c>   1</c></rc>
    <rc><c>Ba</c><c>   1</c></rc>
    <rc><c>Ba</c><c>   1</c></rc>
    <rc><c>Ba</c><c>   1</c></rc>
    <rc><c>Ba</c><c>   1</c></rc>
    <rc><c>Ba</c><c>   1</c></rc>
    <rc><c>Ba</c><c>   1</c></rc>
    <rc><c>Ba</c><c>   1</c></rc>
    <rc><c>Ba</c><c>   1</c></rc>
    <rc><c>Ba</c><c>   1</c></rc>
    <rc><c>Ba</c><c>   1</c></rc>
    <rc><c>Ba</c><c>   1</c></rc>
    <rc><c>Ba</c><c>   1</c></rc>
    <rc><c>Ba</c><c>   1</c></rc>
    <rc><c>Ba</c><c>   1</c></rc>
    <rc><c>Ba</c><c>   1</c></rc>
    <rc><c>Ba</c><c>   1</c></rc>
    <rc><c>Si</c><c>   2</c></rc>
    <rc><c>Si</c><c>   2</c></rc>
    <rc><c>Si</c><c>   2</c></rc>
    <rc><c>Si</c><c>   2</c></rc>
    <rc><c>Si</c><c>   2</c></rc>
    <rc><c>Si</c><c>   2</c></rc>
    <rc><c>Si</c><c>   2</c></rc>
    <rc><c>Si</c><c>   2</c></rc>
    <rc><c>Si</c><c>   2</c></rc>
    <rc><c>Si</c><c>   2</c></rc>
    <rc><c>Si</c><c>   2</c></rc>
    <rc><c>Si</c><c>   2</c></rc>
    <rc><c>Si</c><c>   2</c></rc>
    <rc><c>Si</c><c>   2</c></rc>
    <rc><c>Si</c><c>   2</c></rc>
    <rc><c>Si</c><c>   2</c></rc>
    <rc><c>Si</c><c>   2</c></rc>
    <rc><c>Si</c><c>   2</c></rc>
    <rc><c>Si</c><c>   2</c></rc>
    <rc><c>Si</c><c>   2</c></rc>
    <rc><c>Si</c><c>   2</c></rc>
    <rc><c>Si</c><c>   2</c></rc>
    <rc><c>Si</c><c>   2</c></rc>
    <rc><c>Si</c><c>   2</c></rc>
    <rc><c>Si</c><c>   2</c></rc>
    <rc><c>Si</c><c>   2</c></rc>
    <rc><c>Si</c><c>   2</c></rc>
    <rc><c>Si</c><c>   2</c></rc>
    <rc><c>Si</c><c>   2</c></rc>
    <rc><c>Si</c><c>   2</c></rc>
    <rc><c>Si</c><c>   2</c></rc>
    <rc><c>Si</c><c>   2</c></rc>
    <rc><c>Si</c><c>   2</c></rc>
    <rc><c>Si</c><c>   2</c></rc>
    <rc><c>Si</c><c>   2</c></rc>
    <rc><c>Si</c><c>   2</c></rc>
    <rc><c>Si</c><c>   2</c></rc>
    <rc><c>Si</c><c>   2</c></rc>
    <rc><c>Si</c><c>   2</c></rc>
    <rc><c>Si</c><c>   2</c></rc>
    <rc><c>Si</c><c>   2</c></rc>
    <rc><c>Si</c><c>   2</c></rc>
    <rc><c>Si</c><c>   2</c></rc>
    <rc><c>Si</c><c>   2</c></rc>
    <rc><c>Si</c><c>   2</c></rc>
    <rc><c>Si</c><c>   2</c></rc>
    <rc><c>Si</c><c>   2</c></rc>
    <rc><c>Si</c><c>   2</c></rc>
    <rc><c>Si</c><c>   2</c></rc>
    <rc><c>Si</c><c>   2</c></rc>
    <rc><c>Si</c><c>   2</c></rc>
    <rc><c>Si</c><c>   2</c></rc>
    <rc><c>Si</c><c>   2</c></rc>
    <rc><c>Si</c><c>   2</c></rc>
    <rc><c>Si</c><c>   2</c></rc>
    <rc><c>Si</c><c>   2</c></rc>
   </set>
  </array>
  <array name="atomtypes" >
   <dimension dim="1">type</dimension>
   <field type="int">atomspertype</field>
   <field type="string">element</field>
   <field>mass</field>
   <field>valence</field>
   <field type="string">pseudopotential</field>
   <set>
    <rc><c>  28</c><c>Ba</c><c>    137.32700000</c><c>     10.00000000</c><c> PAW_PBE Ba_sv 06Sep2000                </c></rc>
    <rc><c>  56</c><c>Si</c><c>     28.08500000</c><c>      4.00000000</c><c> PAW_PBE Si 05Jan2001                   </c></rc>
   </set>
  </array>
 </atominfo>
 <structure name="initialpos" >
  <crystal>
   <varray name="basis" >
    <v>      46.26166235       0.00000000       0.00000000 </v>
    <v>       0.00000000       6.67732496       0.00000000 </v>
    <v>       0.00000000       0.00000000      11.43647175 </v>
   </varray>
   <i name="volume">   3532.77361687 </i>
   <varray name="rec_basis" >
    <v>       0.02161617       0.00000000       0.00000000 </v>
    <v>       0.00000000       0.14976057       0.00000000 </v>
    <v>       0.00000000       0.00000000       0.08743955 </v>
   </varray>
  </crystal>
  <varray name="positions" >
   <v>       0.00706690       0.25000000       0.70053953 </v>
   <v>       0.19699500       0.25000000       0.69008500 </v>
   <v>       0.39041347       0.25000000       0.69057329 </v>
   <v>       0.58611845       0.25000000       0.69277379 </v>
   <v>       0.19047347       0.75000002       0.30870004 </v>
   <v>       0.38417096       0.75000002       0.30910016 </v>
   <v>       0.57729902       0.75000002       0.30878972 </v>
   <v>       0.09153061       0.75000002       0.19277373 </v>
   <v>       0.28723559       0.75000002       0.19057323 </v>
   <v>       0.48065410       0.75000002       0.19008494 </v>
   <v>       0.67058220       0.75000002       0.20053947 </v>
   <v>       0.10035008       0.25000000       0.80878976 </v>
   <v>       0.29347814       0.25000000       0.80910020 </v>
   <v>       0.48717559       0.25000000       0.80870008 </v>
   <v>       0.04161101       0.75000002       0.91227734 </v>
   <v>       0.22506468       0.75000002       0.90582119 </v>
   <v>       0.41811317       0.75000002       0.90500463 </v>
   <v>       0.61063255       0.75000002       0.89573987 </v>
   <v>       0.16180807       0.25000000       0.09315823 </v>
   <v>       0.35610237       0.25000000       0.09373895 </v>
   <v>       0.54932028       0.25000000       0.09532022 </v>
   <v>       0.06701653       0.25000000       0.39573995 </v>
   <v>       0.25953591       0.25000000       0.40500472 </v>
   <v>       0.45258440       0.25000000       0.40582128 </v>
   <v>       0.63603806       0.25000000       0.41227742 </v>
   <v>       0.12832880       0.75000002       0.59532020 </v>
   <v>       0.32154671       0.75000002       0.59373893 </v>
   <v>       0.51584101       0.75000002       0.59315821 </v>
   <v>       0.03498026       0.07087823       0.14607327 </v>
   <v>       0.23046552       0.06973760       0.14610794 </v>
   <v>       0.42418424       0.06967257       0.14552177 </v>
   <v>       0.61744278       0.07089098       0.14192314 </v>
   <v>       0.15745880       0.93065579       0.85402713 </v>
   <v>       0.35005210       0.93032600       0.85322181 </v>
   <v>       0.54384948       0.93090404       0.85296225 </v>
   <v>       0.06020629       0.92910901       0.64192316 </v>
   <v>       0.25346482       0.93032742       0.64552179 </v>
   <v>       0.44718354       0.93026240       0.64610796 </v>
   <v>       0.64266879       0.92912176       0.64607329 </v>
   <v>       0.13379957       0.06909595       0.35296225 </v>
   <v>       0.32759700       0.06967399       0.35322181 </v>
   <v>       0.52019031       0.06934420       0.35402713 </v>
   <v>       0.15745880       0.56934421       0.85402713 </v>
   <v>       0.35005210       0.56967400       0.85322181 </v>
   <v>       0.54384948       0.56909596       0.85296225 </v>
   <v>       0.03498026       0.42912176       0.14607327 </v>
   <v>       0.23046552       0.43026240       0.14610794 </v>
   <v>       0.42418424       0.43032742       0.14552177 </v>
   <v>       0.61744278       0.42910901       0.14192314 </v>
   <v>       0.13379957       0.43090404       0.35296225 </v>
   <v>       0.32759700       0.43032600       0.35322181 </v>
   <v>       0.52019031       0.43065579       0.35402713 </v>
   <v>       0.06020629       0.57089099       0.64192316 </v>
   <v>       0.25346482       0.56967258       0.64552179 </v>
   <v>       0.44718354       0.56973760       0.64610796 </v>
   <v>       0.64266879       0.57087824       0.64607329 </v>
   <v>       0.01452496       0.75000002       0.61800519 </v>
   <v>       0.21002526       0.75000002       0.59150230 </v>
   <v>       0.40368407       0.75000002       0.59209479 </v>
   <v>       0.59845439       0.75000002       0.58296655 </v>
   <v>       0.17710050       0.25000000       0.40771812 </v>
   <v>       0.37096757       0.25000000       0.40806292 </v>
   <v>       0.56326627       0.25000000       0.40900055 </v>
   <v>       0.07919472       0.25000000       0.08296649 </v>
   <v>       0.27396503       0.25000000       0.09209473 </v>
   <v>       0.46762380       0.25000000       0.09150224 </v>
   <v>       0.66312409       0.25000000       0.11800513 </v>
   <v>       0.11438279       0.75000002       0.90900059 </v>
   <v>       0.30668149       0.75000002       0.90806296 </v>
   <v>       0.50054860       0.75000002       0.90771816 </v>
   <v>       0.03527710       0.25000000       0.96294719 </v>
   <v>       0.23138535       0.25000000       0.96391464 </v>
   <v>       0.42505872       0.25000000       0.96328576 </v>
   <v>       0.62737175       0.25000000       0.96135011 </v>
   <v>       0.15601666       0.75000002       0.03709677 </v>
   <v>       0.34934044       0.75000002       0.03560377 </v>
   <v>       0.54304953       0.75000002       0.03554359 </v>
   <v>       0.05027733       0.75000002       0.46135003 </v>
   <v>       0.25259036       0.75000002       0.46328567 </v>
   <v>       0.44626373       0.75000002       0.46391455 </v>
   <v>       0.64237197       0.75000002       0.46294711 </v>
   <v>       0.13459954       0.25000000       0.53554358 </v>
   <v>       0.32830864       0.25000000       0.53560376 </v>
   <v>       0.52163243       0.25000000       0.53709676 </v>
  </varray>
 </structure>
 <calculation>
  <scstep>
   <time name="dav">   65.73   65.90</time>
   <time name="total">   68.60   68.90</time>
   <energy>
    <i name="alphaZ">   1115.96122760 </i>
    <i name="ewald">  99554.79395717 </i>
    <i name="hartreedc">-123592.58806065 </i>
    <i name="XCdc">    170.68980269 </i>
    <i name="pawpsdc">  13533.77985861 </i>
    <i name="pawaedc"> -12503.37200552 </i>
    <i name="eentropy">     -0.00152436 </i>
    <i name="bandstr">   -193.50846753 </i>
    <i name="atom">  25442.03008949 </i>
    <i name="e_fr_energy">   3527.78487750 </i>
    <i name="e_wo_entrp">   3527.78640186 </i>
    <i name="e_0_energy">   3527.78563968 </i>
   </energy>
  </scstep>
  <scstep>
   <time name="dav">   82.23   82.44</time>
   <time name="total">   82.24   82.45</time>
   <energy>
    <i name="e_fr_energy">    125.27767326 </i>
    <i name="e_wo_entrp">    125.27810451 </i>
    <i name="e_0_energy">    125.27788888 </i>
   </energy>
  </scstep>
  <scstep>
   <time name="dav">   77.73   77.93</time>
   <time name="total">   77.74   77.94</time>
   <energy>
    <i name="e_fr_energy">   -313.62337205 </i>
    <i name="e_wo_entrp">   -313.62337205 </i>
    <i name="e_0_energy">   -313.62337205 </i>
   </energy>
  </scstep>
  <scstep>
   <time name="dav">   86.82   87.04</time>
   <time name="total">   86.83   87.05</time>
   <energy>
    <i name="e_fr_energy">   -333.74759888 </i>
    <i name="e_wo_entrp">   -333.74759888 </i>
    <i name="e_0_energy">   -333.74759888 </i>
   </energy>
  </scstep>
  <scstep>
   <time name="dav">   93.01   93.25</time>
   <time name="total">   93.02   93.25</time>
   <energy>
    <i name="e_fr_energy">   -334.64600320 </i>
    <i name="e_wo_entrp">   -334.64600320 </i>
    <i name="e_0_energy">   -334.64600320 </i>
   </energy>
  </scstep>
  <scstep>
   <time name="dav">   84.66   84.87</time>
   <time name="total">   84.66   84.88</time>
   <energy>
    <i name="e_fr_energy">   -334.66793285 </i>
    <i name="e_wo_entrp">   -334.66793285 </i>
    <i name="e_0_energy">   -334.66793285 </i>
   </energy>
  </scstep>
  <scstep>
   <time name="dav">   92.88   93.11</time>
   <time name="total">   92.88   93.12</time>
   <energy>
    <i name="e_fr_energy">   -334.66892679 </i>
    <i name="e_wo_entrp">   -334.66892679 </i>
    <i name="e_0_energy">   -334.66892679 </i>
   </energy>
  </scstep>
  <scstep>
   <time name="dav">   84.40   84.62</time>
   <time name="total">   84.41   84.62</time>
   <energy>
    <i name="e_fr_energy">   -334.66896473 </i>
    <i name="e_wo_entrp">   -334.66896473 </i>
    <i name="e_0_energy">   -334.66896473 </i>
   </energy>
  </scstep>
  <scstep>
   <time name="dav">   76.37   76.56</time>
   <time name="total">   76.37   76.57</time>
   <energy>
    <i name="e_fr_energy">   -334.66896669 </i>
    <i name="e_wo_entrp">   -334.66896669 </i>
    <i name="e_0_energy">   -334.66896669 </i>
   </energy>
  </scstep>
  <scstep>
   <time name="dav">   53.35   53.49</time>
   <time name="total">   53.35   53.49</time>
   <energy>
    <i name="alphaZ">   1115.96122760 </i>
    <i name="ewald">  99554.79395717 </i>
    <i name="hartreedc">-123592.58806065 </i>
    <i name="XCdc">    170.68980269 </i>
    <i name="pawpsdc">  13533.77985861 </i>
    <i name="pawaedc"> -12503.37200552 </i>
    <i name="eentropy">     -0.00000000 </i>
    <i name="bandstr">  -4055.96383616 </i>
    <i name="atom">  25442.03008949 </i>
    <i name="e_fr_energy">   -334.66896678 </i>
    <i name="e_wo_entrp">   -334.66896678 </i>
    <i name="e_0_energy">   -334.66896678 </i>
   </energy>
  </scstep>
  <structure>
   <crystal>
    <varray name="basis" >
     <v>      46.26166235       0.00000000       0.00000000 </v>
     <v>       0.00000000       6.67732496       0.00000000 </v>
     <v>       0.00000000       0.00000000      11.43647175 </v>
    </varray>
    <i name="volume">   3532.77361687 </i>
    <varray name="rec_basis" >
     <v>       0.02161617       0.00000000       0.00000000 </v>
     <v>       0.00000000       0.14976057       0.00000000 </v>
     <v>       0.00000000       0.00000000       0.08743955 </v>
    </varray>
   </crystal>
   <varray name="positions" >
    <v>       0.00706690       0.25000000       0.70053953 </v>
    <v>       0.19699500       0.25000000       0.69008500 </v>
    <v>       0.39041347       0.25000000       0.69057329 </v>
    <v>       0.58611845       0.25000000       0.69277379 </v>
    <v>       0.19047347       0.75000002       0.30870004 </v>
    <v>       0.38417096       0.75000002       0.30910016 </v>
    <v>       0.57729902       0.75000002       0.30878972 </v>
    <v>       0.09153061       0.75000002       0.19277373 </v>
    <v>       0.28723559       0.75000002       0.19057323 </v>
    <v>       0.48065410       0.75000002       0.19008494 </v>
    <v>       0.67058220       0.75000002       0.20053947 </v>
    <v>       0.10035008       0.25000000       0.80878976 </v>
    <v>       0.29347814       0.25000000       0.80910020 </v>
    <v>       0.48717559       0.25000000       0.80870008 </v>
    <v>       0.04161101       0.75000002       0.91227734 </v>
    <v>       0.22506468       0.75000002       0.90582119 </v>
    <v>       0.41811317       0.75000002       0.90500463 </v>
    <v>       0.61063255       0.75000002       0.89573987 </v>
    <v>       0.16180807       0.25000000       0.09315823 </v>
    <v>       0.35610237       0.25000000       0.09373895 </v>
    <v>       0.54932028       0.25000000       0.09532022 </v>
    <v>       0.06701653       0.25000000       0.39573995 </v>
    <v>       0.25953591       0.25000000       0.40500472 </v>
    <v>       0.45258440       0.25000000       0.40582128 </v>
    <v>       0.63603806       0.25000000       0.41227742 </v>
    <v>       0.12832880       0.75000002       0.59532020 </v>
    <v>       0.32154671       0.75000002       0.59373893 </v>
    <v>       0.51584101       0.75000002       0.59315821 </v>
    <v>       0.03498026       0.07087823       0.14607327 </v>
    <v>       0.23046552       0.06973760       0.14610794 </v>
    <v>       0.42418424       0.06967257       0.14552177 </v>
    <v>       0.61744278       0.07089098       0.14192314 </v>
    <v>       0.15745880       0.93065579       0.85402713 </v>
    <v>       0.35005210       0.93032600       0.85322181 </v>
    <v>       0.54384948       0.93090404       0.85296225 </v>
    <v>       0.06020629       0.92910901       0.64192316 </v>
    <v>       0.25346482       0.93032742       0.64552179 </v>
    <v>       0.44718354       0.93026240       0.64610796 </v>
    <v>       0.64266879       0.92912176       0.64607329 </v>
    <v>       0.13379957       0.06909595       0.35296225 </v>
    <v>       0.32759700       0.06967399       0.35322181 </v>
    <v>       0.52019031       0.06934420       0.35402713 </v>
    <v>       0.15745880       0.56934421       0.85402713 </v>
    <v>       0.35005210       0.56967400       0.85322181 </v>
    <v>       0.54384948       0.56909596       0.85296225 </v>
    <v>       0.03498026       0.42912176       0.14607327 </v>
    <v>       0.23046552       0.43026240       0.14610794 </v>
    <v>       0.42418424       0.43032742       0.14552177 </v>
    <v>       0.61744278       0.42910901       0.14192314 </v>
    <v>       0.13379957       0.43090404       0.35296225 </v>
    <v>       0.32759700       0.43032600       0.35322181 </v>
    <v>       0.52019031       0.43065579       0.35402713 </v>
    <v>       0.06020629       0.57089099       0.64192316 </v>
    <v>       0.25346482       0.56967258       0.64552179 </v>
    <v>       0.44718354       0.56973760       0.64610796 </v>
    <v>       0.64266879       0.57087824       0.64607329 </v>
    <v>       0.01452496       0.75000002       0.61800519 </v>
    <v>       0.21002526       0.75000002       0.59150230 </v>
    <v>       0.40368407       0.75000002       0.59209479 </v>
    <v>       0.59845439       0.75000002       0.58296655 </v>
    <v>       0.17710050       0.25000000       0.40771812 </v>
    <v>       0.37096757       0.25000000       0.40806292 </v>
    <v>       0.56326627       0.25000000       0.40900055 </v>
    <v>       0.07919472       0.25000000       0.08296649 </v>
    <v>       0.27396503       0.25000000       0.09209473 </v>
    <v>       0.46762380       0.25000000       0.09150224 </v>
    <v>       0.66312409       0.25000000       0.11800513 </v>
    <v>       0.11438279       0.75000002       0.90900059 </v>
    <v>       0.30668149       0.75000002       0.90806296 </v>
    <v>       0.50054860       0.75000002       0.90771816 </v>
    <v>       0.03527710       0.25000000       0.96294719 </v>
    <v>       0.23138535       0.25000000       0.96391464 </v>
    <v>       0.42505872       0.25000000       0.96328576 </v>
    <v>       0.62737175       0.25000000       0.96135011 </v>
    <v>       0.15601666       0.75000002       0.03709677 </v>
    <v>       0.34934044       0.75000002       0.03560377 </v>
    <v>       0.54304953       0.75000002       0.03554359 </v>
    <v>       0.05027733       0.75000002       0.46135003 </v>
    <v>       0.25259036       0.75000002       0.46328567 </v>
    <v>       0.44626373       0.75000002       0.46391455 </v>
    <v>       0.64237197       0.75000002       0.46294711 </v>
    <v>       0.13459954       0.25000000       0.53554358 </v>
    <v>       0.32830864       0.25000000       0.53560376 </v>
    <v>       0.52163243       0.25000000       0.53709676 </v>
   </varray>
  </structure>
  <varray name="forces" >
   <v>       0.02231810       0.00000000      -0.03526716 </v>
   <v>       0.03341766       0.00000000      -0.02105863 </v>
   <v>       0.03567023       0.00000000      -0.02288838 </v>
   <v>       0.05968167       0.00000000      -0.02601694 </v>
   <v>      -0.03981080       0.00000000       0.02211946 </v>
   <v>      -0.03671178       0.00000000       0.02203670 </v>
   <v>      -0.04097387       0.00000000       0.01651408 </v>
   <v>      -0.05968167       0.00000000      -0.02601694 </v>
   <v>      -0.03567023       0.00000000      -0.02288838 </v>
   <v>      -0.03341766       0.00000000      -0.02105863 </v>
   <v>      -0.02231810       0.00000000      -0.03526716 </v>
   <v>       0.04097387       0.00000000       0.01651408 </v>
   <v>       0.03671178       0.00000000       0.02203670 </v>
   <v>       0.03981080       0.00000000       0.02211946 </v>
   <v>       0.00818554       0.00000000      -0.00555697 </v>
   <v>       0.01212140       0.00000000       0.02554643 </v>
   <v>       0.01778441       0.00000000       0.02719184 </v>
   <v>       0.02118310       0.00000000       0.03121102 </v>
   <v>      -0.01249835       0.00000000      -0.02668348 </v>
   <v>      -0.01755064       0.00000000      -0.02844837 </v>
   <v>      -0.01197236       0.00000000      -0.02580421 </v>
   <v>      -0.02118310       0.00000000       0.03121102 </v>
   <v>      -0.01778441       0.00000000       0.02719184 </v>
   <v>      -0.01212140       0.00000000       0.02554643 </v>
   <v>      -0.00818554       0.00000000      -0.00555697 </v>
   <v>       0.01197236       0.00000000      -0.02580421 </v>
   <v>       0.01755064       0.00000000      -0.02844837 </v>
   <v>       0.01249835       0.00000000      -0.02668348 </v>
   <v>       0.01888166       0.00826357       0.00626293 </v>
   <v>       0.02570103       0.02985021      -0.01072005 </v>
   <v>       0.02525220       0.02659614      -0.00894645 </v>
   <v>       0.01726216       0.03216542      -0.00114226 </v>
   <v>      -0.02023517      -0.02323519       0.01469323 </v>
   <v>      -0.02428281      -0.02627940       0.00932028 </v>
   <v>      -0.03211618      -0.03106049       0.01525678 </v>
   <v>      -0.01726216      -0.03216542      -0.00114226 </v>
   <v>      -0.02525220      -0.02659614      -0.00894645 </v>
   <v>      -0.02570103      -0.02985021      -0.01072005 </v>
   <v>      -0.01888166      -0.00826357       0.00626293 </v>
   <v>       0.03211618       0.03106049       0.01525678 </v>
   <v>       0.02428281       0.02627940       0.00932028 </v>
   <v>       0.02023517       0.02323519       0.01469323 </v>
   <v>      -0.02023517       0.02323519       0.01469323 </v>
   <v>      -0.02428281       0.02627940       0.00932028 </v>
   <v>      -0.03211618       0.03106049       0.01525678 </v>
   <v>       0.01888166      -0.00826357       0.00626293 </v>
   <v>       0.02570103      -0.02985021      -0.01072005 </v>
   <v>       0.02525220      -0.02659614      -0.00894645 </v>
   <v>       0.01726216      -0.03216542      -0.00114226 </v>
   <v>       0.03211618      -0.03106049       0.01525678 </v>
   <v>       0.02428281      -0.02627940       0.00932028 </v>
   <v>       0.02023517      -0.02323519       0.01469323 </v>
   <v>      -0.01726216       0.03216542      -0.00114226 </v>
   <v>      -0.02525220       0.02659614      -0.00894645 </v>
   <v>      -0.02570103       0.02985021      -0.01072005 </v>
   <v>      -0.01888166       0.00826357       0.00626293 </v>
   <v>       0.02761626       0.00000000       0.01845244 </v>
   <v>       0.00373022       0.00000000       0.01427518 </v>
   <v>       0.00148422       0.00000000       0.01083439 </v>
   <v>      -0.02194197       0.00000000      -0.00099473 </v>
   <v>      -0.00405487       0.00000000      -0.01368354 </v>
   <v>      -0.00059921       0.00000000      -0.01574790 </v>
   <v>       0.00867305       0.00000000      -0.01125926 </v>
   <v>       0.02194197       0.00000000      -0.00099473 </v>
   <v>      -0.00148422       0.00000000       0.01083439 </v>
   <v>      -0.00373022       0.00000000       0.01427518 </v>
   <v>      -0.02761626       0.00000000       0.01845244 </v>
   <v>      -0.00867305       0.00000000      -0.01125926 </v>
   <v>       0.00059921       0.00000000      -0.01574790 </v>
   <v>       0.00405487       0.00000000      -0.01368354 </v>
   <v>       0.00440263       0.00000000       0.00431063 </v>
   <v>      -0.00879636       0.00000000      -0.00167863 </v>
   <v>      -0.00953626       0.00000000      -0.00196854 </v>
   <v>      -0.00172669       0.00000000      -0.00409487 </v>
   <v>       0.01264169       0.00000000      -0.00146975 </v>
   <v>       0.00936616       0.00000000       0.00026820 </v>
   <v>       0.01063994       0.00000000       0.00041208 </v>
   <v>       0.00172669       0.00000000      -0.00409487 </v>
   <v>       0.00953626       0.00000000      -0.00196854 </v>
   <v>       0.00879636       0.00000000      -0.00167863 </v>
   <v>      -0.00440263       0.00000000       0.00431063 </v>
   <v>      -0.01063994       0.00000000       0.00041208 </v>
   <v>      -0.00936616       0.00000000       0.00026820 </v>
   <v>      -0.01264169       0.00000000      -0.00146975 </v>
  </varray>
  <varray name="stress" >
   <v>      -0.31700783       0.00000000       0.00000000 </v>
   <v>       0.00000000      -0.50456493       0.00000000 </v>
   <v>       0.00000000       0.00000000      -0.62359097 </v>
  </varray>
  <energy>
   <i name="e_fr_energy">   -334.66896678 </i>
   <i name="e_wo_entrp">   -334.66896678 </i>
   <i name="e_0_energy">     -0.00000000 </i>
  </energy>
  <time name="totalsc"> 1004.13 1019.31</time>
  <eigenvalues>
   <array>
    <dimension dim="1">band</dimension>
    <dimension dim="2">kpoint</dimension>
    <dimension dim="3">spin</dimension>
    <field>eigene</field>
    <field>occ</field>
    <set>
     <set comment="spin 1">
      <set comment="kpoint 1">
       <r>  -27.2475    1.0000 </r>
       <r>  -27.2475    1.0000 </r>
       <r>  -26.2772    1.0000 </r>
       <r>  -26.2769    1.0000 </r>
       <r>  -26.2631    1.0000 </r>
       <r>  -26.2628    1.0000 </r>
       <r>  -26.2469    1.0000 </r>
       <r>  -26.2468    1.0000 </r>
       <r>  -26.1972    1.0000 </r>
       <r>  -26.1938    1.0000 </r>
       <r>  -26.1895    1.0000 </r>
       <r>  -26.1891    1.0000 </r>
       <r>  -26.1813    1.0000 </r>
       <r>  -26.1813    1.0000 </r>
       <r>  -26.1725    1.0000 </r>
       <r>  -26.1722    1.0000 </r>
       <r>  -26.1182    1.0000 </r>
       <r>  -26.1180    1.0000 </r>
       <r>  -26.1146    1.0000 </r>
       <r>  -26.1144    1.0000 </r>
       <r>  -26.1121    1.0000 </r>
       <r>  -26.1094    1.0000 </r>
       <r>  -26.1071    1.0000 </r>
       <r>  -26.1068    1.0000 </r>
       <r>  -26.0973    1.0000 </r>
       <r>  -26.0968    1.0000 </r>
       <r>  -26.0564    1.0000 </r>
       <r>  -26.0562    1.0000 </r>
       <r>  -12.6220    1.0000 </r>
       <r>  -12.6219    1.0000 </r>
       <r>  -12.5493    1.0000 </r>
       <r>  -12.5493    1.0000 </r>
       <r>  -12.4571    1.0000 </r>
       <r>  -12.4570    1.0000 </r>
       <r>  -11.8649    1.0000 </r>
       <r>  -11.8646    1.0000 </r>
       <r>  -11.8007    1.0000 </r>
       <r>  -11.7990    1.0000 </r>
       <r>  -11.7900    1.0000 </r>
       <r>  -11.7657    1.0000 </r>
       <r>  -11.7563    1.0000 </r>
       <r>  -11.7353    1.0000 </r>
       <r>  -11.7296    1.0000 </r>
       <r>  -11.7285    1.0000 </r>
       <r>  -11.7239    1.0000 </r>
       <r>  -11.7023    1.0000 </r>
       <r>  -11.6969    1.0000 </r>
       <r>  -11.6799    1.0000 </r>
       <r>  -11.6766    1.0000 </r>
       <r>  -11.6671    1.0000 </r>
       <r>  -11.6610    1.0000 </r>
       <r>  -11.6465    1.0000 </r>
       <r>  -11.6413    1.0000 </r>
       <r>  -11.6396    1.0000 </r>
       <r>  -11.6342    1.0000 </r>
       <r>  -11.6285    1.0000 </r>
       <r>  -11.6246    1.0000 </r>
       <r>  -11.6191    1.0000 </r>
       <r>  -11.6164    1.0000 </r>
       <r>  -11.6103    1.0000 </r>
       <r>  -11.6061    1.0000 </r>
       <r>  -11.6045    1.0000 </r>
       <r>  -11.6008    1.0000 </r>
       <r>  -11.5977    1.0000 </r>
       <r>  -11.5975    1.0000 </r>
       <r>  -11.5945    1.0000 </r>
       <r>  -11.5905    1.0000 </r>
       <r>  -11.5882    1.0000 </r>
       <r>  -11.5856    1.0000 </r>
       <r>  -11.5760    1.0000 </r>
       <r>  -11.5741    1.0000 </r>
       <r>  -11.5714    1.0000 </r>
       <r>  -11.5686    1.0000 </r>
       <r>  -11.5651    1.0000 </r>
       <r>  -11.5639    1.0000 </r>
       <r>  -11.5548    1.0000 </r>
       <r>  -11.5335    1.0000 </r>
       <r>  -11.5265    1.0000 </r>
       <r>  -11.5116    1.0000 </r>
       <r>  -11.4901    1.0000 </r>
       <r>  -11.4573    1.0000 </r>
       <r>  -11.4537    1.0000 </r>
       <r>  -11.4417    1.0000 </r>
       <r>  -11.4414    1.0000 </r>
       <r>  -11.4375    1.0000 </r>
       <r>  -11.4318    1.0000 </r>
       <r>  -11.4274    1.0000 </r>
       <r>  -11.4226    1.0000 </r>
       <r>  -11.4197    1.0000 </r>
       <r>  -11.4130    1.0000 </r>
       <r>  -11.4118    1.0000 </r>
       <r>  -11.4118    1.0000 </r>
       <r>  -11.4069    1.0000 </r>
       <r>  -11.4064    1.0000 </r>
       <r>  -11.3971    1.0000 </r>
       <r>  -11.3956    1.0000 </r>
       <r>  -11.3904    1.0000 </r>
       <r>  -11.3867    1.0000 </r>
       <r>  -11.3827    1.0000 </r>
       <r>  -11.3812    1.0000 </r>
       <r>  -11.3800    1.0000 </r>
       <r>  -11.3763    1.0000 </r>
       <r>  -11.3689    1.0000 </r>
       <r>  -11.3687    1.0000 </r>
       <r>  -11.3674    1.0000 </r>
       <r>  -11.3636    1.0000 </r>
       <r>  -11.3554    1.0000 </r>
       <r>  -11.3553    1.0000 </r>
       <r>  -11.3551    1.0000 </r>
       <r>  -11.3496    1.0000 </r>
       <r>  -11.3428    1.0000 </r>
       <r>  -11.3426    1.0000 </r>
       <r>   -9.4702    1.0000 </r>
       <r>   -9.4122    1.0000 </r>
       <r>   -9.3324    1.0000 </r>
       <r>   -9.2550    1.0000 </r>
       <r>   -9.2099    1.0000 </r>
       <r>   -9.2019    1.0000 </r>
       <r>   -9.1962    1.0000 </r>
       <r>   -9.1761    1.0000 </r>
       <r>   -9.1725    1.0000 </r>
       <r>   -9.1724    1.0000 </r>
       <r>   -9.1514    1.0000 </r>
       <r>   -9.1445    1.0000 </r>
       <r>   -8.7977    1.0000 </r>
       <r>   -8.7976    1.0000 </r>
       <r>   -4.8584    1.0000 </r>
       <r>   -4.8487    1.0000 </r>
       <r>   -4.8107    1.0000 </r>
       <r>   -4.8004    1.0000 </r>
       <r>   -4.7774    1.0000 </r>
       <r>   -4.6943    1.0000 </r>
       <r>   -4.6596    1.0000 </r>
       <r>   -4.6027    1.0000 </r>
       <r>   -4.5443    1.0000 </r>
       <r>   -4.5165    1.0000 </r>
       <r>   -4.5069    1.0000 </r>
       <r>   -4.4891    1.0000 </r>
       <r>   -4.4829    1.0000 </r>
       <r>   -4.4737    1.0000 </r>
       <r>   -4.4371    1.0000 </r>
       <r>   -4.4371    1.0000 </r>
       <r>   -4.4081    1.0000 </r>
       <r>   -4.4061    1.0000 </r>
       <r>   -4.3844    1.0000 </r>
       <r>   -4.3820    1.0000 </r>
       <r>   -4.3759    1.0000 </r>
       <r>   -4.3642    1.0000 </r>
       <r>   -4.3466    1.0000 </r>
       <r>   -4.3448    1.0000 </r>
       <r>   -4.3380    1.0000 </r>
       <r>   -4.3280    1.0000 </r>
       <r>   -4.2924    1.0000 </r>
       <r>   -4.2878    1.0000 </r>
       <r>   -4.2876    1.0000 </r>
       <r>   -4.2770    1.0000 </r>
       <r>   -4.2746    1.0000 </r>
       <r>   -4.2735    1.0000 </r>
       <r>   -4.2463    1.0000 </r>
       <r>   -4.2354    1.0000 </r>
       <r>   -4.1970    1.0000 </r>
       <r>   -4.1727    1.0000 </r>
       <r>   -4.0942    1.0000 </r>
       <r>   -4.0833    1.0000 </r>
       <r>   -3.9979    1.0000 </r>
       <r>   -3.9769    1.0000 </r>
       <r>   -3.7640    1.0000 </r>
       <r>   -3.7639    1.0000 </r>
       <r>   -2.1890    1.0000 </r>
       <r>   -1.9968    1.0000 </r>
       <r>   -1.7510    1.0000 </r>
       <r>   -1.5100    1.0000 </r>
       <r>   -1.3167    1.0000 </r>
       <r>   -1.1918    1.0000 </r>
       <r>   -1.1474    1.0000 </r>
       <r>   -1.1381    1.0000 </r>
       <r>   -1.1325    1.0000 </r>
       <r>   -1.1275    1.0000 </r>
       <r>   -1.0747    1.0000 </r>
       <r>   -1.0127    1.0000 </r>
       <r>   -1.0083    1.0000 </r>
       <r>   -0.9232    1.0000 </r>
       <r>   -0.7902    1.0000 </r>
       <r>   -0.7536    1.0000 </r>
       <r>   -0.6805    1.0000 </r>
       <r>   -0.6698    1.0000 </r>
       <r>   -0.5772    1.0000 </r>
       <r>   -0.5143    1.0000 </r>
       <r>   -0.4654    1.0000 </r>
       <r>   -0.4561    1.0000 </r>
       <r>   -0.3937    1.0000 </r>
       <r>   -0.3684    1.0000 </r>
       <r>   -0.3629    1.0000 </r>
       <r>   -0.3545    1.0000 </r>
       <r>   -0.3149    1.0000 </r>
       <r>   -0.3030    1.0000 </r>
       <r>   -0.2732    1.0000 </r>
       <r>   -0.2565    1.0000 </r>
       <r>   -0.2472    1.0000 </r>
       <r>   -0.2127    1.0000 </r>
       <r>   -0.1860    1.0000 </r>
       <r>   -0.1858    1.0000 </r>
       <r>   -0.1758    1.0000 </r>
       <r>   -0.1468    1.0000 </r>
       <r>   -0.1069    1.0000 </r>
       <r>   -0.0885    1.0000 </r>
       <r>   -0.0794    1.0000 </r>
       <r>   -0.0790    1.0000 </r>
       <r>   -0.0463    1.0000 </r>
       <r>   -0.0217    1.0000 </r>
       <r>    0.0014    1.0000 </r>
       <r>    0.0051    1.0000 </r>
       <r>    0.0386    1.0000 </r>
       <r>    0.0869    1.0000 </r>
       <r>    0.0952    1.0000 </r>
       <r>    0.1002    1.0000 </r>
       <r>    0.1801    1.0000 </r>
       <r>    0.1980    1.0000 </r>
       <r>    0.1987    1.0000 </r>
       <r>    0.2227    1.0000 </r>
       <r>    0.2306    1.0000 </r>
       <r>    0.2560    1.0000 </r>
       <r>    0.2632    1.0000 </r>
       <r>    0.2735    1.0000 </r>
       <r>    0.2951    1.0000 </r>
       <r>    0.3180    1.0000 </r>
       <r>    0.3193    1.0000 </r>
       <r>    0.3300    1.0000 </r>
       <r>    0.3535    1.0000 </r>
       <r>    0.3629    1.0000 </r>
       <r>    0.3663    1.0000 </r>
       <r>    0.3922    1.0000 </r>
       <r>    0.5407    1.0000 </r>
       <r>    0.5500    1.0000 </r>
       <r>    0.6529    1.0000 </r>
       <r>    0.6644    1.0000 </r>
       <r>    0.6780    1.0000 </r>
       <r>    0.6854    1.0000 </r>
       <r>    0.6875    1.0000 </r>
       <r>    0.7005    1.0000 </r>
       <r>    0.7201    1.0000 </r>
       <r>    0.7567    1.0000 </r>
       <r>    0.8379    1.0000 </r>
       <r>    0.8751    1.0000 </r>
       <r>    0.8876    1.0000 </r>
       <r>    0.8995    1.0000 </r>
       <r>    0.9620    1.0000 </r>
       <r>    0.9758    1.0000 </r>
       <r>    1.0614    1.0000 </r>
       <r>    1.0620    1.0000 </r>
       <r>    1.0786    1.0000 </r>
       <r>    1.1121    1.0000 </r>
       <r>    2.2800    0.0000 </r>
       <r>    2.3133    0.0000 </r>
       <r>    2.3513    0.0000 </r>
       <r>    2.3956    0.0000 </r>
       <r>    2.4569    0.0000 </r>
       <r>    2.4869    0.0000 </r>
       <r>    2.5407    0.0000 </r>
       <r>    2.5518    0.0000 </r>
       <r>    2.5624    0.0000 </r>
       <r>    2.5655    0.0000 </r>
       <r>    2.5671    0.0000 </r>
       <r>    2.6085    0.0000 </r>
       <r>    2.6382    0.0000 </r>
       <r>    2.7097    0.0000 </r>
       <r>    2.7289    0.0000 </r>
       <r>    2.7567    0.0000 </r>
       <r>    2.8069    0.0000 </r>
       <r>    2.8137    0.0000 </r>
       <r>    2.8431    0.0000 </r>
       <r>    2.8681    0.0000 </r>
       <r>    2.9329    0.0000 </r>
       <r>    2.9347    0.0000 </r>
       <r>    3.0034    0.0000 </r>
       <r>    3.0952    0.0000 </r>
       <r>    3.1092    0.0000 </r>
       <r>    3.1691    0.0000 </r>
       <r>    3.1706    0.0000 </r>
       <r>    3.1798    0.0000 </r>
       <r>    3.1871    0.0000 </r>
       <r>    3.2584    0.0000 </r>
       <r>    3.2607    0.0000 </r>
       <r>    3.3425    0.0000 </r>
       <r>    3.4477    0.0000 </r>
       <r>    3.4688    0.0000 </r>
       <r>    3.5532    0.0000 </r>
       <r>    3.5780    0.0000 </r>
       <r>    3.5838    0.0000 </r>
       <r>    3.6757    0.0000 </r>
       <r>    3.7244    0.0000 </r>
       <r>    3.7304    0.0000 </r>
       <r>    3.7452    0.0000 </r>
       <r>    3.7482    0.0000 </r>
       <r>    3.7526    0.0000 </r>
       <r>    3.8438    0.0000 </r>
       <r>    3.8467    0.0000 </r>
       <r>    3.9057    0.0000 </r>
       <r>    3.9636    0.0000 </r>
       <r>    3.9755    0.0000 </r>
       <r>    3.9836    0.0000 </r>
       <r>    4.0570    0.0000 </r>
       <r>    4.0653    0.0000 </r>
       <r>    4.1068    0.0000 </r>
      </set>
      <set comment="kpoint 2">
       <r>  -27.2475    1.0000 </r>
       <r>  -27.2475    1.0000 </r>
       <r>  -26.2772    1.0000 </r>
       <r>  -26.2769    1.0000 </r>
       <r>  -26.2631    1.0000 </r>
       <r>  -26.2627    1.0000 </r>
       <r>  -26.2469    1.0000 </r>
       <r>  -26.2468    1.0000 </r>
       <r>  -26.1971    1.0000 </r>
       <r>  -26.1937    1.0000 </r>
       <r>  -26.1895    1.0000 </r>
       <r>  -26.1891    1.0000 </r>
       <r>  -26.1813    1.0000 </r>
       <r>  -26.1813    1.0000 </r>
       <r>  -26.1724    1.0000 </r>
       <r>  -26.1722    1.0000 </r>
       <r>  -26.1182    1.0000 </r>
       <r>  -26.1180    1.0000 </r>
       <r>  -26.1146    1.0000 </r>
       <r>  -26.1144    1.0000 </r>
       <r>  -26.1121    1.0000 </r>
       <r>  -26.1094    1.0000 </r>
       <r>  -26.1071    1.0000 </r>
       <r>  -26.1068    1.0000 </r>
       <r>  -26.0973    1.0000 </r>
       <r>  -26.0968    1.0000 </r>
       <r>  -26.0564    1.0000 </r>
       <r>  -26.0562    1.0000 </r>
       <r>  -12.6219    1.0000 </r>
       <r>  -12.6219    1.0000 </r>
       <r>  -12.5493    1.0000 </r>
       <r>  -12.5493    1.0000 </r>
       <r>  -12.4573    1.0000 </r>
       <r>  -12.4573    1.0000 </r>
       <r>  -11.8648    1.0000 </r>
       <r>  -11.8646    1.0000 </r>
       <r>  -11.8009    1.0000 </r>
       <r>  -11.7989    1.0000 </r>
       <r>  -11.7906    1.0000 </r>
       <r>  -11.7669    1.0000 </r>
       <r>  -11.7567    1.0000 </r>
       <r>  -11.7408    1.0000 </r>
       <r>  -11.7299    1.0000 </r>
       <r>  -11.7231    1.0000 </r>
       <r>  -11.7227    1.0000 </r>
       <r>  -11.7017    1.0000 </r>
       <r>  -11.6970    1.0000 </r>
       <r>  -11.6806    1.0000 </r>
       <r>  -11.6771    1.0000 </r>
       <r>  -11.6670    1.0000 </r>
       <r>  -11.6614    1.0000 </r>
       <r>  -11.6474    1.0000 </r>
       <r>  -11.6421    1.0000 </r>
       <r>  -11.6399    1.0000 </r>
       <r>  -11.6345    1.0000 </r>
       <r>  -11.6297    1.0000 </r>
       <r>  -11.6252    1.0000 </r>
       <r>  -11.6229    1.0000 </r>
       <r>  -11.6173    1.0000 </r>
       <r>  -11.6112    1.0000 </r>
       <r>  -11.6079    1.0000 </r>
       <r>  -11.6015    1.0000 </r>
       <r>  -11.6013    1.0000 </r>
       <r>  -11.5990    1.0000 </r>
       <r>  -11.5973    1.0000 </r>
       <r>  -11.5961    1.0000 </r>
       <r>  -11.5896    1.0000 </r>
       <r>  -11.5861    1.0000 </r>
       <r>  -11.5842    1.0000 </r>
       <r>  -11.5781    1.0000 </r>
       <r>  -11.5770    1.0000 </r>
       <r>  -11.5726    1.0000 </r>
       <r>  -11.5700    1.0000 </r>
       <r>  -11.5672    1.0000 </r>
       <r>  -11.5528    1.0000 </r>
       <r>  -11.5521    1.0000 </r>
       <r>  -11.5335    1.0000 </r>
       <r>  -11.5262    1.0000 </r>
       <r>  -11.5115    1.0000 </r>
       <r>  -11.4900    1.0000 </r>
       <r>  -11.4575    1.0000 </r>
       <r>  -11.4544    1.0000 </r>
       <r>  -11.4418    1.0000 </r>
       <r>  -11.4415    1.0000 </r>
       <r>  -11.4376    1.0000 </r>
       <r>  -11.4315    1.0000 </r>
       <r>  -11.4270    1.0000 </r>
       <r>  -11.4230    1.0000 </r>
       <r>  -11.4195    1.0000 </r>
       <r>  -11.4127    1.0000 </r>
       <r>  -11.4125    1.0000 </r>
       <r>  -11.4110    1.0000 </r>
       <r>  -11.4068    1.0000 </r>
       <r>  -11.4062    1.0000 </r>
       <r>  -11.3972    1.0000 </r>
       <r>  -11.3956    1.0000 </r>
       <r>  -11.3905    1.0000 </r>
       <r>  -11.3865    1.0000 </r>
       <r>  -11.3836    1.0000 </r>
       <r>  -11.3821    1.0000 </r>
       <r>  -11.3779    1.0000 </r>
       <r>  -11.3761    1.0000 </r>
       <r>  -11.3687    1.0000 </r>
       <r>  -11.3686    1.0000 </r>
       <r>  -11.3675    1.0000 </r>
       <r>  -11.3635    1.0000 </r>
       <r>  -11.3558    1.0000 </r>
       <r>  -11.3555    1.0000 </r>
       <r>  -11.3548    1.0000 </r>
       <r>  -11.3491    1.0000 </r>
       <r>  -11.3428    1.0000 </r>
       <r>  -11.3426    1.0000 </r>
       <r>   -9.4686    1.0000 </r>
       <r>   -9.4109    1.0000 </r>
       <r>   -9.3315    1.0000 </r>
       <r>   -9.2545    1.0000 </r>
       <r>   -9.2096    1.0000 </r>
       <r>   -9.2016    1.0000 </r>
       <r>   -9.1959    1.0000 </r>
       <r>   -9.1759    1.0000 </r>
       <r>   -9.1723    1.0000 </r>
       <r>   -9.1722    1.0000 </r>
       <r>   -9.1513    1.0000 </r>
       <r>   -9.1445    1.0000 </r>
       <r>   -8.7973    1.0000 </r>
       <r>   -8.7972    1.0000 </r>
       <r>   -4.8566    1.0000 </r>
       <r>   -4.8468    1.0000 </r>
       <r>   -4.8092    1.0000 </r>
       <r>   -4.7990    1.0000 </r>
       <r>   -4.7766    1.0000 </r>
       <r>   -4.6936    1.0000 </r>
       <r>   -4.6604    1.0000 </r>
       <r>   -4.6020    1.0000 </r>
       <r>   -4.5451    1.0000 </r>
       <r>   -4.5184    1.0000 </r>
       <r>   -4.5042    1.0000 </r>
       <r>   -4.4900    1.0000 </r>
       <r>   -4.4824    1.0000 </r>
       <r>   -4.4714    1.0000 </r>
       <r>   -4.4392    1.0000 </r>
       <r>   -4.4365    1.0000 </r>
       <r>   -4.4068    1.0000 </r>
       <r>   -4.4066    1.0000 </r>
       <r>   -4.3832    1.0000 </r>
       <r>   -4.3831    1.0000 </r>
       <r>   -4.3780    1.0000 </r>
       <r>   -4.3635    1.0000 </r>
       <r>   -4.3498    1.0000 </r>
       <r>   -4.3457    1.0000 </r>
       <r>   -4.3369    1.0000 </r>
       <r>   -4.3258    1.0000 </r>
       <r>   -4.2968    1.0000 </r>
       <r>   -4.2874    1.0000 </r>
       <r>   -4.2863    1.0000 </r>
       <r>   -4.2822    1.0000 </r>
       <r>   -4.2757    1.0000 </r>
       <r>   -4.2680    1.0000 </r>
       <r>   -4.2466    1.0000 </r>
       <r>   -4.2368    1.0000 </r>
       <r>   -4.2013    1.0000 </r>
       <r>   -4.1702    1.0000 </r>
       <r>   -4.0934    1.0000 </r>
       <r>   -4.0827    1.0000 </r>
       <r>   -3.9974    1.0000 </r>
       <r>   -3.9769    1.0000 </r>
       <r>   -3.7658    1.0000 </r>
       <r>   -3.7658    1.0000 </r>
       <r>   -2.1820    1.0000 </r>
       <r>   -1.9908    1.0000 </r>
       <r>   -1.7462    1.0000 </r>
       <r>   -1.5061    1.0000 </r>
       <r>   -1.3134    1.0000 </r>
       <r>   -1.1889    1.0000 </r>
       <r>   -1.1441    1.0000 </r>
       <r>   -1.1357    1.0000 </r>
       <r>   -1.1299    1.0000 </r>
       <r>   -1.1236    1.0000 </r>
       <r>   -1.0729    1.0000 </r>
       <r>   -1.0114    1.0000 </r>
       <r>   -1.0072    1.0000 </r>
       <r>   -0.9231    1.0000 </r>
       <r>   -0.7889    1.0000 </r>
       <r>   -0.7526    1.0000 </r>
       <r>   -0.6803    1.0000 </r>
       <r>   -0.6708    1.0000 </r>
       <r>   -0.5792    1.0000 </r>
       <r>   -0.5156    1.0000 </r>
       <r>   -0.4805    1.0000 </r>
       <r>   -0.4583    1.0000 </r>
       <r>   -0.3867    1.0000 </r>
       <r>   -0.3749    1.0000 </r>
       <r>   -0.3593    1.0000 </r>
       <r>   -0.3511    1.0000 </r>
       <r>   -0.3143    1.0000 </r>
       <r>   -0.3059    1.0000 </r>
       <r>   -0.2695    1.0000 </r>
       <r>   -0.2544    1.0000 </r>
       <r>   -0.2469    1.0000 </r>
       <r>   -0.2136    1.0000 </r>
       <r>   -0.1950    1.0000 </r>
       <r>   -0.1764    1.0000 </r>
       <r>   -0.1761    1.0000 </r>
       <r>   -0.1466    1.0000 </r>
       <r>   -0.1108    1.0000 </r>
       <r>   -0.0900    1.0000 </r>
       <r>   -0.0817    1.0000 </r>
       <r>   -0.0810    1.0000 </r>
       <r>   -0.0436    1.0000 </r>
       <r>   -0.0219    1.0000 </r>
       <r>    0.0001    1.0000 </r>
       <r>    0.0046    1.0000 </r>
       <r>    0.0406    1.0000 </r>
       <r>    0.0849    1.0000 </r>
       <r>    0.0940    1.0000 </r>
       <r>    0.1013    1.0000 </r>
       <r>    0.1747    1.0000 </r>
       <r>    0.1973    1.0000 </r>
       <r>    0.1983    1.0000 </r>
       <r>    0.2219    1.0000 </r>
       <r>    0.2290    1.0000 </r>
       <r>    0.2507    1.0000 </r>
       <r>    0.2550    1.0000 </r>
       <r>    0.2747    1.0000 </r>
       <r>    0.2953    1.0000 </r>
       <r>    0.3131    1.0000 </r>
       <r>    0.3285    1.0000 </r>
       <r>    0.3354    1.0000 </r>
       <r>    0.3572    1.0000 </r>
       <r>    0.3628    1.0000 </r>
       <r>    0.3727    1.0000 </r>
       <r>    0.3961    1.0000 </r>
       <r>    0.5397    1.0000 </r>
       <r>    0.5522    1.0000 </r>
       <r>    0.6528    1.0000 </r>
       <r>    0.6652    1.0000 </r>
       <r>    0.6761    1.0000 </r>
       <r>    0.6789    1.0000 </r>
       <r>    0.6857    1.0000 </r>
       <r>    0.6993    1.0000 </r>
       <r>    0.7265    1.0000 </r>
       <r>    0.7531    1.0000 </r>
       <r>    0.8289    1.0000 </r>
       <r>    0.8735    1.0000 </r>
       <r>    0.8755    1.0000 </r>
       <r>    0.8887    1.0000 </r>
       <r>    0.9760    1.0000 </r>
       <r>    0.9792    1.0000 </r>
       <r>    1.0637    1.0000 </r>
       <r>    1.0650    1.0000 </r>
       <r>    1.0800    1.0000 </r>
       <r>    1.1134    1.0000 </r>
       <r>    2.2798    0.0000 </r>
       <r>    2.3147    0.0000 </r>
       <r>    2.3427    0.0000 </r>
       <r>    2.3878    0.0000 </r>
       <r>    2.4468    0.0000 </r>
       <r>    2.4921    0.0000 </r>
       <r>    2.5340    0.0000 </r>
       <r>    2.5522    0.0000 </r>
       <r>    2.5570    0.0000 </r>
       <r>    2.5611    0.0000 </r>
       <r>    2.5765    0.0000 </r>
       <r>    2.6104    0.0000 </r>
       <r>    2.6291    0.0000 </r>
       <r>    2.7113    0.0000 </r>
       <r>    2.7272    0.0000 </r>
       <r>    2.7636    0.0000 </r>
       <r>    2.8014    0.0000 </r>
       <r>    2.8197    0.0000 </r>
       <r>    2.8496    0.0000 </r>
       <r>    2.8686    0.0000 </r>
       <r>    2.9263    0.0000 </r>
       <r>    2.9407    0.0000 </r>
       <r>    3.0084    0.0000 </r>
       <r>    3.0941    0.0000 </r>
       <r>    3.1133    0.0000 </r>
       <r>    3.1570    0.0000 </r>
       <r>    3.1593    0.0000 </r>
       <r>    3.1787    0.0000 </r>
       <r>    3.1809    0.0000 </r>
       <r>    3.2668    0.0000 </r>
       <r>    3.2708    0.0000 </r>
       <r>    3.3486    0.0000 </r>
       <r>    3.4559    0.0000 </r>
       <r>    3.4688    0.0000 </r>
       <r>    3.5364    0.0000 </r>
       <r>    3.5751    0.0000 </r>
       <r>    3.5998    0.0000 </r>
       <r>    3.6754    0.0000 </r>
       <r>    3.7157    0.0000 </r>
       <r>    3.7288    0.0000 </r>
       <r>    3.7362    0.0000 </r>
       <r>    3.7420    0.0000 </r>
       <r>    3.7623    0.0000 </r>
       <r>    3.8458    0.0000 </r>
       <r>    3.8479    0.0000 </r>
       <r>    3.9113    0.0000 </r>
       <r>    3.9578    0.0000 </r>
       <r>    3.9811    0.0000 </r>
       <r>    3.9892    0.0000 </r>
       <r>    4.0388    0.0000 </r>
       <r>    4.0718    0.0000 </r>
       <r>    4.1276    0.0000 </r>
      </set>
      <set comment="kpoint 3">
       <r>  -27.2475    1.0000 </r>
       <r>  -27.2475    1.0000 </r>
       <r>  -26.2772    1.0000 </r>
       <r>  -26.2769    1.0000 </r>
       <r>  -26.2631    1.0000 </r>
       <r>  -26.2627    1.0000 </r>
       <r>  -26.2469    1.0000 </r>
       <r>  -26.2468    1.0000 </r>
       <r>  -26.1971    1.0000 </r>
       <r>  -26.1937    1.0000 </r>
       <r>  -26.1895    1.0000 </r>
       <r>  -26.1891    1.0000 </r>
       <r>  -26.1813    1.0000 </r>
       <r>  -26.1812    1.0000 </r>
       <r>  -26.1724    1.0000 </r>
       <r>  -26.1722    1.0000 </r>
       <r>  -26.1183    1.0000 </r>
       <r>  -26.1181    1.0000 </r>
       <r>  -26.1147    1.0000 </r>
       <r>  -26.1144    1.0000 </r>
       <r>  -26.1122    1.0000 </r>
       <r>  -26.1094    1.0000 </r>
       <r>  -26.1072    1.0000 </r>
       <r>  -26.1068    1.0000 </r>
       <r>  -26.0973    1.0000 </r>
       <r>  -26.0968    1.0000 </r>
       <r>  -26.0564    1.0000 </r>
[...]
       <r>   -26.9753     0.0000     4.0000 </r>
       <r>   -26.8602     0.0000     4.0000 </r>
       <r>   -26.7451     0.0000     4.0000 </r>
       <r>   -26.6300     0.0000     4.0000 </r>
       <r>   -26.5148     0.0000     4.0000 </r>
       <r>   -26.3997     0.0000     4.0000 </r>
       <r>   -26.2846     4.8164     4.5545 </r>
       <r>   -26.1694   158.6574    30.2663 </r>
       <r>   -26.0543   195.6639    54.5269 </r>
       <r>   -25.9392     0.0000    56.0000 </r>
       <r>   -25.8240     0.0000    56.0000 </r>
       <r>   -25.7089     0.0000    56.0000 </r>
       <r>   -25.5938     0.0000    56.0000 </r>
       <r>   -25.4786     0.0000    56.0000 </r>
       <r>   -25.3635     0.0000    56.0000 </r>
       <r>   -25.2484     0.0000    56.0000 </r>
       <r>   -25.1333     0.0000    56.0000 </r>
       <r>   -25.0181     0.0000    56.0000 </r>
       <r>   -24.9030     0.0000    56.0000 </r>
       <r>   -24.7879     0.0000    56.0000 </r>
       <r>   -24.6727     0.0000    56.0000 </r>
       <r>   -24.5576     0.0000    56.0000 </r>
       <r>   -24.4425     0.0000    56.0000 </r>
       <r>   -24.3273     0.0000    56.0000 </r>
       <r>   -24.2122     0.0000    56.0000 </r>
       <r>   -24.0971     0.0000    56.0000 </r>
       <r>   -23.9819     0.0000    56.0000 </r>
       <r>   -23.8668     0.0000    56.0000 </r>
       <r>   -23.7517     0.0000    56.0000 </r>
       <r>   -23.6366     0.0000    56.0000 </r>
       <r>   -23.5214     0.0000    56.0000 </r>
       <r>   -23.4063     0.0000    56.0000 </r>
       <r>   -23.2912     0.0000    56.0000 </r>
       <r>   -23.1760     0.0000    56.0000 </r>
       <r>   -23.0609     0.0000    56.0000 </r>
       <r>   -22.9458     0.0000    56.0000 </r>
       <r>   -22.8306     0.0000    56.0000 </r>
       <r>   -22.7155     0.0000    56.0000 </r>
       <r>   -22.6004     0.0000    56.0000 </r>
       <r>   -22.4853     0.0000    56.0000 </r>
       <r>   -22.3701     0.0000    56.0000 </r>
       <r>   -22.2550     0.0000    56.0000 </r>
       <r>   -22.1399     0.0000    56.0000 </r>
       <r>   -22.0247     0.0000    56.0000 </r>
       <r>   -21.9096     0.0000    56.0000 </r>
       <r>   -21.7945     0.0000    56.0000 </r>
       <r>   -21.6793     0.0000    56.0000 </r>
       <r>   -21.5642     0.0000    56.0000 </r>
       <r>   -21.4491     0.0000    56.0000 </r>
       <r>   -21.3339     0.0000    56.0000 </r>
       <r>   -21.2188     0.0000    56.0000 </r>
       <r>   -21.1037     0.0000    56.0000 </r>
       <r>   -20.9886     0.0000    56.0000 </r>
       <r>   -20.8734     0.0000    56.0000 </r>
       <r>   -20.7583     0.0000    56.0000 </r>
       <r>   -20.6432     0.0000    56.0000 </r>
       <r>   -20.5280     0.0000    56.0000 </r>
       <r>   -20.4129     0.0000    56.0000 </r>
       <r>   -20.2978     0.0000    56.0000 </r>
       <r>   -20.1826     0.0000    56.0000 </r>
       <r>   -20.0675     0.0000    56.0000 </r>
       <r>   -19.9524     0.0000    56.0000 </r>
       <r>   -19.8372     0.0000    56.0000 </r>
       <r>   -19.7221     0.0000    56.0000 </r>
       <r>   -19.6070     0.0000    56.0000 </r>
       <r>   -19.4919     0.0000    56.0000 </r>
       <r>   -19.3767     0.0000    56.0000 </r>
       <r>   -19.2616     0.0000    56.0000 </r>
       <r>   -19.1465     0.0000    56.0000 </r>
       <r>   -19.0313     0.0000    56.0000 </r>
       <r>   -18.9162     0.0000    56.0000 </r>
       <r>   -18.8011     0.0000    56.0000 </r>
       <r>   -18.6859     0.0000    56.0000 </r>
       <r>   -18.5708     0.0000    56.0000 </r>
       <r>   -18.4557     0.0000    56.0000 </r>
       <r>   -18.3405     0.0000    56.0000 </r>
       <r>   -18.2254     0.0000    56.0000 </r>
       <r>   -18.1103     0.0000    56.0000 </r>
       <r>   -17.9952     0.0000    56.0000 </r>
       <r>   -17.8800     0.0000    56.0000 </r>
       <r>   -17.7649     0.0000    56.0000 </r>
       <r>   -17.6498     0.0000    56.0000 </r>
       <r>   -17.5346     0.0000    56.0000 </r>
       <r>   -17.4195     0.0000    56.0000 </r>
       <r>   -17.3044     0.0000    56.0000 </r>
       <r>   -17.1892     0.0000    56.0000 </r>
       <r>   -17.0741     0.0000    56.0000 </r>
       <r>   -16.9590     0.0000    56.0000 </r>
       <r>   -16.8438     0.0000    56.0000 </r>
       <r>   -16.7287     0.0000    56.0000 </r>
       <r>   -16.6136     0.0000    56.0000 </r>
       <r>   -16.4985     0.0000    56.0000 </r>
       <r>   -16.3833     0.0000    56.0000 </r>
       <r>   -16.2682     0.0000    56.0000 </r>
       <r>   -16.1531     0.0000    56.0000 </r>
       <r>   -16.0379     0.0000    56.0000 </r>
       <r>   -15.9228     0.0000    56.0000 </r>
       <r>   -15.8077     0.0000    56.0000 </r>
       <r>   -15.6925     0.0000    56.0000 </r>
       <r>   -15.5774     0.0000    56.0000 </r>
       <r>   -15.4623     0.0000    56.0000 </r>
       <r>   -15.3471     0.0000    56.0000 </r>
       <r>   -15.2320     0.0000    56.0000 </r>
       <r>   -15.1169     0.0000    56.0000 </r>
       <r>   -15.0018     0.0000    56.0000 </r>
       <r>   -14.8866     0.0000    56.0000 </r>
       <r>   -14.7715     0.0000    56.0000 </r>
       <r>   -14.6564     0.0000    56.0000 </r>
       <r>   -14.5412     0.0000    56.0000 </r>
       <r>   -14.4261     0.0000    56.0000 </r>
       <r>   -14.3110     0.0000    56.0000 </r>
       <r>   -14.1958     0.0000    56.0000 </r>
       <r>   -14.0807     0.0000    56.0000 </r>
       <r>   -13.9656     0.0000    56.0000 </r>
       <r>   -13.8504     0.0000    56.0000 </r>
       <r>   -13.7353     0.0000    56.0000 </r>
       <r>   -13.6202     0.0000    56.0000 </r>
       <r>   -13.5051     0.0000    56.0000 </r>
       <r>   -13.3899     0.0000    56.0000 </r>
       <r>   -13.2748     0.0000    56.0000 </r>
       <r>   -13.1597     0.0000    56.0000 </r>
       <r>   -13.0445     0.0000    56.0000 </r>
       <r>   -12.9294     0.0000    56.0000 </r>
       <r>   -12.8143     0.0000    56.0000 </r>
       <r>   -12.6991     0.0000    56.0000 </r>
       <r>   -12.5840    34.7435    60.0000 </r>
       <r>   -12.4689    19.3534    66.2282 </r>
       <r>   -12.3538     0.0000    68.0000 </r>
       <r>   -12.2386     0.0000    68.0000 </r>
       <r>   -12.1235     0.0000    68.0000 </r>
       <r>   -12.0084     0.0000    68.0000 </r>
       <r>   -11.8932     0.0002    68.0000 </r>
       <r>   -11.7781   104.5162    81.8580 </r>
       <r>   -11.6630   190.4667   109.5536 </r>
       <r>   -11.5478   199.3481   144.7511 </r>
       <r>   -11.4327   159.8212   171.1003 </r>
       <r>   -11.3176   336.8366   223.9302 </r>
       <r>   -11.2024     0.0000   224.0000 </r>
       <r>   -11.0873     0.0000   224.0000 </r>
       <r>   -10.9722     0.0000   224.0000 </r>
       <r>   -10.8571     0.0000   224.0000 </r>
       <r>   -10.7419     0.0000   224.0000 </r>
       <r>   -10.6268     0.0000   224.0000 </r>
       <r>   -10.5117     0.0000   224.0000 </r>
       <r>   -10.3965     0.0000   224.0000 </r>
       <r>   -10.2814     0.0000   224.0000 </r>
       <r>   -10.1663     0.0000   224.0000 </r>
       <r>   -10.0511     0.0000   224.0000 </r>
       <r>    -9.9360     0.0000   224.0000 </r>
       <r>    -9.8209     0.0000   224.0000 </r>
       <r>    -9.7057     0.0000   224.0000 </r>
       <r>    -9.5906     0.0000   224.0000 </r>
       <r>    -9.4755     0.2453   224.0282 </r>
       <r>    -9.3604     6.9612   225.1264 </r>
       <r>    -9.2452    24.3836   228.4323 </r>
       <r>    -9.1301   143.8918   246.9664 </r>
       <r>    -9.0150     0.0000   248.0000 </r>
       <r>    -8.8998     0.0000   248.0000 </r>
       <r>    -8.7847    14.6273   249.6841 </r>
       <r>    -8.6696    14.7658   252.0000 </r>
       <r>    -8.5544     0.0000   252.0000 </r>
       <r>    -8.4393     0.0000   252.0000 </r>
       <r>    -8.3242     0.0000   252.0000 </r>
       <r>    -8.2090     0.0000   252.0000 </r>
       <r>    -8.0939     0.0000   252.0000 </r>
       <r>    -7.9788     0.0000   252.0000 </r>
       <r>    -7.8637     0.0000   252.0000 </r>
       <r>    -7.7485     0.0000   252.0000 </r>
       <r>    -7.6334     0.0000   252.0000 </r>
       <r>    -7.5183     0.0000   252.0000 </r>
       <r>    -7.4031     0.0000   252.0000 </r>
       <r>    -7.2880     0.0000   252.0000 </r>
       <r>    -7.1729     0.0000   252.0000 </r>
       <r>    -7.0577     0.0000   252.0000 </r>
       <r>    -6.9426     0.0000   252.0000 </r>
       <r>    -6.8275     0.0000   252.0000 </r>
       <r>    -6.7123     0.0000   252.0000 </r>
       <r>    -6.5972     0.0000   252.0000 </r>
       <r>    -6.4821     0.0000   252.0000 </r>
       <r>    -6.3670     0.0000   252.0000 </r>
       <r>    -6.2518     0.0000   252.0000 </r>
       <r>    -6.1367     0.0000   252.0000 </r>
       <r>    -6.0216     0.0000   252.0000 </r>
       <r>    -5.9064     0.0000   252.0000 </r>
       <r>    -5.7913     0.0000   252.0000 </r>
       <r>    -5.6762     0.0000   252.0000 </r>
       <r>    -5.5610     0.0000   252.0000 </r>
       <r>    -5.4459     0.0000   252.0000 </r>
       <r>    -5.3308     0.0000   252.0000 </r>
       <r>    -5.2156     0.0000   252.0000 </r>
       <r>    -5.1005     0.0000   252.0000 </r>
       <r>    -4.9854     0.0000   252.0000 </r>
       <r>    -4.8703     0.2731   252.0314 </r>
       <r>    -4.7551    55.5943   259.5756 </r>
       <r>    -4.6400    46.1819   267.6920 </r>
       <r>    -4.5249    40.8862   273.7073 </r>
       <r>    -4.4097    78.5138   284.7393 </r>
       <r>    -4.2946   102.7621   304.0561 </r>
       <r>    -4.1795    77.0009   319.9652 </r>
       <r>    -4.0643    29.6105   325.7341 </r>
       <r>    -3.9492    37.7287   330.4437 </r>
       <r>    -3.8341    11.3489   334.2066 </r>
       <r>    -3.7189    13.0287   336.0000 </r>
       <r>    -3.6038     0.0000   336.0000 </r>
       <r>    -3.4887     0.0000   336.0000 </r>
       <r>    -3.3736     0.0000   336.0000 </r>
       <r>    -3.2584     0.0000   336.0000 </r>
       <r>    -3.1433     0.0000   336.0000 </r>
       <r>    -3.0282     0.0000   336.0000 </r>
       <r>    -2.9130     0.0000   336.0000 </r>
       <r>    -2.7979     0.0000   336.0000 </r>
       <r>    -2.6828     0.0000   336.0000 </r>
       <r>    -2.5676     0.0000   336.0000 </r>
       <r>    -2.4525     0.0000   336.0000 </r>
       <r>    -2.3374     0.0000   336.0000 </r>
       <r>    -2.2223     0.0000   336.0000 </r>
       <r>    -2.1071     1.9431   336.2737 </r>
       <r>    -1.9920     1.5222   336.5003 </r>
       <r>    -1.8769     1.8246   336.9101 </r>
       <r>    -1.7617     1.3288   337.1530 </r>
       <r>    -1.6466     2.9362   337.7881 </r>
       <r>    -1.5315     5.2453   338.6789 </r>
       <r>    -1.4163     8.6927   340.0508 </r>
       <r>    -1.3012     7.1653   341.2999 </r>
       <r>    -1.1861    25.3248   344.6657 </r>
       <r>    -1.0709    38.2314   350.3766 </r>
       <r>    -0.9558    29.8033   355.5563 </r>
       <r>    -0.8407    39.0075   362.1910 </r>
       <r>    -0.7256    46.4204   368.5444 </r>
       <r>    -0.6104    31.2113   374.3684 </r>
       <r>    -0.4953    40.1259   380.7947 </r>
       <r>    -0.3802    43.7815   387.8156 </r>
       <r>    -0.2650    64.6100   398.8886 </r>
       <r>    -0.1499    72.4716   409.5187 </r>
       <r>    -0.0348    78.8474   422.2028 </r>
       <r>     0.0804    54.1125   431.8800 </r>
       <r>     0.1955    44.6307   440.4884 </r>
       <r>     0.3106    57.1695   449.5820 </r>
       <r>     0.4258    82.1921   462.4878 </r>
       <r>     0.5409    22.5186   467.1426 </r>
       <r>     0.6560    33.1391   473.7653 </r>
       <r>     0.7711    51.6725   483.1741 </r>
       <r>     0.8863    40.7457   489.3161 </r>
       <r>     1.0014    36.6221   495.9663 </r>
       <r>     1.1165    41.7943   503.0118 </r>
       <r>     1.2317     2.4360   503.9555 </r>
       <r>     1.3468     0.0000   504.0000 </r>
       <r>     1.4619     0.0000   504.0000 </r>
       <r>     1.5771     0.0000   504.0000 </r>
       <r>     1.6922     0.0000   504.0000 </r>
       <r>     1.8073     0.0000   504.0000 </r>
       <r>     1.9225     0.0000   504.0000 </r>
       <r>     2.0376     3.0067   504.3462 </r>
       <r>     2.1527    18.0287   507.4257 </r>
       <r>     2.2678    22.4510   511.0848 </r>
       <r>     2.3830    28.4917   515.9053 </r>
       <r>     2.4981    32.9143   521.1644 </r>
       <r>     2.6132    45.4514   528.3328 </r>
       <r>     2.7284    43.8887   535.3029 </r>
       <r>     2.8435    36.9710   542.0065 </r>
       <r>     2.9586    38.5746   548.2161 </r>
       <r>     3.0738    37.9240   554.8662 </r>
       <r>     3.1889    42.7494   561.6218 </r>
       <r>     3.3040    44.5547   568.8046 </r>
       <r>     3.4192    36.7481   575.3058 </r>
       <r>     3.5343    41.6403   581.9941 </r>
       <r>     3.6494    37.8743   587.9855 </r>
       <r>     3.7645    49.9745   596.1786 </r>
       <r>     3.8797    34.9692   601.6010 </r>
       <r>     3.9948    21.7951   605.8343 </r>
       <r>     4.1099     9.2457   607.7395 </r>
       <r>     4.2251     0.2171   608.0000 </r>
       <r>     4.3402     0.0000   608.0000 </r>
       <r>     4.4553     0.0000   608.0000 </r>
       <r>     4.5705     0.0000   608.0000 </r>
       <r>     4.6856     0.0000   608.0000 </r>
       <r>     4.8007     0.0000   608.0000 </r>
       <r>     4.9159     0.0000   608.0000 </r>
       <r>     5.0310     0.0000   608.0000 </r>
       <r>     5.1461     0.0000   608.0000 </r>
       <r>     5.2612     0.0000   608.0000 </r>
       <r>     5.3764     0.0000   608.0000 </r>
       <r>     5.4915     0.0000   608.0000 </r>
       <r>     5.6066     0.0000   608.0000 </r>
       <r>     5.7218     0.0000   608.0000 </r>
      </set>
     </set>
    </array>
   </total>
  </dos>
 </calculation>
 <structure name="finalpos" >
  <crystal>
   <varray name="basis" >
    <v>      46.26166235       0.00000000       0.00000000 </v>
    <v>       0.00000000       6.67732496       0.00000000 </v>
    <v>       0.00000000       0.00000000      11.43647175 </v>
   </varray>
   <i name="volume">   3532.77361687 </i>
   <varray name="rec_basis" >
    <v>       0.02161617       0.00000000       0.00000000 </v>
    <v>       0.00000000       0.14976057       0.00000000 </v>
    <v>       0.00000000       0.00000000       0.08743955 </v>
   </varray>
  </crystal>
  <varray name="positions" >
   <v>       0.00706690       0.25000000       0.70053953 </v>
   <v>       0.19699500       0.25000000       0.69008500 </v>
   <v>       0.39041347       0.25000000       0.69057329 </v>
   <v>       0.58611845       0.25000000       0.69277379 </v>
   <v>       0.19047347       0.75000002       0.30870004 </v>
   <v>       0.38417096       0.75000002       0.30910016 </v>
   <v>       0.57729902       0.75000002       0.30878972 </v>
   <v>       0.09153061       0.75000002       0.19277373 </v>
   <v>       0.28723559       0.75000002       0.19057323 </v>
   <v>       0.48065410       0.75000002       0.19008494 </v>
   <v>       0.67058220       0.75000002       0.20053947 </v>
   <v>       0.10035008       0.25000000       0.80878976 </v>
   <v>       0.29347814       0.25000000       0.80910020 </v>
   <v>       0.48717559       0.25000000       0.80870008 </v>
   <v>       0.04161101       0.75000002       0.91227734 </v>
   <v>       0.22506468       0.75000002       0.90582119 </v>
   <v>       0.41811317       0.75000002       0.90500463 </v>
   <v>       0.61063255       0.75000002       0.89573987 </v>
   <v>       0.16180807       0.25000000       0.09315823 </v>
   <v>       0.35610237       0.25000000       0.09373895 </v>
   <v>       0.54932028       0.25000000       0.09532022 </v>
   <v>       0.06701653       0.25000000       0.39573995 </v>
   <v>       0.25953591       0.25000000       0.40500472 </v>
   <v>       0.45258440       0.25000000       0.40582128 </v>
   <v>       0.63603806       0.25000000       0.41227742 </v>
   <v>       0.12832880       0.75000002       0.59532020 </v>
   <v>       0.32154671       0.75000002       0.59373893 </v>
   <v>       0.51584101       0.75000002       0.59315821 </v>
   <v>       0.03498026       0.07087823       0.14607327 </v>
   <v>       0.23046552       0.06973760       0.14610794 </v>
   <v>       0.42418424       0.06967257       0.14552177 </v>
   <v>       0.61744278       0.07089098       0.14192314 </v>
   <v>       0.15745880       0.93065579       0.85402713 </v>
   <v>       0.35005210       0.93032600       0.85322181 </v>
   <v>       0.54384948       0.93090404       0.85296225 </v>
   <v>       0.06020629       0.92910901       0.64192316 </v>
   <v>       0.25346482       0.93032742       0.64552179 </v>
   <v>       0.44718354       0.93026240       0.64610796 </v>
   <v>       0.64266879       0.92912176       0.64607329 </v>
   <v>       0.13379957       0.06909595       0.35296225 </v>
   <v>       0.32759700       0.06967399       0.35322181 </v>
   <v>       0.52019031       0.06934420       0.35402713 </v>
   <v>       0.15745880       0.56934421       0.85402713 </v>
   <v>       0.35005210       0.56967400       0.85322181 </v>
   <v>       0.54384948       0.56909596       0.85296225 </v>
   <v>       0.03498026       0.42912176       0.14607327 </v>
   <v>       0.23046552       0.43026240       0.14610794 </v>
   <v>       0.42418424       0.43032742       0.14552177 </v>
   <v>       0.61744278       0.42910901       0.14192314 </v>
   <v>       0.13379957       0.43090404       0.35296225 </v>
   <v>       0.32759700       0.43032600       0.35322181 </v>
   <v>       0.52019031       0.43065579       0.35402713 </v>
   <v>       0.06020629       0.57089099       0.64192316 </v>
   <v>       0.25346482       0.56967258       0.64552179 </v>
   <v>       0.44718354       0.56973760       0.64610796 </v>
   <v>       0.64266879       0.57087824       0.64607329 </v>
   <v>       0.01452496       0.75000002       0.61800519 </v>
   <v>       0.21002526       0.75000002       0.59150230 </v>
   <v>       0.40368407       0.75000002       0.59209479 </v>
   <v>       0.59845439       0.75000002       0.58296655 </v>
   <v>       0.17710050       0.25000000       0.40771812 </v>
   <v>       0.37096757       0.25000000       0.40806292 </v>
   <v>       0.56326627       0.25000000       0.40900055 </v>
   <v>       0.07919472       0.25000000       0.08296649 </v>
   <v>       0.27396503       0.25000000       0.09209473 </v>
   <v>       0.46762380       0.25000000       0.09150224 </v>
   <v>       0.66312409       0.25000000       0.11800513 </v>
   <v>       0.11438279       0.75000002       0.90900059 </v>
   <v>       0.30668149       0.75000002       0.90806296 </v>
   <v>       0.50054860       0.75000002       0.90771816 </v>
   <v>       0.03527710       0.25000000       0.96294719 </v>
   <v>       0.23138535       0.25000000       0.96391464 </v>
   <v>       0.42505872       0.25000000       0.96328576 </v>
   <v>       0.62737175       0.25000000       0.96135011 </v>
   <v>       0.15601666       0.75000002       0.03709677 </v>
   <v>       0.34934044       0.75000002       0.03560377 </v>
   <v>       0.54304953       0.75000002       0.03554359 </v>
   <v>       0.05027733       0.75000002       0.46135003 </v>
   <v>       0.25259036       0.75000002       0.46328567 </v>
   <v>       0.44626373       0.75000002       0.46391455 </v>
   <v>       0.64237197       0.75000002       0.46294711 </v>
   <v>       0.13459954       0.25000000       0.53554358 </v>
   <v>       0.32830864       0.25000000       0.53560376 </v>
   <v>       0.52163243       0.25000000       0.53709676 </v>
  </varray>
 </structure>
</modeling>
