<?xml version="1.0" encoding="ISO-8859-1"?>
<modeling>
 <generator>
  <i name="program" type="string">vasp </i>
  <i name="version" type="string">5.4.4.18Apr17-6-g9f103f2a35  </i>
  <i name="subversion" type="string">(build Nov 21 2017 15:30:27) complex            parallel </i>
  <i name="platform" type="string">LinuxIFC </i>
  <i name="date" type="string">2020 10 09 </i>
  <i name="time" type="string">12:20:00 </i>
 </generator>
 <incar>
  <i type="string" name="PREC">normal</i>
  <i type="int" name="ICHARG">    11</i>
  <i type="int" name="NELM">   100</i>
  <i name="EDIFF">      0.00000100</i>
  <i name="EDIFFG">     -0.01000000</i>
  <i name="ENCUT">    500.00000000</i>
  <i name="POTIM">      0.30000000</i>
  <i type="string" name="LREAL"> Auto       ! Projection in reciprocal s</i>
  <i type="int" name="ISMEAR">     0</i>
  <i name="SIGMA">      0.01000000</i>
  <i type="logical" name="LWAVE"> T  </i>
  <i type="logical" name="LCHARG"> T  </i>
  <i type="logical" name="LASPH"> T  </i>
  <v type="int" name="KPOINT_BSE">    -1     0     0     0</v>
  <i type="int" name="NELM">   100</i>
  <i type="string" name="GGA"> MK</i>
  <i name="PARAM1">      0.12340000</i>
  <i name="PARAM2">      0.71135700</i>
  <i type="logical" name="LUSE_VDW"> T  </i>
  <i name="Zab_VDW">     -1.88670000</i>
  <i name="AGGAC">      0.00000000</i>
  <i type="logical" name="LASPH"> T  </i>
 </incar>
 <structure name="primitive_cell" >
  <crystal>
   <varray name="basis" >
    <v>       8.90826050       0.00000000       0.00000000 </v>
    <v>       0.00000000       6.72686198       0.00000000 </v>
    <v>       0.00000000       0.00000000      11.50561267 </v>
   </varray>
   <i name="volume">    689.46968423 </i>
   <varray name="rec_basis" >
    <v>       0.11225536       0.00000000       0.00000000 </v>
    <v>       0.00000000       0.14865773       0.00000000 </v>
    <v>       0.00000000       0.00000000       0.08691410 </v>
   </varray>
  </crystal>
  <varray name="positions" >
   <v>       0.01536406       0.25000000      -0.30786814 </v>
   <v>      -0.30360225       0.25000000      -0.46492478 </v>
   <v>      -0.08126803       0.25000000       0.40903255 </v>
   <v>      -0.19345800      -0.42899609      -0.14637426 </v>
   <v>      -0.19345800      -0.07100391      -0.14637426 </v>
   <v>       0.30654200      -0.42899609      -0.35362574 </v>
   <v>       0.30654200      -0.07100391      -0.35362574 </v>
   <v>       0.19639773       0.25000000      -0.03507522 </v>
   <v>       0.08126801      -0.24999998      -0.40903255 </v>
   <v>       0.16070224      -0.24999998      -0.09349718 </v>
   <v>       0.33929776       0.25000000       0.40650290 </v>
   <v>      -0.48463594       0.25000000      -0.19213182 </v>
   <v>      -0.33929776      -0.24999998      -0.40650286 </v>
   <v>      -0.16070224       0.25000000       0.09349716 </v>
   <v>       0.30360225      -0.24999998       0.46492469 </v>
   <v>      -0.30654200       0.42899609       0.35362574 </v>
   <v>      -0.30654200       0.07100390       0.35362574 </v>
   <v>      -0.19639775      -0.24999998       0.03507524 </v>
   <v>      -0.01536406      -0.24999998       0.30786814 </v>
   <v>       0.19345800       0.42899609       0.14637424 </v>
   <v>       0.19345800       0.07100390       0.14637424 </v>
   <v>      -0.41873197      -0.24999998      -0.09096740 </v>
   <v>       0.41873200       0.25000000       0.09096738 </v>
   <v>       0.48463594      -0.24999998       0.19213180 </v>
  </varray>
 </structure>
 <varray name="primitive_index" >
  <v type="int" >        1 </v>
  <v type="int" >       24 </v>
  <v type="int" >       18 </v>
  <v type="int" >       13 </v>
  <v type="int" >       10 </v>
  <v type="int" >       16 </v>
  <v type="int" >       11 </v>
  <v type="int" >       21 </v>
  <v type="int" >       17 </v>
  <v type="int" >        5 </v>
  <v type="int" >        7 </v>
  <v type="int" >        4 </v>
  <v type="int" >        8 </v>
  <v type="int" >        6 </v>
  <v type="int" >       23 </v>
  <v type="int" >       15 </v>
  <v type="int" >       12 </v>
  <v type="int" >       22 </v>
  <v type="int" >        2 </v>
  <v type="int" >       14 </v>
  <v type="int" >        9 </v>
  <v type="int" >       20 </v>
  <v type="int" >       19 </v>
  <v type="int" >        3 </v>
 </varray>
 <kpoints>
  <generation param="listgenerated">
   <i name="divisions" type="int">      20 </i>
   <v>       0.00000000       0.00000000       0.00000000 </v>
   <v>       0.00000000       0.50000000       0.00000000 </v>
   <v>       0.00000000       0.50000000       0.50000000 </v>
   <v>       0.00000000       0.00000000       0.50000000 </v>
   <v>       0.00000000       0.00000000       0.00000000 </v>
   <v>       0.50000000       0.00000000       0.00000000 </v>
  </generation>
  <varray name="kpointlist" >
   <v>       0.00000000       0.00000000       0.00000000 </v>
   <v>       0.00000000       0.02631579       0.00000000 </v>
   <v>       0.00000000       0.05263158       0.00000000 </v>
   <v>       0.00000000       0.07894737       0.00000000 </v>
   <v>       0.00000000       0.10526316       0.00000000 </v>
   <v>       0.00000000       0.13157895       0.00000000 </v>
   <v>       0.00000000       0.15789474       0.00000000 </v>
   <v>       0.00000000       0.18421053       0.00000000 </v>
   <v>       0.00000000       0.21052632       0.00000000 </v>
   <v>       0.00000000       0.23684211       0.00000000 </v>
   <v>       0.00000000       0.26315789       0.00000000 </v>
   <v>       0.00000000       0.28947368       0.00000000 </v>
   <v>       0.00000000       0.31578947       0.00000000 </v>
   <v>       0.00000000       0.34210526       0.00000000 </v>
   <v>       0.00000000       0.36842105       0.00000000 </v>
   <v>       0.00000000       0.39473684       0.00000000 </v>
   <v>       0.00000000       0.42105263       0.00000000 </v>
   <v>       0.00000000       0.44736842       0.00000000 </v>
   <v>       0.00000000       0.47368421       0.00000000 </v>
   <v>       0.00000000       0.50000000       0.00000000 </v>
   <v>       0.00000000       0.50000000       0.00000000 </v>
   <v>       0.00000000       0.50000000       0.02631579 </v>
   <v>       0.00000000       0.50000000       0.05263158 </v>
   <v>       0.00000000       0.50000000       0.07894737 </v>
   <v>       0.00000000       0.50000000       0.10526316 </v>
   <v>       0.00000000       0.50000000       0.13157895 </v>
   <v>       0.00000000       0.50000000       0.15789474 </v>
   <v>       0.00000000       0.50000000       0.18421053 </v>
   <v>       0.00000000       0.50000000       0.21052632 </v>
   <v>       0.00000000       0.50000000       0.23684211 </v>
   <v>       0.00000000       0.50000000       0.26315789 </v>
   <v>       0.00000000       0.50000000       0.28947368 </v>
   <v>       0.00000000       0.50000000       0.31578947 </v>
   <v>       0.00000000       0.50000000       0.34210526 </v>
   <v>       0.00000000       0.50000000       0.36842105 </v>
   <v>       0.00000000       0.50000000       0.39473684 </v>
   <v>       0.00000000       0.50000000       0.42105263 </v>
   <v>       0.00000000       0.50000000       0.44736842 </v>
   <v>       0.00000000       0.50000000       0.47368421 </v>
   <v>       0.00000000       0.50000000       0.50000000 </v>
   <v>       0.00000000       0.50000000       0.50000000 </v>
   <v>       0.00000000       0.47368421       0.50000000 </v>
   <v>       0.00000000       0.44736842       0.50000000 </v>
   <v>       0.00000000       0.42105263       0.50000000 </v>
   <v>       0.00000000       0.39473684       0.50000000 </v>
   <v>       0.00000000       0.36842105       0.50000000 </v>
   <v>       0.00000000       0.34210526       0.50000000 </v>
   <v>       0.00000000       0.31578947       0.50000000 </v>
   <v>       0.00000000       0.28947368       0.50000000 </v>
   <v>       0.00000000       0.26315789       0.50000000 </v>
   <v>       0.00000000       0.23684211       0.50000000 </v>
   <v>       0.00000000       0.21052632       0.50000000 </v>
   <v>       0.00000000       0.18421053       0.50000000 </v>
   <v>       0.00000000       0.15789474       0.50000000 </v>
   <v>       0.00000000       0.13157895       0.50000000 </v>
   <v>       0.00000000       0.10526316       0.50000000 </v>
   <v>       0.00000000       0.07894737       0.50000000 </v>
   <v>       0.00000000       0.05263158       0.50000000 </v>
   <v>       0.00000000       0.02631579       0.50000000 </v>
   <v>       0.00000000       0.00000000       0.50000000 </v>
   <v>       0.00000000       0.00000000       0.50000000 </v>
   <v>       0.00000000       0.00000000       0.47368421 </v>
   <v>       0.00000000       0.00000000       0.44736842 </v>
   <v>       0.00000000       0.00000000       0.42105263 </v>
   <v>       0.00000000       0.00000000       0.39473684 </v>
   <v>       0.00000000       0.00000000       0.36842105 </v>
   <v>       0.00000000       0.00000000       0.34210526 </v>
   <v>       0.00000000       0.00000000       0.31578947 </v>
   <v>       0.00000000       0.00000000       0.28947368 </v>
   <v>       0.00000000       0.00000000       0.26315789 </v>
   <v>       0.00000000       0.00000000       0.23684211 </v>
   <v>       0.00000000       0.00000000       0.21052632 </v>
   <v>       0.00000000       0.00000000       0.18421053 </v>
   <v>       0.00000000       0.00000000       0.15789474 </v>
   <v>       0.00000000       0.00000000       0.13157895 </v>
   <v>       0.00000000       0.00000000       0.10526316 </v>
   <v>       0.00000000       0.00000000       0.07894737 </v>
   <v>       0.00000000       0.00000000       0.05263158 </v>
   <v>       0.00000000       0.00000000       0.02631579 </v>
   <v>       0.00000000       0.00000000       0.00000000 </v>
   <v>       0.00000000       0.00000000       0.00000000 </v>
   <v>       0.02631579       0.00000000       0.00000000 </v>
   <v>       0.05263158       0.00000000       0.00000000 </v>
   <v>       0.07894737       0.00000000       0.00000000 </v>
   <v>       0.10526316       0.00000000       0.00000000 </v>
   <v>       0.13157895       0.00000000       0.00000000 </v>
   <v>       0.15789474       0.00000000       0.00000000 </v>
   <v>       0.18421053       0.00000000       0.00000000 </v>
   <v>       0.21052632       0.00000000       0.00000000 </v>
   <v>       0.23684211       0.00000000       0.00000000 </v>
   <v>       0.26315789       0.00000000       0.00000000 </v>
   <v>       0.28947368       0.00000000       0.00000000 </v>
   <v>       0.31578947       0.00000000       0.00000000 </v>
   <v>       0.34210526       0.00000000       0.00000000 </v>
   <v>       0.36842105       0.00000000       0.00000000 </v>
   <v>       0.39473684       0.00000000       0.00000000 </v>
   <v>       0.42105263       0.00000000       0.00000000 </v>
   <v>       0.44736842       0.00000000       0.00000000 </v>
   <v>       0.47368421       0.00000000       0.00000000 </v>
   <v>       0.50000000       0.00000000       0.00000000 </v>
  </varray>
  <varray name="weights" >
   <v>       0.01000000 </v>
   <v>       0.01000000 </v>
   <v>       0.01000000 </v>
   <v>       0.01000000 </v>
   <v>       0.01000000 </v>
   <v>       0.01000000 </v>
   <v>       0.01000000 </v>
   <v>       0.01000000 </v>
   <v>       0.01000000 </v>
   <v>       0.01000000 </v>
   <v>       0.01000000 </v>
   <v>       0.01000000 </v>
   <v>       0.01000000 </v>
   <v>       0.01000000 </v>
   <v>       0.01000000 </v>
   <v>       0.01000000 </v>
   <v>       0.01000000 </v>
   <v>       0.01000000 </v>
   <v>       0.01000000 </v>
   <v>       0.01000000 </v>
   <v>       0.01000000 </v>
   <v>       0.01000000 </v>
   <v>       0.01000000 </v>
   <v>       0.01000000 </v>
   <v>       0.01000000 </v>
   <v>       0.01000000 </v>
   <v>       0.01000000 </v>
   <v>       0.01000000 </v>
   <v>       0.01000000 </v>
   <v>       0.01000000 </v>
   <v>       0.01000000 </v>
   <v>       0.01000000 </v>
   <v>       0.01000000 </v>
   <v>       0.01000000 </v>
   <v>       0.01000000 </v>
   <v>       0.01000000 </v>
   <v>       0.01000000 </v>
   <v>       0.01000000 </v>
   <v>       0.01000000 </v>
   <v>       0.01000000 </v>
   <v>       0.01000000 </v>
   <v>       0.01000000 </v>
   <v>       0.01000000 </v>
   <v>       0.01000000 </v>
   <v>       0.01000000 </v>
   <v>       0.01000000 </v>
   <v>       0.01000000 </v>
   <v>       0.01000000 </v>
   <v>       0.01000000 </v>
   <v>       0.01000000 </v>
   <v>       0.01000000 </v>
   <v>       0.01000000 </v>
   <v>       0.01000000 </v>
   <v>       0.01000000 </v>
   <v>       0.01000000 </v>
   <v>       0.01000000 </v>
   <v>       0.01000000 </v>
   <v>       0.01000000 </v>
   <v>       0.01000000 </v>
   <v>       0.01000000 </v>
   <v>       0.01000000 </v>
   <v>       0.01000000 </v>
   <v>       0.01000000 </v>
   <v>       0.01000000 </v>
   <v>       0.01000000 </v>
   <v>       0.01000000 </v>
   <v>       0.01000000 </v>
   <v>       0.01000000 </v>
   <v>       0.01000000 </v>
   <v>       0.01000000 </v>
   <v>       0.01000000 </v>
   <v>       0.01000000 </v>
   <v>       0.01000000 </v>
   <v>       0.01000000 </v>
   <v>       0.01000000 </v>
   <v>       0.01000000 </v>
   <v>       0.01000000 </v>
   <v>       0.01000000 </v>
   <v>       0.01000000 </v>
   <v>       0.01000000 </v>
   <v>       0.01000000 </v>
   <v>       0.01000000 </v>
   <v>       0.01000000 </v>
   <v>       0.01000000 </v>
   <v>       0.01000000 </v>
   <v>       0.01000000 </v>
   <v>       0.01000000 </v>
   <v>       0.01000000 </v>
   <v>       0.01000000 </v>
   <v>       0.01000000 </v>
   <v>       0.01000000 </v>
   <v>       0.01000000 </v>
   <v>       0.01000000 </v>
   <v>       0.01000000 </v>
   <v>       0.01000000 </v>
   <v>       0.01000000 </v>
   <v>       0.01000000 </v>
   <v>       0.01000000 </v>
   <v>       0.01000000 </v>
   <v>       0.01000000 </v>
  </varray>
 </kpoints>
 <parameters>
  <separator name="general" >
   <i type="string" name="SYSTEM">unknown system</i>
   <i type="logical" name="LCOMPAT"> F  </i>
  </separator>
  <separator name="electronic" >
   <i type="string" name="PREC">normal</i>
   <i name="ENMAX">    500.00000000</i>
   <i name="ENAUG">    351.16500000</i>
   <i name="EDIFF">      0.00000100</i>
   <i type="int" name="IALGO">    38</i>
   <i type="int" name="IWAVPR">    10</i>
   <i type="int" name="NBANDS">    88</i>
   <i name="NELECT">    144.00000000</i>
   <i type="int" name="TURBO">     0</i>
   <i type="int" name="IRESTART">     0</i>
   <i type="int" name="NREBOOT">     0</i>
   <i type="int" name="NMIN">     0</i>
   <i name="EREF">      0.00000000</i>
   <separator name="electronic smearing" >
    <i type="int" name="ISMEAR">     0</i>
    <i name="SIGMA">      0.01000000</i>
    <i name="KSPACING">      0.50000000</i>
    <i type="logical" name="KGAMMA"> T  </i>
   </separator>
   <separator name="electronic projectors" >
    <i type="logical" name="LREAL"> T  </i>
    <v name="ROPT">     -0.00050000     -0.00050000</v>
    <i type="int" name="LMAXPAW">  -100</i>
    <i type="int" name="LMAXMIX">     2</i>
    <i type="logical" name="NLSPLINE"> F  </i>
   </separator>
   <separator name="electronic startup" >
    <i type="int" name="ISTART">     0</i>
    <i type="int" name="ICHARG">    11</i>
    <i type="int" name="INIWAV">     1</i>
   </separator>
   <separator name="electronic spin" >
    <i type="int" name="ISPIN">     1</i>
    <i type="logical" name="LNONCOLLINEAR"> F  </i>
    <v name="MAGMOM">      1.00000000      1.00000000      1.00000000      1.00000000      1.00000000      1.00000000      1.00000000      1.00000000      1.00000000      1.00000000      1.00000000      1.00000000      1.00000000      1.00000000      1.00000000      1.00000000      1.00000000      1.00000000      1.00000000      1.00000000
      1.00000000      1.00000000      1.00000000      1.00000000</v>
    <i name="NUPDOWN">     -1.00000000</i>
    <i type="logical" name="LSORBIT"> F  </i>
    <v name="SAXIS">      0.00000000      0.00000000      1.00000000</v>
    <i type="logical" name="LSPIRAL"> F  </i>
    <v name="QSPIRAL">      0.00000000      0.00000000      0.00000000</v>
    <i type="logical" name="LZEROZ"> F  </i>
   </separator>
   <separator name="electronic exchange-correlation" >
    <i type="logical" name="LASPH"> T  </i>
    <i type="logical" name="LMETAGGA"> F  </i>
   </separator>
   <separator name="electronic convergence" >
    <i type="int" name="NELM">   100</i>
    <i type="int" name="NELMDL">    -5</i>
    <i type="int" name="NELMIN">     2</i>
    <i name="ENINI">    500.00000000</i>
    <separator name="electronic convergence detail" >
     <i type="logical" name="LDIAG"> T  </i>
     <i type="logical" name="LSUBROT"> F  </i>
     <i name="WEIMIN">      0.00000000</i>
     <i name="EBREAK">      0.00000000</i>
     <i name="DEPER">      0.30000000</i>
     <i type="int" name="NRMM">     4</i>
     <i name="TIME">      0.40000000</i>
    </separator>
   </separator>
   <separator name="electronic mixer" >
    <i name="AMIX">      0.40000000</i>
    <i name="BMIX">      1.00000000</i>
    <i name="AMIN">      0.10000000</i>
    <i name="AMIX_MAG">      1.60000000</i>
    <i name="BMIX_MAG">      1.00000000</i>
    <separator name="electronic mixer details" >
     <i type="int" name="IMIX">     4</i>
     <i type="logical" name="MIXFIRST"> F  </i>
     <i type="int" name="MAXMIX">   -45</i>
     <i name="WC">    100.00000000</i>
     <i type="int" name="INIMIX">     1</i>
     <i type="int" name="MIXPRE">     1</i>
     <i type="int" name="MREMOVE">     5</i>
    </separator>
   </separator>
   <separator name="electronic dipolcorrection" >
    <i type="logical" name="LDIPOL"> F  </i>
    <i type="logical" name="LMONO"> F  </i>
    <i type="int" name="IDIPOL">     0</i>
    <i name="EPSILON">      1.00000000</i>
    <v name="DIPOL">   -100.00000000   -100.00000000   -100.00000000</v>
    <i name="EFIELD">      0.00000000</i>
   </separator>
  </separator>
  <separator name="grids" >
   <i type="int" name="NGX">    50</i>
   <i type="int" name="NGY">    40</i>
   <i type="int" name="NGZ">    64</i>
   <i type="int" name="NGXF">   100</i>
   <i type="int" name="NGYF">    80</i>
   <i type="int" name="NGZF">   128</i>
   <i type="logical" name="ADDGRID"> F  </i>
  </separator>
  <separator name="ionic" >
   <i type="int" name="NSW">     0</i>
   <i type="int" name="IBRION">    -1</i>
   <i type="int" name="MDALGO">     0</i>
   <i type="int" name="ISIF">     2</i>
   <i name="PSTRESS">      0.00000000</i>
   <i name="EDIFFG">     -0.01000000</i>
   <i type="int" name="NFREE">     0</i>
   <i name="POTIM">      0.30000000</i>
   <i name="SMASS">     -3.00000000</i>
   <i name="SCALEE">      1.00000000</i>
  </separator>
  <separator name="ionic md" >
   <i name="TEBEG">      0.00010000</i>
   <i name="TEEND">      0.00010000</i>
   <i type="int" name="NBLOCK">     1</i>
   <i type="int" name="KBLOCK">     1</i>
   <i type="int" name="NPACO">   256</i>
   <i name="APACO">     16.00000000</i>
  </separator>
  <separator name="symmetry" >
   <i type="int" name="ISYM">     2</i>
   <i name="SYMPREC">      0.00001000</i>
  </separator>
  <separator name="dos" >
   <i type="int" name="LORBIT">     0</i>
   <v name="RWIGS">     -1.00000000     -1.00000000</v>
   <i type="int" name="NEDOS">   301</i>
   <i name="EMIN">     10.00000000</i>
   <i name="EMAX">    -10.00000000</i>
   <i name="EFERMI">      0.00000000</i>
  </separator>
  <separator name="writing" >
   <i type="int" name="NWRITE">     2</i>
   <i type="logical" name="LWAVE"> T  </i>
   <i type="logical" name="LDOWNSAMPLE"> F  </i>
   <i type="logical" name="LCHARG"> T  </i>
   <i type="logical" name="LPARD"> F  </i>
   <i type="logical" name="LVTOT"> F  </i>
   <i type="logical" name="LVHAR"> F  </i>
   <i type="logical" name="LELF"> F  </i>
   <i type="logical" name="LOPTICS"> F  </i>
   <v name="STM">      0.00000000      0.00000000      0.00000000      0.00000000      0.00000000      0.00000000      0.00000000</v>
  </separator>
  <separator name="performance" >
   <i type="int" name="NPAR">     8</i>
   <i type="int" name="NSIM">     4</i>
   <i type="int" name="NBLK">    -1</i>
   <i type="logical" name="LPLANE"> T  </i>
   <i type="logical" name="LSCALAPACK"> T  </i>
   <i type="logical" name="LSCAAWARE"> F  </i>
   <i type="logical" name="LSCALU"> F  </i>
   <i type="logical" name="LASYNC"> F  </i>
   <i type="logical" name="LORBITALREAL"> F  </i>
  </separator>
  <separator name="miscellaneous" >
   <i type="int" name="IDIOT">     3</i>
   <i type="int" name="ISPECIAL">     0</i>
   <i type="logical" name="LMUSIC"> F  </i>
   <v name="POMASS">    137.32700000     28.08500000</v>
   <v name="DARWINR">      0.00000000      0.00000000</v>
   <v name="DARWINV">      1.00000000      1.00000000</v>
   <i type="logical" name="LCORR"> T  </i>
  </separator>
  <i type="logical" name="GGA_COMPAT"> T  </i>
  <i type="logical" name="LBERRY"> F  </i>
  <i type="int" name="ICORELEVEL">     0</i>
  <i type="logical" name="LDAU"> F  </i>
  <i type="int" name="I_CONSTRAINED_M">     0</i>
  <separator name="electronic exchange-correlation" >
   <i type="string" name="GGA">MK</i>
   <i type="int" name="VOSKOWN">     0</i>
   <i type="logical" name="LHFCALC"> F  </i>
   <i type="string" name="PRECFOCK"></i>
   <i type="logical" name="LSYMGRAD"> F  </i>
   <i type="logical" name="LHFONE"> F  </i>
   <i type="logical" name="LRHFCALC"> F  </i>
   <i type="logical" name="LTHOMAS"> F  </i>
   <i type="logical" name="LMODELHF"> F  </i>
   <i name="ENCUT4O">     -1.00000000</i>
   <i type="int" name="EXXOEP">     0</i>
   <i type="int" name="FOURORBIT">     0</i>
   <i name="AEXX">      0.00000000</i>
   <i name="HFALPHA">      0.00000000</i>
   <i name="MCALPHA">      0.00000000</i>
   <i name="ALDAX">      1.00000000</i>
   <i name="AGGAX">      1.00000000</i>
   <i name="ALDAC">      1.00000000</i>
   <i name="AGGAC">      0.00000000</i>
   <i type="int" name="NKREDX">     1</i>
   <i type="int" name="NKREDY">     1</i>
   <i type="int" name="NKREDZ">     1</i>
   <i type="logical" name="SHIFTRED"> F  </i>
   <i type="logical" name="ODDONLY"> F  </i>
   <i type="logical" name="EVENONLY"> F  </i>
   <i type="int" name="LMAXFOCK">     0</i>
   <i type="int" name="NMAXFOCKAE">     0</i>
   <i type="logical" name="LFOCKAEDFT"> F  </i>
   <i name="HFSCREEN">      0.00000000</i>
   <i name="HFSCREENC">      0.00000000</i>
   <i type="int" name="NBANDSGWLOW">     0</i>
  </separator>
  <separator name="vdW DFT" >
   <i type="logical" name="LUSE_VDW"> T  </i>
   <i name="Zab_VDW">     -1.88670000</i>
   <i name="PARAM1">      0.12340000</i>
   <i name="PARAM2">      0.71135700</i>
   <i name="PARAM3">      0.00000000</i>
  </separator>
  <separator name="model GW" >
   <i type="int" name="MODEL_GW">     0</i>
   <i name="MODEL_EPS0">     17.23674211</i>
   <i name="MODEL_ALPHA">      1.00000000</i>
  </separator>
  <separator name="linear response parameters" >
   <i type="logical" name="LEPSILON"> F  </i>
   <i type="logical" name="LRPA"> F  </i>
   <i type="logical" name="LNABLA"> F  </i>
   <i type="logical" name="LVEL"> F  </i>
   <i type="int" name="KINTER">     0</i>
   <i name="CSHIFT">      0.10000000</i>
   <i name="OMEGAMAX">     -1.00000000</i>
   <i name="DEG_THRESHOLD">      0.00200000</i>
   <i name="RTIME">     -0.10000000</i>
   <i name="WPLASMAI">      0.00000000</i>
   <v name="DFIELD">      0.00000000      0.00000000      0.00000000</v>
   <v name="WPLASMA">      0.00000000      0.00000000      0.00000000      0.00000000      0.00000000      0.00000000      0.00000000      0.00000000      0.00000000</v>
  </separator>
  <separator name="orbital magnetization" >
   <i type="logical" name="NUCIND"> F  </i>
   <v name="MAGPOS">      0.00000000      0.00000000      0.00000000</v>
   <i type="logical" name="LNICSALL"> T  </i>
   <i type="logical" name="ORBITALMAG"> F  </i>
   <i type="logical" name="LMAGBLOCH"> F  </i>
   <i type="logical" name="LCHIMAG"> F  </i>
   <i type="logical" name="LGAUGE"> T  </i>
   <i type="int" name="MAGATOM">     0</i>
   <v name="MAGDIPOL">      0.00000000      0.00000000      0.00000000</v>
   <v name="AVECCONST">      0.00000000      0.00000000      0.00000000</v>
  </separator>
  <separator name="response functions" >
   <i type="logical" name="LADDER"> F  </i>
   <i type="logical" name="LRPAFORCE"> F  </i>
   <i type="logical" name="LFXC"> F  </i>
   <i type="logical" name="LHARTREE"> T  </i>
   <i type="int" name="IBSE">     0</i>
   <v type="int" name="KPOINT">    -1     0     0     0</v>
   <i type="logical" name="LTCTE"> F  </i>
   <i type="logical" name="LTETE"> F  </i>
   <i type="logical" name="LTRIPLET"> F  </i>
   <i type="logical" name="LFXCEPS"> F  </i>
   <i type="logical" name="LFXHEG"> F  </i>
   <i type="int" name="NATURALO">     2</i>
   <i type="logical" name="L2ORDER"> F  </i>
   <i type="logical" name="LMP2LT"> F  </i>
   <i type="logical" name="LUSEW"> F  </i>
   <i name="ENCUTGW">     -2.00000000</i>
   <i name="ENCUTGWSOFT">     -2.00000000</i>
   <i name="ENCUTLF">     -1.00000000</i>
   <i type="int" name="LMAXMP2">    -1</i>
   <i name="SCISSOR">      0.00000000</i>
   <i type="int" name="NOMEGA">     0</i>
   <i type="int" name="NOMEGAR">     0</i>
   <i type="int" name="NBANDSGW">    -1</i>
   <i type="int" name="NBANDSO">    -1</i>
   <i type="int" name="NBANDSV">    -1</i>
   <i type="int" name="NELM">   100</i>
   <i type="int" name="NELMHF">     1</i>
   <i type="int" name="DIM">     3</i>
   <i type="int" name="ANTIRES">     0</i>
   <i name="OMEGAMAX">    -30.00000000</i>
   <i name="OMEGAMIN">    -30.00000000</i>
   <i name="OMEGATL">   -200.00000000</i>
   <i type="int" name="OMEGAGRID">   140</i>
   <i name="CSHIFT">     -0.10000000</i>
   <i type="logical" name="SELFENERGY"> F  </i>
   <i type="logical" name="LSPECTRAL"> F  </i>
   <i type="logical" name="LSPECTRALGW"> F  </i>
   <i type="logical" name="LSINGLES"> F  </i>
   <i type="logical" name="LFERMIGW"> F  </i>
   <i type="logical" name="ODDONLYGW"> F  </i>
   <i type="logical" name="EVENONLYGW"> F  </i>
   <i type="int" name="NKREDLFX">     1</i>
   <i type="int" name="NKREDLFY">     1</i>
   <i type="int" name="NKREDLFZ">     1</i>
   <i type="int" name="MAXMEM">  2800</i>
   <i type="int" name="TELESCOPE">     0</i>
   <i type="int" name="TAUPAR">     1</i>
   <i type="int" name="OMEGAPAR">    -1</i>
   <i name="LAMBDA">      1.00000000</i>
  </separator>
  <separator name="External order field" >
   <i name="OFIELD_KAPPA">      0.00000000</i>
   <v name="OFIELD_K">      0.00000000      0.00000000      0.00000000</v>
   <i name="OFIELD_Q6_NEAR">      0.00000000</i>
   <i name="OFIELD_Q6_FAR">      0.00000000</i>
   <i name="OFIELD_A">      0.00000000</i>
  </separator>
 </parameters>
 <atominfo>
  <atoms>      24 </atoms>
  <types>       2 </types>
  <array name="atoms" >
   <dimension dim="1">ion</dimension>
   <field type="string">element</field>
   <field type="int">atomtype</field>
   <set>
    <rc><c>Ba</c><c>   1</c></rc>
    <rc><c>Ba</c><c>   1</c></rc>
    <rc><c>Ba</c><c>   1</c></rc>
    <rc><c>Ba</c><c>   1</c></rc>
    <rc><c>Ba</c><c>   1</c></rc>
    <rc><c>Ba</c><c>   1</c></rc>
    <rc><c>Ba</c><c>   1</c></rc>
    <rc><c>Ba</c><c>   1</c></rc>
    <rc><c>Si</c><c>   2</c></rc>
    <rc><c>Si</c><c>   2</c></rc>
    <rc><c>Si</c><c>   2</c></rc>
    <rc><c>Si</c><c>   2</c></rc>
    <rc><c>Si</c><c>   2</c></rc>
    <rc><c>Si</c><c>   2</c></rc>
    <rc><c>Si</c><c>   2</c></rc>
    <rc><c>Si</c><c>   2</c></rc>
    <rc><c>Si</c><c>   2</c></rc>
    <rc><c>Si</c><c>   2</c></rc>
    <rc><c>Si</c><c>   2</c></rc>
    <rc><c>Si</c><c>   2</c></rc>
    <rc><c>Si</c><c>   2</c></rc>
    <rc><c>Si</c><c>   2</c></rc>
    <rc><c>Si</c><c>   2</c></rc>
    <rc><c>Si</c><c>   2</c></rc>
   </set>
  </array>
  <array name="atomtypes" >
   <dimension dim="1">type</dimension>
   <field type="int">atomspertype</field>
   <field type="string">element</field>
   <field>mass</field>
   <field>valence</field>
   <field type="string">pseudopotential</field>
   <set>
    <rc><c>   8</c><c>Ba</c><c>    137.32700000</c><c>     10.00000000</c><c> PAW_PBE Ba_sv 06Sep2000                </c></rc>
    <rc><c>  16</c><c>Si</c><c>     28.08500000</c><c>      4.00000000</c><c> PAW_PBE Si 05Jan2001                   </c></rc>
   </set>
  </array>
 </atominfo>
 <structure name="initialpos" >
  <crystal>
   <varray name="basis" >
    <v>       8.90826050       0.00000000       0.00000000 </v>
    <v>       0.00000000       6.72686198       0.00000000 </v>
    <v>       0.00000000       0.00000000      11.50561267 </v>
   </varray>
   <i name="volume">    689.46968423 </i>
   <varray name="rec_basis" >
    <v>       0.11225536       0.00000000       0.00000000 </v>
    <v>       0.00000000       0.14865773       0.00000000 </v>
    <v>       0.00000000       0.00000000       0.08691410 </v>
   </varray>
  </crystal>
  <varray name="positions" >
   <v>       0.01536406       0.25000000       0.69213186 </v>
   <v>       0.98463594       0.75000002       0.30786814 </v>
   <v>       0.48463594       0.75000002       0.19213180 </v>
   <v>       0.51536406       0.25000000       0.80786818 </v>
   <v>       0.16070224       0.75000002       0.90650282 </v>
   <v>       0.83929776       0.25000000       0.09349716 </v>
   <v>       0.33929776       0.25000000       0.40650290 </v>
   <v>       0.66070224       0.75000002       0.59349714 </v>
   <v>       0.19345800       0.07100390       0.14637424 </v>
   <v>       0.80654200       0.92899609       0.85362574 </v>
   <v>       0.30654200       0.92899609       0.64637426 </v>
   <v>       0.69345800       0.07100390       0.35362574 </v>
   <v>       0.80654200       0.57100391       0.85362574 </v>
   <v>       0.19345800       0.42899609       0.14637424 </v>
   <v>       0.69345800       0.42899609       0.35362574 </v>
   <v>       0.30654200       0.57100391       0.64637426 </v>
   <v>       0.08126801       0.75000002       0.59096745 </v>
   <v>       0.91873197       0.25000000       0.40903255 </v>
   <v>       0.41873200       0.25000000       0.09096738 </v>
   <v>       0.58126803       0.75000002       0.90903260 </v>
   <v>       0.19639773       0.25000000       0.96492478 </v>
   <v>       0.80360225       0.75000002       0.03507524 </v>
   <v>       0.30360225       0.75000002       0.46492469 </v>
   <v>       0.69639775       0.25000000       0.53507522 </v>
  </varray>
 </structure>
 <calculation>
  <scstep>
   <time name="dav">    8.42    8.47</time>
   <time name="total">    9.83    9.90</time>
   <energy>
    <i name="alphaZ">    466.78151634 </i>
    <i name="ewald">  -6442.96156159 </i>
    <i name="hartreedc">   -899.32484706 </i>
    <i name="XCdc">     49.11024097 </i>
    <i name="pawpsdc">   3865.12538590 </i>
    <i name="pawaedc">  -3570.76707164 </i>
    <i name="eentropy">     -0.00022787 </i>
    <i name="bandstr">    118.99888513 </i>
    <i name="atom">   7269.15145414 </i>
    <i name="e_fr_energy">    856.11377433 </i>
    <i name="e_wo_entrp">    856.11400220 </i>
    <i name="e_0_energy">    856.11388826 </i>
   </energy>
  </scstep>
  <scstep>
   <time name="dav">   10.57   10.60</time>
   <time name="total">   10.57   10.61</time>
   <energy>
    <i name="e_fr_energy">    -16.29133231 </i>
    <i name="e_wo_entrp">    -16.29112324 </i>
    <i name="e_0_energy">    -16.29122777 </i>
   </energy>
  </scstep>
  <scstep>
   <time name="dav">    9.47    9.49</time>
   <time name="total">    9.47    9.50</time>
   <energy>
    <i name="e_fr_energy">    -95.90530303 </i>
    <i name="e_wo_entrp">    -95.90530303 </i>
    <i name="e_0_energy">    -95.90530303 </i>
   </energy>
  </scstep>
  <scstep>
   <time name="dav">   11.53   11.56</time>
   <time name="total">   11.53   11.56</time>
   <energy>
    <i name="e_fr_energy">    -98.56114449 </i>
    <i name="e_wo_entrp">    -98.56114449 </i>
    <i name="e_0_energy">    -98.56114449 </i>
   </energy>
  </scstep>
  <scstep>
   <time name="dav">   10.14   10.17</time>
   <time name="total">   10.14   10.17</time>
   <energy>
    <i name="e_fr_energy">    -98.62402524 </i>
    <i name="e_wo_entrp">    -98.62402524 </i>
    <i name="e_0_energy">    -98.62402524 </i>
   </energy>
  </scstep>
  <scstep>
   <time name="dav">   11.15   11.18</time>
   <time name="total">   11.17   11.20</time>
   <energy>
    <i name="e_fr_energy">    -98.62539546 </i>
    <i name="e_wo_entrp">    -98.62539546 </i>
    <i name="e_0_energy">    -98.62539546 </i>
   </energy>
  </scstep>
  <scstep>
   <time name="dav">    9.99   10.01</time>
   <time name="total">    9.99   10.01</time>
   <energy>
    <i name="e_fr_energy">    -98.62543132 </i>
    <i name="e_wo_entrp">    -98.62543132 </i>
    <i name="e_0_energy">    -98.62543132 </i>
   </energy>
  </scstep>
  <scstep>
   <time name="dav">    8.54    8.56</time>
   <time name="total">    8.54    8.56</time>
   <energy>
    <i name="alphaZ">    466.78151634 </i>
    <i name="ewald">  -6442.96156159 </i>
    <i name="hartreedc">   -899.32484706 </i>
    <i name="XCdc">     49.11024097 </i>
    <i name="pawpsdc">   3865.12538590 </i>
    <i name="pawaedc">  -3570.76707164 </i>
    <i name="eentropy">     -0.00000000 </i>
    <i name="bandstr">   -835.74054903 </i>
    <i name="atom">   7269.15145414 </i>
    <i name="e_fr_energy">    -98.62543196 </i>
    <i name="e_wo_entrp">    -98.62543196 </i>
    <i name="e_0_energy">    -98.62543196 </i>
   </energy>
  </scstep>
  <structure>
   <crystal>
    <varray name="basis" >
     <v>       8.90826050       0.00000000       0.00000000 </v>
     <v>       0.00000000       6.72686198       0.00000000 </v>
     <v>       0.00000000       0.00000000      11.50561267 </v>
    </varray>
    <i name="volume">    689.46968423 </i>
    <varray name="rec_basis" >
     <v>       0.11225536       0.00000000       0.00000000 </v>
     <v>       0.00000000       0.14865773       0.00000000 </v>
     <v>       0.00000000       0.00000000       0.08691410 </v>
    </varray>
   </crystal>
   <varray name="positions" >
    <v>       0.01536406       0.25000000       0.69213186 </v>
    <v>       0.98463594       0.75000002       0.30786814 </v>
    <v>       0.48463594       0.75000002       0.19213180 </v>
    <v>       0.51536406       0.25000000       0.80786818 </v>
    <v>       0.16070224       0.75000002       0.90650282 </v>
    <v>       0.83929776       0.25000000       0.09349716 </v>
    <v>       0.33929776       0.25000000       0.40650290 </v>
    <v>       0.66070224       0.75000002       0.59349714 </v>
    <v>       0.19345800       0.07100390       0.14637424 </v>
    <v>       0.80654200       0.92899609       0.85362574 </v>
    <v>       0.30654200       0.92899609       0.64637426 </v>
    <v>       0.69345800       0.07100390       0.35362574 </v>
    <v>       0.80654200       0.57100391       0.85362574 </v>
    <v>       0.19345800       0.42899609       0.14637424 </v>
    <v>       0.69345800       0.42899609       0.35362574 </v>
    <v>       0.30654200       0.57100391       0.64637426 </v>
    <v>       0.08126801       0.75000002       0.59096745 </v>
    <v>       0.91873197       0.25000000       0.40903255 </v>
    <v>       0.41873200       0.25000000       0.09096738 </v>
    <v>       0.58126803       0.75000002       0.90903260 </v>
    <v>       0.19639773       0.25000000       0.96492478 </v>
    <v>       0.80360225       0.75000002       0.03507524 </v>
    <v>       0.30360225       0.75000002       0.46492469 </v>
    <v>       0.69639775       0.25000000       0.53507522 </v>
   </varray>
  </structure>
  <varray name="forces" >
   <v>      -0.05139701       0.00000000       0.08365968 </v>
   <v>       0.05139701       0.00000000      -0.08365968 </v>
   <v>       0.05139701      -0.00000000       0.08365968 </v>
   <v>      -0.05139701      -0.00000000      -0.08365968 </v>
   <v>       0.07655804       0.00000000      -0.03555433 </v>
   <v>      -0.07655804      -0.00000000       0.03555433 </v>
   <v>      -0.07655804       0.00000000      -0.03555433 </v>
   <v>       0.07655804      -0.00000000       0.03555433 </v>
   <v>      -0.08228026      -0.01464272      -0.04207407 </v>
   <v>       0.08228026       0.01464272       0.04207407 </v>
   <v>       0.08228026       0.01464272      -0.04207407 </v>
   <v>      -0.08228026      -0.01464272       0.04207407 </v>
   <v>       0.08228026      -0.01464272       0.04207407 </v>
   <v>      -0.08228026       0.01464272      -0.04207407 </v>
   <v>      -0.08228026       0.01464272       0.04207407 </v>
   <v>       0.08228026      -0.01464272      -0.04207407 </v>
   <v>      -0.07519218      -0.00000000      -0.02219595 </v>
   <v>       0.07519218       0.00000000       0.02219595 </v>
   <v>       0.07519218      -0.00000000      -0.02219595 </v>
   <v>      -0.07519218       0.00000000       0.02219595 </v>
   <v>       0.02161156      -0.00000000       0.07940462 </v>
   <v>      -0.02161156       0.00000000      -0.07940462 </v>
   <v>      -0.02161156       0.00000000       0.07940462 </v>
   <v>       0.02161156       0.00000000      -0.07940462 </v>
  </varray>
  <varray name="stress" >
   <v>     -22.05656489       0.00000000       0.00000000 </v>
   <v>       0.00000000      -2.21314034       0.00000000 </v>
   <v>       0.00000000       0.00000000       6.95911683 </v>
  </varray>
  <energy>
   <i name="e_fr_energy">    -98.62543196 </i>
   <i name="e_wo_entrp">    -98.62543196 </i>
   <i name="e_0_energy">     -0.00000000 </i>
  </energy>
  <time name="totalsc">  101.08  105.70</time>
  <eigenvalues>
   <array>
    <dimension dim="1">band</dimension>
    <dimension dim="2">kpoint</dimension>
    <dimension dim="3">spin</dimension>
    <field>eigene</field>
    <field>occ</field>
    <set>
     <set comment="spin 1">
      <set comment="kpoint 1">
       <r>  -23.9643    1.0000 </r>
       <r>  -23.9587    1.0000 </r>
       <r>  -23.9551    1.0000 </r>
       <r>  -23.9549    1.0000 </r>
       <r>  -23.8790    1.0000 </r>
       <r>  -23.8759    1.0000 </r>
       <r>  -23.8709    1.0000 </r>
       <r>  -23.8688    1.0000 </r>
       <r>   -9.5413    1.0000 </r>
       <r>   -9.5198    1.0000 </r>
       <r>   -9.4772    1.0000 </r>
       <r>   -9.4702    1.0000 </r>
       <r>   -9.4258    1.0000 </r>
       <r>   -9.3824    1.0000 </r>
       <r>   -9.3788    1.0000 </r>
       <r>   -9.3610    1.0000 </r>
       <r>   -9.3566    1.0000 </r>
       <r>   -9.3289    1.0000 </r>
       <r>   -9.3211    1.0000 </r>
       <r>   -9.3174    1.0000 </r>
       <r>   -9.2729    1.0000 </r>
       <r>   -9.2377    1.0000 </r>
       <r>   -9.2031    1.0000 </r>
       <r>   -9.2021    1.0000 </r>
       <r>   -9.1975    1.0000 </r>
       <r>   -9.1726    1.0000 </r>
       <r>   -9.1598    1.0000 </r>
       <r>   -9.1590    1.0000 </r>
       <r>   -9.1427    1.0000 </r>
       <r>   -9.1413    1.0000 </r>
       <r>   -9.1291    1.0000 </r>
       <r>   -9.1180    1.0000 </r>
       <r>   -7.2112    1.0000 </r>
       <r>   -6.9486    1.0000 </r>
       <r>   -6.9081    1.0000 </r>
       <r>   -6.8846    1.0000 </r>
       <r>   -2.5857    1.0000 </r>
       <r>   -2.5214    1.0000 </r>
       <r>   -2.2573    1.0000 </r>
       <r>   -2.2387    1.0000 </r>
       <r>   -2.1496    1.0000 </r>
       <r>   -2.1307    1.0000 </r>
       <r>   -2.1299    1.0000 </r>
       <r>   -2.0877    1.0000 </r>
       <r>   -2.0291    1.0000 </r>
       <r>   -1.9786    1.0000 </r>
       <r>   -1.9292    1.0000 </r>
       <r>   -1.7579    1.0000 </r>
       <r>    0.0089    1.0000 </r>
       <r>    1.0378    1.0000 </r>
       <r>    1.2279    1.0000 </r>
       <r>    1.2682    1.0000 </r>
       <r>    1.3226    1.0000 </r>
       <r>    1.5398    1.0000 </r>
       <r>    1.7711    1.0000 </r>
       <r>    1.8350    1.0000 </r>
       <r>    1.8420    1.0000 </r>
       <r>    1.8990    1.0000 </r>
       <r>    1.9123    1.0000 </r>
       <r>    2.1401    1.0000 </r>
       <r>    2.1528    1.0000 </r>
       <r>    2.1585    1.0000 </r>
       <r>    2.3048    1.0000 </r>
       <r>    2.4232    1.0000 </r>
       <r>    2.4838    1.0000 </r>
       <r>    2.5540    1.0000 </r>
       <r>    2.5763    1.0000 </r>
       <r>    2.6077    1.0000 </r>
       <r>    2.9493    1.0000 </r>
       <r>    3.1807    1.0000 </r>
       <r>    3.2325    1.0000 </r>
       <r>    3.3562    1.0000 </r>
       <r>    4.5416    0.0000 </r>
       <r>    4.5437    0.0000 </r>
       <r>    4.8823    0.0000 </r>
       <r>    5.0623    0.0000 </r>
       <r>    5.0721    0.0000 </r>
       <r>    5.4311    0.0000 </r>
       <r>    5.6256    0.0000 </r>
       <r>    5.8183    0.0000 </r>
       <r>    5.8555    0.0000 </r>
       <r>    6.0922    0.0000 </r>
       <r>    6.1392    0.0000 </r>
       <r>    6.1455    0.0000 </r>
       <r>    6.1622    0.0000 </r>
       <r>    6.2506    0.0000 </r>
       <r>    6.2802    0.0000 </r>
       <r>    6.6182    0.0000 </r>
      </set>
      <set comment="kpoint 2">
       <r>  -23.9642    1.0000 </r>
       <r>  -23.9587    1.0000 </r>
       <r>  -23.9551    1.0000 </r>
       <r>  -23.9549    1.0000 </r>
       <r>  -23.8790    1.0000 </r>
       <r>  -23.8759    1.0000 </r>
       <r>  -23.8709    1.0000 </r>
       <r>  -23.8688    1.0000 </r>
       <r>   -9.5410    1.0000 </r>
       <r>   -9.5199    1.0000 </r>
       <r>   -9.4829    1.0000 </r>
       <r>   -9.4643    1.0000 </r>
       <r>   -9.4258    1.0000 </r>
       <r>   -9.3857    1.0000 </r>
       <r>   -9.3802    1.0000 </r>
       <r>   -9.3616    1.0000 </r>
       <r>   -9.3535    1.0000 </r>
       <r>   -9.3340    1.0000 </r>
       <r>   -9.3273    1.0000 </r>
       <r>   -9.3048    1.0000 </r>
       <r>   -9.2734    1.0000 </r>
       <r>   -9.2383    1.0000 </r>
       <r>   -9.2031    1.0000 </r>
       <r>   -9.2023    1.0000 </r>
       <r>   -9.1970    1.0000 </r>
       <r>   -9.1731    1.0000 </r>
       <r>   -9.1593    1.0000 </r>
       <r>   -9.1588    1.0000 </r>
       <r>   -9.1427    1.0000 </r>
       <r>   -9.1418    1.0000 </r>
       <r>   -9.1291    1.0000 </r>
       <r>   -9.1179    1.0000 </r>
       <r>   -7.2097    1.0000 </r>
       <r>   -6.9482    1.0000 </r>
       <r>   -6.9081    1.0000 </r>
       <r>   -6.8846    1.0000 </r>
       <r>   -2.5840    1.0000 </r>
       <r>   -2.5200    1.0000 </r>
       <r>   -2.2568    1.0000 </r>
       <r>   -2.2376    1.0000 </r>
       <r>   -2.1621    1.0000 </r>
       <r>   -2.1292    1.0000 </r>
       <r>   -2.1170    1.0000 </r>
       <r>   -2.0871    1.0000 </r>
       <r>   -2.0337    1.0000 </r>
       <r>   -1.9784    1.0000 </r>
       <r>   -1.9332    1.0000 </r>
       <r>   -1.7578    1.0000 </r>
       <r>    0.0162    1.0000 </r>
       <r>    1.0403    1.0000 </r>
       <r>    1.2290    1.0000 </r>
       <r>    1.2697    1.0000 </r>
       <r>    1.3230    1.0000 </r>
       <r>    1.5389    1.0000 </r>
       <r>    1.7408    1.0000 </r>
       <r>    1.8427    1.0000 </r>
       <r>    1.8520    1.0000 </r>
       <r>    1.9086    1.0000 </r>
       <r>    1.9148    1.0000 </r>
       <r>    2.1414    1.0000 </r>
       <r>    2.1504    1.0000 </r>
       <r>    2.1591    1.0000 </r>
       <r>    2.3053    1.0000 </r>
       <r>    2.4255    1.0000 </r>
       <r>    2.4819    1.0000 </r>
       <r>    2.5541    1.0000 </r>
       <r>    2.5557    1.0000 </r>
       <r>    2.6262    1.0000 </r>
       <r>    2.9470    1.0000 </r>
       <r>    3.1460    1.0000 </r>
       <r>    3.2647    1.0000 </r>
       <r>    3.3571    1.0000 </r>
       <r>    4.5355    0.0000 </r>
       <r>    4.5406    0.0000 </r>
       <r>    4.8847    0.0000 </r>
       <r>    5.0666    0.0000 </r>
       <r>    5.0779    0.0000 </r>
       <r>    5.4301    0.0000 </r>
       <r>    5.6358    0.0000 </r>
       <r>    5.7542    0.0000 </r>
       <r>    5.9235    0.0000 </r>
       <r>    6.0805    0.0000 </r>
       <r>    6.0893    0.0000 </r>
       <r>    6.1248    0.0000 </r>
       <r>    6.2207    0.0000 </r>
       <r>    6.2490    0.0000 </r>
       <r>    6.2728    0.0000 </r>
       <r>    6.5666    0.0000 </r>
      </set>
      <set comment="kpoint 3">
       <r>  -23.9641    1.0000 </r>
       <r>  -23.9587    1.0000 </r>
       <r>  -23.9551    1.0000 </r>
       <r>  -23.9549    1.0000 </r>
       <r>  -23.8791    1.0000 </r>
       <r>  -23.8760    1.0000 </r>
       <r>  -23.8709    1.0000 </r>
       <r>  -23.8689    1.0000 </r>
       <r>   -9.5400    1.0000 </r>
       <r>   -9.5204    1.0000 </r>
       <r>   -9.4906    1.0000 </r>
       <r>   -9.4558    1.0000 </r>
       <r>   -9.4257    1.0000 </r>
       <r>   -9.3930    1.0000 </r>
       <r>   -9.3838    1.0000 </r>
       <r>   -9.3631    1.0000 </r>
       <r>   -9.3487    1.0000 </r>
       <r>   -9.3467    1.0000 </r>
       <r>   -9.3231    1.0000 </r>
       <r>   -9.2908    1.0000 </r>
       <r>   -9.2751    1.0000 </r>
       <r>   -9.2401    1.0000 </r>
       <r>   -9.2032    1.0000 </r>
       <r>   -9.2026    1.0000 </r>
       <r>   -9.1956    1.0000 </r>
       <r>   -9.1745    1.0000 </r>
       <r>   -9.1582    1.0000 </r>
       <r>   -9.1578    1.0000 </r>
       <r>   -9.1433    1.0000 </r>
       <r>   -9.1427    1.0000 </r>
       <r>   -9.1292    1.0000 </r>
       <r>   -9.1178    1.0000 </r>
       <r>   -7.2051    1.0000 </r>
       <r>   -6.9472    1.0000 </r>
       <r>   -6.9079    1.0000 </r>
       <r>   -6.8848    1.0000 </r>
       <r>   -2.5790    1.0000 </r>
       <r>   -2.5158    1.0000 </r>
       <r>   -2.2553    1.0000 </r>
       <r>   -2.2345    1.0000 </r>
       <r>   -2.1795    1.0000 </r>
       <r>   -2.1272    1.0000 </r>
       <r>   -2.0962    1.0000 </r>
       <r>   -2.0855    1.0000 </r>
       <r>   -2.0470    1.0000 </r>
       <r>   -1.9777    1.0000 </r>
       <r>   -1.9446    1.0000 </r>
       <r>   -1.7576    1.0000 </r>
       <r>    0.0377    1.0000 </r>
       <r>    1.0475    1.0000 </r>
       <r>    1.2324    1.0000 </r>
       <r>    1.2741    1.0000 </r>
       <r>    1.3242    1.0000 </r>
       <r>    1.5365    1.0000 </r>
       <r>    1.6885    1.0000 </r>
       <r>    1.8449    1.0000 </r>
       <r>    1.8620    1.0000 </r>
       <r>    1.9218    1.0000 </r>
       <r>    1.9402    1.0000 </r>
       <r>    2.1432    1.0000 </r>
       <r>    2.1451    1.0000 </r>
       <r>    2.1614    1.0000 </r>
       <r>    2.3065    1.0000 </r>
       <r>    2.4321    1.0000 </r>
       <r>    2.4767    1.0000 </r>
       <r>    2.5185    1.0000 </r>
       <r>    2.5604    1.0000 </r>
       <r>    2.6497    1.0000 </r>
       <r>    2.9413    1.0000 </r>
       <r>    3.0922    1.0000 </r>
       <r>    3.3110    1.0000 </r>
       <r>    3.3593    1.0000 </r>
       <r>    4.5126    0.0000 </r>
       <r>    4.5377    0.0000 </r>
       <r>    4.8918    0.0000 </r>
       <r>    5.0785    0.0000 </r>
       <r>    5.0946    0.0000 </r>
       <r>    5.4265    0.0000 </r>
       <r>    5.6651    0.0000 </r>
       <r>    5.6814    0.0000 </r>
       <r>    6.0009    0.0000 </r>
       <r>    6.0043    0.0000 </r>
       <r>    6.0800    0.0000 </r>
       <r>    6.0879    0.0000 </r>
       <r>    6.2458    0.0000 </r>
       <r>    6.2629    0.0000 </r>
       <r>    6.2767    0.0000 </r>
       <r>    6.5094    0.0000 </r>
      </set>
      <set comment="kpoint 4">
       <r>  -23.9640    1.0000 </r>
       <r>  -23.9586    1.0000 </r>
       <r>  -23.9551    1.0000 </r>
       <r>  -23.9550    1.0000 </r>
       <r>  -23.8791    1.0000 </r>
       <r>  -23.8761    1.0000 </r>
       <r>  -23.8709    1.0000 </r>
       <r>  -23.8689    1.0000 </r>
       <r>   -9.5384    1.0000 </r>
       <r>   -9.5212    1.0000 </r>
       <r>   -9.4980    1.0000 </r>
       <r>   -9.4469    1.0000 </r>
       <r>   -9.4257    1.0000 </r>
       <r>   -9.4016    1.0000 </r>
       <r>   -9.3887    1.0000 </r>
       <r>   -9.3658    1.0000 </r>
       <r>   -9.3631    1.0000 </r>
       <r>   -9.3389    1.0000 </r>
       <r>   -9.3171    1.0000 </r>
       <r>   -9.2777    1.0000 </r>
       <r>   -9.2773    1.0000 </r>
       <r>   -9.2427    1.0000 </r>
       <r>   -9.2033    1.0000 </r>
       <r>   -9.2031    1.0000 </r>
       <r>   -9.1935    1.0000 </r>
       <r>   -9.1770    1.0000 </r>
       <r>   -9.1571    1.0000 </r>
       <r>   -9.1554    1.0000 </r>
       <r>   -9.1454    1.0000 </r>
       <r>   -9.1427    1.0000 </r>
       <r>   -9.1293    1.0000 </r>
       <r>   -9.1174    1.0000 </r>
       <r>   -7.1976    1.0000 </r>
       <r>   -6.9455    1.0000 </r>
       <r>   -6.9076    1.0000 </r>
       <r>   -6.8851    1.0000 </r>
       <r>   -2.5707    1.0000 </r>
       <r>   -2.5090    1.0000 </r>
       <r>   -2.2527    1.0000 </r>
       <r>   -2.2296    1.0000 </r>
       <r>   -2.1956    1.0000 </r>
       <r>   -2.1240    1.0000 </r>
       <r>   -2.0830    1.0000 </r>
       <r>   -2.0743    1.0000 </r>
       <r>   -2.0681    1.0000 </r>
       <r>   -1.9768    1.0000 </r>
       <r>   -1.9627    1.0000 </r>
       <r>   -1.7579    1.0000 </r>
       <r>    0.0725    1.0000 </r>
       <r>    1.0586    1.0000 </r>
       <r>    1.2380    1.0000 </r>
       <r>    1.2816    1.0000 </r>
       <r>    1.3261    1.0000 </r>
       <r>    1.5327    1.0000 </r>
       <r>    1.6323    1.0000 </r>
       <r>    1.8482    1.0000 </r>
       <r>    1.8602    1.0000 </r>
       <r>    1.9325    1.0000 </r>
       <r>    1.9808    1.0000 </r>
       <r>    2.1316    1.0000 </r>
       <r>    2.1514    1.0000 </r>
       <r>    2.1656    1.0000 </r>
       <r>    2.3081    1.0000 </r>
       <r>    2.4427    1.0000 </r>
       <r>    2.4693    1.0000 </r>
       <r>    2.4789    1.0000 </r>
       <r>    2.5678    1.0000 </r>
       <r>    2.6666    1.0000 </r>
       <r>    2.9348    1.0000 </r>
       <r>    3.0354    1.0000 </r>
       <r>    3.3560    1.0000 </r>
       <r>    3.3623    1.0000 </r>
       <r>    4.4792    0.0000 </r>
       <r>    4.5330    0.0000 </r>
       <r>    4.9041    0.0000 </r>
       <r>    5.0962    0.0000 </r>
       <r>    5.1203    0.0000 </r>
       <r>    5.4185    0.0000 </r>
       <r>    5.6172    0.0000 </r>
       <r>    5.7098    0.0000 </r>
       <r>    5.9131    0.0000 </r>
       <r>    6.0090    0.0000 </r>
       <r>    6.0650    0.0000 </r>
       <r>    6.1157    0.0000 </r>
       <r>    6.2424    0.0000 </r>
       <r>    6.2574    0.0000 </r>
       <r>    6.3302    0.0000 </r>
       <r>    6.4777    0.0000 </r>
      </set>
      <set comment="kpoint 5">
       <r>  -23.9638    1.0000 </r>
       <r>  -23.9585    1.0000 </r>
       <r>  -23.9551    1.0000 </r>
       <r>  -23.9550    1.0000 </r>
       <r>  -23.8792    1.0000 </r>
       <r>  -23.8762    1.0000 </r>
       <r>  -23.8709    1.0000 </r>
       <r>  -23.8689    1.0000 </r>
       <r>   -9.5362    1.0000 </r>
       <r>   -9.5223    1.0000 </r>
       <r>   -9.5049    1.0000 </r>
       <r>   -9.4381    1.0000 </r>
       <r>   -9.4257    1.0000 </r>
       <r>   -9.4106    1.0000 </r>
       <r>   -9.3942    1.0000 </r>
       <r>   -9.3779    1.0000 </r>
       <r>   -9.3688    1.0000 </r>
       <r>   -9.3311    1.0000 </r>
       <r>   -9.3102    1.0000 </r>
       <r>   -9.2813    1.0000 </r>
       <r>   -9.2645    1.0000 </r>
       <r>   -9.2460    1.0000 </r>
       <r>   -9.2035    1.0000 </r>
       <r>   -9.2035    1.0000 </r>
       <r>   -9.1909    1.0000 </r>
       <r>   -9.1807    1.0000 </r>
       <r>   -9.1555    1.0000 </r>
       <r>   -9.1524    1.0000 </r>
       <r>   -9.1480    1.0000 </r>
       <r>   -9.1425    1.0000 </r>
       <r>   -9.1296    1.0000 </r>
       <r>   -9.1169    1.0000 </r>
       <r>   -7.1874    1.0000 </r>
       <r>   -6.9432    1.0000 </r>
       <r>   -6.9073    1.0000 </r>
       <r>   -6.8855    1.0000 </r>
       <r>   -2.5595    1.0000 </r>
       <r>   -2.4995    1.0000 </r>
       <r>   -2.2492    1.0000 </r>
       <r>   -2.2229    1.0000 </r>
       <r>   -2.2098    1.0000 </r>
       <r>   -2.1198    1.0000 </r>
       <r>   -2.0954    1.0000 </r>
       <r>   -2.0796    1.0000 </r>
       <r>   -2.0523    1.0000 </r>
       <r>   -1.9861    1.0000 </r>
       <r>   -1.9758    1.0000 </r>
       <r>   -1.7592    1.0000 </r>
       <r>    0.1191    1.0000 </r>
       <r>    1.0726    1.0000 </r>
       <r>    1.2457    1.0000 </r>
       <r>    1.2924    1.0000 </r>
       <r>    1.3287    1.0000 </r>
       <r>    1.5280    1.0000 </r>
       <r>    1.5762    1.0000 </r>
       <r>    1.8527    1.0000 </r>
       <r>    1.8540    1.0000 </r>
       <r>    1.9454    1.0000 </r>
       <r>    2.0202    1.0000 </r>
       <r>    2.1159    1.0000 </r>
       <r>    2.1603    1.0000 </r>
       <r>    2.1722    1.0000 </r>
       <r>    2.3092    1.0000 </r>
       <r>    2.4359    1.0000 </r>
       <r>    2.4568    1.0000 </r>
       <r>    2.4618    1.0000 </r>
       <r>    2.5774    1.0000 </r>
       <r>    2.6740    1.0000 </r>
       <r>    2.9308    1.0000 </r>
       <r>    2.9778    1.0000 </r>
       <r>    3.3651    1.0000 </r>
       <r>    3.3980    1.0000 </r>
       <r>    4.4408    0.0000 </r>
       <r>    4.5267    0.0000 </r>
       <r>    4.9217    0.0000 </r>
       <r>    5.1160    0.0000 </r>
       <r>    5.1520    0.0000 </r>
       <r>    5.4035    0.0000 </r>
       <r>    5.5647    0.0000 </r>
       <r>    5.7652    0.0000 </r>
       <r>    5.8173    0.0000 </r>
       <r>    5.9380    0.0000 </r>
       <r>    6.0417    0.0000 </r>
       <r>    6.1863    0.0000 </r>
       <r>    6.2268    0.0000 </r>
       <r>    6.2309    0.0000 </r>
       <r>    6.3065    0.0000 </r>
       <r>    6.4324    0.0000 </r>
      </set>
      <set comment="kpoint 6">
       <r>  -23.9635    1.0000 </r>
       <r>  -23.9584    1.0000 </r>
       <r>  -23.9551    1.0000 </r>
       <r>  -23.9550    1.0000 </r>
       <r>  -23.8793    1.0000 </r>
       <r>  -23.8764    1.0000 </r>
       <r>  -23.8709    1.0000 </r>
       <r>  -23.8690    1.0000 </r>
       <r>   -9.5335    1.0000 </r>
       <r>   -9.5237    1.0000 </r>
       <r>   -9.5112    1.0000 </r>
       <r>   -9.4296    1.0000 </r>
       <r>   -9.4258    1.0000 </r>
       <r>   -9.4196    1.0000 </r>
       <r>   -9.4000    1.0000 </r>
       <r>   -9.3920    1.0000 </r>
       <r>   -9.3727    1.0000 </r>
       <r>   -9.3237    1.0000 </r>
       <r>   -9.3028    1.0000 </r>
       <r>   -9.2855    1.0000 </r>
       <r>   -9.2527    1.0000 </r>
       <r>   -9.2499    1.0000 </r>
       <r>   -9.2037    1.0000 </r>
       <r>   -9.2035    1.0000 </r>
       <r>   -9.1879    1.0000 </r>
       <r>   -9.1856    1.0000 </r>
       <r>   -9.1536    1.0000 </r>
       <r>   -9.1506    1.0000 </r>
       <r>   -9.1489    1.0000 </r>
       <r>   -9.1423    1.0000 </r>
       <r>   -9.1302    1.0000 </r>
       <r>   -9.1163    1.0000 </r>
       <r>   -7.1748    1.0000 </r>
       <r>   -6.9405    1.0000 </r>
       <r>   -6.9068    1.0000 </r>
       <r>   -6.8860    1.0000 </r>
       <r>   -2.5456    1.0000 </r>
       <r>   -2.4877    1.0000 </r>
       <r>   -2.2446    1.0000 </r>
       <r>   -2.2218    1.0000 </r>
       <r>   -2.2153    1.0000 </r>
       <r>   -2.1270    1.0000 </r>
       <r>   -2.1148    1.0000 </r>
       <r>   -2.0756    1.0000 </r>
       <r>   -2.0307    1.0000 </r>
       <r>   -2.0137    1.0000 </r>
       <r>   -1.9748    1.0000 </r>
       <r>   -1.7617    1.0000 </r>
       <r>    0.1758    1.0000 </r>
       <r>    1.0880    1.0000 </r>
       <r>    1.2554    1.0000 </r>
       <r>    1.3065    1.0000 </r>
       <r>    1.3316    1.0000 </r>
       <r>    1.5222    1.0000 </r>
       <r>    1.5228    1.0000 </r>
       <r>    1.8456    1.0000 </r>
       <r>    1.8579    1.0000 </r>
       <r>    1.9590    1.0000 </r>
       <r>    2.0558    1.0000 </r>
       <r>    2.0966    1.0000 </r>
       <r>    2.1716    1.0000 </r>
       <r>    2.1815    1.0000 </r>
       <r>    2.3090    1.0000 </r>
       <r>    2.3892    1.0000 </r>
       <r>    2.4568    1.0000 </r>
       <r>    2.4735    1.0000 </r>
       <r>    2.5886    1.0000 </r>
       <r>    2.6714    1.0000 </r>
       <r>    2.9209    1.0000 </r>
       <r>    2.9309    1.0000 </r>
       <r>    3.3667    1.0000 </r>
       <r>    3.4367    1.0000 </r>
       <r>    4.4026    0.0000 </r>
       <r>    4.5188    0.0000 </r>
       <r>    4.9453    0.0000 </r>
       <r>    5.1329    0.0000 </r>
       <r>    5.1865    0.0000 </r>
       <r>    5.3778    0.0000 </r>
       <r>    5.5263    0.0000 </r>
       <r>    5.7162    0.0000 </r>
       <r>    5.8267    0.0000 </r>
       <r>    5.8630    0.0000 </r>
       <r>    6.0118    0.0000 </r>
       <r>    6.1998    0.0000 </r>
       <r>    6.2186    0.0000 </r>
       <r>    6.2523    0.0000 </r>
       <r>    6.2848    0.0000 </r>
       <r>    6.4427    0.0000 </r>
      </set>
      <set comment="kpoint 7">
       <r>  -23.9632    1.0000 </r>
       <r>  -23.9583    1.0000 </r>
       <r>  -23.9551    1.0000 </r>
       <r>  -23.9550    1.0000 </r>
       <r>  -23.8794    1.0000 </r>
       <r>  -23.8766    1.0000 </r>
       <r>  -23.8709    1.0000 </r>
       <r>  -23.8690    1.0000 </r>
       <r>   -9.5304    1.0000 </r>
       <r>   -9.5253    1.0000 </r>
       <r>   -9.5167    1.0000 </r>
       <r>   -9.4284    1.0000 </r>
       <r>   -9.4261    1.0000 </r>
       <r>   -9.4213    1.0000 </r>
       <r>   -9.4057    1.0000 </r>
       <r>   -9.4057    1.0000 </r>
       <r>   -9.3769    1.0000 </r>
       <r>   -9.3168    1.0000 </r>
       <r>   -9.2954    1.0000 </r>
       <r>   -9.2901    1.0000 </r>
       <r>   -9.2541    1.0000 </r>
       <r>   -9.2424    1.0000 </r>
       <r>   -9.2040    1.0000 </r>
       <r>   -9.2029    1.0000 </r>
       <r>   -9.1917    1.0000 </r>
       <r>   -9.1846    1.0000 </r>
       <r>   -9.1531    1.0000 </r>
       <r>   -9.1513    1.0000 </r>
       <r>   -9.1452    1.0000 </r>
       <r>   -9.1420    1.0000 </r>
       <r>   -9.1311    1.0000 </r>
       <r>   -9.1156    1.0000 </r>
       <r>   -7.1600    1.0000 </r>
       <r>   -6.9374    1.0000 </r>
       <r>   -6.9063    1.0000 </r>
       <r>   -6.8865    1.0000 </r>
       <r>   -2.5295    1.0000 </r>
       <r>   -2.4736    1.0000 </r>
       <r>   -2.2390    1.0000 </r>
       <r>   -2.2313    1.0000 </r>
       <r>   -2.2090    1.0000 </r>
       <r>   -2.1594    1.0000 </r>
       <r>   -2.1093    1.0000 </r>
       <r>   -2.0711    1.0000 </r>
       <r>   -2.0442    1.0000 </r>
       <r>   -2.0099    1.0000 </r>
       <r>   -1.9737    1.0000 </r>
       <r>   -1.7657    1.0000 </r>
       <r>    0.2405    1.0000 </r>
       <r>    1.1034    1.0000 </r>
       <r>    1.2669    1.0000 </r>
       <r>    1.3237    1.0000 </r>
       <r>    1.3340    1.0000 </r>
       <r>    1.4726    1.0000 </r>
       <r>    1.5176    1.0000 </r>
       <r>    1.8360    1.0000 </r>
       <r>    1.8632    1.0000 </r>
       <r>    1.9723    1.0000 </r>
       <r>    2.0739    1.0000 </r>
       <r>    2.0868    1.0000 </r>
       <r>    2.1852    1.0000 </r>
       <r>    2.1923    1.0000 </r>
       <r>    2.3068    1.0000 </r>
       <r>    2.3391    1.0000 </r>
       <r>    2.4578    1.0000 </r>
       <r>    2.4918    1.0000 </r>
       <r>    2.6006    1.0000 </r>
       <r>    2.6611    1.0000 </r>
       <r>    2.8660    1.0000 </r>
       <r>    2.9338    1.0000 </r>
       <r>    3.3664    1.0000 </r>
       <r>    3.4715    1.0000 </r>
       <r>    4.3694    0.0000 </r>
       <r>    4.5090    0.0000 </r>
       <r>    4.9752    0.0000 </r>
       <r>    5.1398    0.0000 </r>
       <r>    5.2203    0.0000 </r>
       <r>    5.3375    0.0000 </r>
       <r>    5.5041    0.0000 </r>
       <r>    5.6153    0.0000 </r>
       <r>    5.7952    0.0000 </r>
       <r>    5.8901    0.0000 </r>
       <r>    5.9744    0.0000 </r>
       <r>    6.1658    0.0000 </r>
       <r>    6.1869    0.0000 </r>
       <r>    6.2004    0.0000 </r>
       <r>    6.3355    0.0000 </r>
       <r>    6.4508    0.0000 </r>
      </set>
      <set comment="kpoint 8">
       <r>  -23.9629    1.0000 </r>
       <r>  -23.9582    1.0000 </r>
       <r>  -23.9551    1.0000 </r>
       <r>  -23.9551    1.0000 </r>
       <r>  -23.8795    1.0000 </r>
       <r>  -23.8768    1.0000 </r>
       <r>  -23.8709    1.0000 </r>
       <r>  -23.8691    1.0000 </r>
       <r>   -9.5271    1.0000 </r>
       <r>   -9.5271    1.0000 </r>
       <r>   -9.5213    1.0000 </r>
       <r>   -9.4368    1.0000 </r>
       <r>   -9.4265    1.0000 </r>
       <r>   -9.4189    1.0000 </r>
       <r>   -9.4137    1.0000 </r>
       <r>   -9.4113    1.0000 </r>
       <r>   -9.3811    1.0000 </r>
       <r>   -9.3108    1.0000 </r>
       <r>   -9.2949    1.0000 </r>
       <r>   -9.2882    1.0000 </r>
       <r>   -9.2585    1.0000 </r>
       <r>   -9.2342    1.0000 </r>
       <r>   -9.2043    1.0000 </r>
       <r>   -9.2010    1.0000 </r>
       <r>   -9.1985    1.0000 </r>
       <r>   -9.1811    1.0000 </r>
       <r>   -9.1555    1.0000 </r>
       <r>   -9.1487    1.0000 </r>
       <r>   -9.1414    1.0000 </r>
       <r>   -9.1413    1.0000 </r>
       <r>   -9.1323    1.0000 </r>
       <r>   -9.1149    1.0000 </r>
       <r>   -7.1434    1.0000 </r>
       <r>   -6.9340    1.0000 </r>
       <r>   -6.9058    1.0000 </r>
       <r>   -6.8872    1.0000 </r>
       <r>   -2.5118    1.0000 </r>
       <r>   -2.4575    1.0000 </r>
       <r>   -2.2382    1.0000 </r>
       <r>   -2.2326    1.0000 </r>
       <r>   -2.2182    1.0000 </r>
       <r>   -2.1772    1.0000 </r>
       <r>   -2.1037    1.0000 </r>
       <r>   -2.0762    1.0000 </r>
       <r>   -2.0661    1.0000 </r>
       <r>   -1.9905    1.0000 </r>
       <r>   -1.9725    1.0000 </r>
       <r>   -1.7713    1.0000 </r>
       <r>    0.3113    1.0000 </r>
       <r>    1.1175    1.0000 </r>
       <r>    1.2799    1.0000 </r>
       <r>    1.3332    1.0000 </r>
       <r>    1.3433    1.0000 </r>
       <r>    1.4312    1.0000 </r>
       <r>    1.5131    1.0000 </r>
       <r>    1.8258    1.0000 </r>
       <r>    1.8679    1.0000 </r>
       <r>    1.9849    1.0000 </r>
       <r>    2.0482    1.0000 </r>
       <r>    2.1133    1.0000 </r>
       <r>    2.2004    1.0000 </r>
       <r>    2.2023    1.0000 </r>
       <r>    2.2866    1.0000 </r>
       <r>    2.3024    1.0000 </r>
       <r>    2.4684    1.0000 </r>
       <r>    2.5104    1.0000 </r>
       <r>    2.6128    1.0000 </r>
       <r>    2.6464    1.0000 </r>
       <r>    2.8144    1.0000 </r>
       <r>    2.9369    1.0000 </r>
       <r>    3.3638    1.0000 </r>
       <r>    3.5023    1.0000 </r>
       <r>    4.3450    0.0000 </r>
       <r>    4.4969    0.0000 </r>
       <r>    5.0118    0.0000 </r>
       <r>    5.1293    0.0000 </r>
       <r>    5.2506    0.0000 </r>
       <r>    5.2787    0.0000 </r>
       <r>    5.4991    0.0000 </r>
       <r>    5.5212    0.0000 </r>
       <r>    5.7444    0.0000 </r>
       <r>    5.9267    0.0000 </r>
       <r>    5.9502    0.0000 </r>
       <r>    6.1297    0.0000 </r>
       <r>    6.1401    0.0000 </r>
       <r>    6.1878    0.0000 </r>
       <r>    6.3785    0.0000 </r>
       <r>    6.4285    0.0000 </r>
      </set>
      <set comment="kpoint 9">
       <r>  -23.9625    1.0000 </r>
       <r>  -23.9581    1.0000 </r>
       <r>  -23.9551    1.0000 </r>
       <r>  -23.9551    1.0000 </r>
       <r>  -23.8796    1.0000 </r>
       <r>  -23.8770    1.0000 </r>
       <r>  -23.8709    1.0000 </r>
       <r>  -23.8692    1.0000 </r>
       <r>   -9.5290    1.0000 </r>
       <r>   -9.5250    1.0000 </r>
       <r>   -9.5237    1.0000 </r>
       <r>   -9.4447    1.0000 </r>
       <r>   -9.4314    1.0000 </r>
       <r>   -9.4270    1.0000 </r>
       <r>   -9.4167    1.0000 </r>
       <r>   -9.4069    1.0000 </r>
       <r>   -9.3853    1.0000 </r>
       <r>   -9.3057    1.0000 </r>
       <r>   -9.2996    1.0000 </r>
       <r>   -9.2816    1.0000 </r>
       <r>   -9.2628    1.0000 </r>
       <r>   -9.2287    1.0000 </r>
       <r>   -9.2056    1.0000 </r>
       <r>   -9.2047    1.0000 </r>
       <r>   -9.1972    1.0000 </r>
       <r>   -9.1775    1.0000 </r>
       <r>   -9.1577    1.0000 </r>
       <r>   -9.1459    1.0000 </r>
       <r>   -9.1407    1.0000 </r>
       <r>   -9.1375    1.0000 </r>
       <r>   -9.1337    1.0000 </r>
       <r>   -9.1143    1.0000 </r>
       <r>   -7.1255    1.0000 </r>
       <r>   -6.9306    1.0000 </r>
       <r>   -6.9051    1.0000 </r>
       <r>   -6.8879    1.0000 </r>
       <r>   -2.4934    1.0000 </r>
       <r>   -2.4397    1.0000 </r>
       <r>   -2.2506    1.0000 </r>
       <r>   -2.2422    1.0000 </r>
       <r>   -2.2255    1.0000 </r>
       <r>   -2.1718    1.0000 </r>
       <r>   -2.1083    1.0000 </r>
       <r>   -2.0983    1.0000 </r>
       <r>   -2.0607    1.0000 </r>
       <r>   -1.9727    1.0000 </r>
       <r>   -1.9711    1.0000 </r>
       <r>   -1.7782    1.0000 </r>
       <r>    0.3860    1.0000 </r>
       <r>    1.1293    1.0000 </r>
       <r>    1.2941    1.0000 </r>
       <r>    1.3226    1.0000 </r>
       <r>    1.3644    1.0000 </r>
       <r>    1.4056    1.0000 </r>
       <r>    1.5096    1.0000 </r>
       <r>    1.8153    1.0000 </r>
       <r>    1.8702    1.0000 </r>
       <r>    1.9975    1.0000 </r>
       <r>    2.0200    1.0000 </r>
       <r>    2.1354    1.0000 </r>
       <r>    2.2091    1.0000 </r>
       <r>    2.2152    1.0000 </r>
       <r>    2.2341    1.0000 </r>
       <r>    2.2971    1.0000 </r>
       <r>    2.4913    1.0000 </r>
       <r>    2.5283    1.0000 </r>
       <r>    2.6247    1.0000 </r>
       <r>    2.6301    1.0000 </r>
       <r>    2.7673    1.0000 </r>
       <r>    2.9376    1.0000 </r>
       <r>    3.3589    1.0000 </r>
       <r>    3.5284    1.0000 </r>
       <r>    4.3320    0.0000 </r>
       <r>    4.4823    0.0000 </r>
       <r>    5.0550    0.0000 </r>
       <r>    5.0974    0.0000 </r>
       <r>    5.2010    0.0000 </r>
       <r>    5.2750    0.0000 </r>
       <r>    5.4379    0.0000 </r>
       <r>    5.5099    0.0000 </r>
       <r>    5.7171    0.0000 </r>
       <r>    5.8680    0.0000 </r>
       <r>    5.9974    0.0000 </r>
       <r>    6.0767    0.0000 </r>
       <r>    6.1083    0.0000 </r>
       <r>    6.1442    0.0000 </r>
       <r>    6.3044    0.0000 </r>
       <r>    6.3796    0.0000 </r>
      </set>
      <set comment="kpoint 10">
       <r>  -23.9621    1.0000 </r>
       <r>  -23.9579    1.0000 </r>
       <r>  -23.9552    1.0000 </r>
       <r>  -23.9552    1.0000 </r>
       <r>  -23.8797    1.0000 </r>
       <r>  -23.8773    1.0000 </r>
       <r>  -23.8708    1.0000 </r>
       <r>  -23.8693    1.0000 </r>
       <r>   -9.5310    1.0000 </r>
       <r>   -9.5276    1.0000 </r>
       <r>   -9.5204    1.0000 </r>
       <r>   -9.4521    1.0000 </r>
       <r>   -9.4430    1.0000 </r>
       <r>   -9.4279    1.0000 </r>
       <r>   -9.4220    1.0000 </r>
       <r>   -9.4012    1.0000 </r>
       <r>   -9.3889    1.0000 </r>
       <r>   -9.3038    1.0000 </r>
       <r>   -9.3023    1.0000 </r>
       <r>   -9.2760    1.0000 </r>
       <r>   -9.2665    1.0000 </r>
       <r>   -9.2260    1.0000 </r>
       <r>   -9.2121    1.0000 </r>
       <r>   -9.2052    1.0000 </r>
       <r>   -9.1915    1.0000 </r>
       <r>   -9.1738    1.0000 </r>
       <r>   -9.1597    1.0000 </r>
       <r>   -9.1428    1.0000 </r>
       <r>   -9.1399    1.0000 </r>
       <r>   -9.1353    1.0000 </r>
       <r>   -9.1339    1.0000 </r>
       <r>   -9.1138    1.0000 </r>
       <r>   -7.1065    1.0000 </r>
       <r>   -6.9272    1.0000 </r>
       <r>   -6.9045    1.0000 </r>
       <r>   -6.8887    1.0000 </r>
       <r>   -2.4755    1.0000 </r>
       <r>   -2.4207    1.0000 </r>
       <r>   -2.2879    1.0000 </r>
       <r>   -2.2435    1.0000 </r>
       <r>   -2.2182    1.0000 </r>
       <r>   -2.1606    1.0000 </r>
       <r>   -2.1387    1.0000 </r>
       <r>   -2.0938    1.0000 </r>
       <r>   -2.0548    1.0000 </r>
       <r>   -1.9695    1.0000 </r>
       <r>   -1.9571    1.0000 </r>
       <r>   -1.7864    1.0000 </r>
       <r>    0.4625    1.0000 </r>
       <r>    1.1381    1.0000 </r>
       <r>    1.2990    1.0000 </r>
       <r>    1.3090    1.0000 </r>
       <r>    1.3858    1.0000 </r>
       <r>    1.4000    1.0000 </r>
       <r>    1.5074    1.0000 </r>
       <r>    1.8047    1.0000 </r>
       <r>    1.8671    1.0000 </r>
       <r>    1.9907    1.0000 </r>
       <r>    2.0111    1.0000 </r>
       <r>    2.1533    1.0000 </r>
       <r>    2.1846    1.0000 </r>
       <r>    2.2116    1.0000 </r>
       <r>    2.2239    1.0000 </r>
       <r>    2.2966    1.0000 </r>
       <r>    2.5268    1.0000 </r>
       <r>    2.5447    1.0000 </r>
       <r>    2.6140    1.0000 </r>
       <r>    2.6362    1.0000 </r>
       <r>    2.7253    1.0000 </r>
       <r>    2.9343    1.0000 </r>
       <r>    3.3522    1.0000 </r>
       <r>    3.5494    1.0000 </r>
       <r>    4.3319    0.0000 </r>
       <r>    4.4653    0.0000 </r>
       <r>    5.0465    0.0000 </r>
       <r>    5.1045    0.0000 </r>
       <r>    5.1098    0.0000 </r>
       <r>    5.2922    0.0000 </r>
       <r>    5.3638    0.0000 </r>
       <r>    5.5321    0.0000 </r>
       <r>    5.7149    0.0000 </r>
       <r>    5.7965    0.0000 </r>
       <r>    6.0101    0.0000 </r>
       <r>    6.0234    0.0000 </r>
       <r>    6.1004    0.0000 </r>
       <r>    6.1138    0.0000 </r>
       <r>    6.2375    0.0000 </r>
       <r>    6.4108    0.0000 </r>
      </set>
      <set comment="kpoint 11">
       <r>  -23.9616    1.0000 </r>
       <r>  -23.9578    1.0000 </r>
       <r>  -23.9553    1.0000 </r>
       <r>  -23.9552    1.0000 </r>
       <r>  -23.8798    1.0000 </r>
       <r>  -23.8775    1.0000 </r>
       <r>  -23.8708    1.0000 </r>
       <r>  -23.8694    1.0000 </r>
       <r>   -9.5329    1.0000 </r>
       <r>   -9.5293    1.0000 </r>
       <r>   -9.5176    1.0000 </r>
       <r>   -9.4588    1.0000 </r>
       <r>   -9.4536    1.0000 </r>
       <r>   -9.4297    1.0000 </r>
       <r>   -9.4264    1.0000 </r>
       <r>   -9.3968    1.0000 </r>
       <r>   -9.3918    1.0000 </r>
       <r>   -9.3071    1.0000 </r>
       <r>   -9.3010    1.0000 </r>
       <r>   -9.2719    1.0000 </r>
       <r>   -9.2688    1.0000 </r>
       <r>   -9.2252    1.0000 </r>
       <r>   -9.2175    1.0000 </r>
       <r>   -9.2058    1.0000 </r>
       <r>   -9.1850    1.0000 </r>
       <r>   -9.1702    1.0000 </r>
       <r>   -9.1615    1.0000 </r>
       <r>   -9.1398    1.0000 </r>
       <r>   -9.1388    1.0000 </r>
       <r>   -9.1372    1.0000 </r>
       <r>   -9.1305    1.0000 </r>
       <r>   -9.1136    1.0000 </r>
       <r>   -7.0870    1.0000 </r>
       <r>   -6.9242    1.0000 </r>
       <r>   -6.9038    1.0000 </r>
       <r>   -6.8895    1.0000 </r>
       <r>   -2.4596    1.0000 </r>
       <r>   -2.4006    1.0000 </r>
       <r>   -2.3249    1.0000 </r>
       <r>   -2.2419    1.0000 </r>
       <r>   -2.2112    1.0000 </r>
       <r>   -2.1656    1.0000 </r>
       <r>   -2.1484    1.0000 </r>
       <r>   -2.0905    1.0000 </r>
       <r>   -2.0480    1.0000 </r>
       <r>   -1.9676    1.0000 </r>
       <r>   -1.9439    1.0000 </r>
       <r>   -1.7958    1.0000 </r>
       <r>    0.5389    1.0000 </r>
       <r>    1.1434    1.0000 </r>
       <r>    1.2708    1.0000 </r>
       <r>    1.3240    1.0000 </r>
       <r>    1.4066    1.0000 </r>
       <r>    1.4070    1.0000 </r>
       <r>    1.5069    1.0000 </r>
       <r>    1.7942    1.0000 </r>
       <r>    1.8535    1.0000 </r>
       <r>    1.9641    1.0000 </r>
       <r>    2.0268    1.0000 </r>
       <r>    2.1413    1.0000 </r>
       <r>    2.1671    1.0000 </r>
       <r>    2.2106    1.0000 </r>
       <r>    2.2193    1.0000 </r>
       <r>    2.3086    1.0000 </r>
       <r>    2.5585    1.0000 </r>
       <r>    2.5726    1.0000 </r>
       <r>    2.5989    1.0000 </r>
       <r>    2.6475    1.0000 </r>
       <r>    2.6889    1.0000 </r>
       <r>    2.9269    1.0000 </r>
       <r>    3.3443    1.0000 </r>
       <r>    3.5646    1.0000 </r>
       <r>    4.3452    0.0000 </r>
       <r>    4.4458    0.0000 </r>
       <r>    4.9841    0.0000 </r>
       <r>    5.0124    0.0000 </r>
       <r>    5.1589    0.0000 </r>
       <r>    5.2947    0.0000 </r>
       <r>    5.3019    0.0000 </r>
       <r>    5.5602    0.0000 </r>
       <r>    5.7134    0.0000 </r>
       <r>    5.7341    0.0000 </r>
       <r>    5.9692    0.0000 </r>
       <r>    5.9909    0.0000 </r>
       <r>    6.0378    0.0000 </r>
       <r>    6.1398    0.0000 </r>
       <r>    6.1792    0.0000 </r>
       <r>    6.3317    0.0000 </r>
      </set>
      <set comment="kpoint 12">
       <r>  -23.9611    1.0000 </r>
       <r>  -23.9576    1.0000 </r>
       <r>  -23.9554    1.0000 </r>
       <r>  -23.9553    1.0000 </r>
       <r>  -23.8799    1.0000 </r>
       <r>  -23.8778    1.0000 </r>
       <r>  -23.8708    1.0000 </r>
       <r>  -23.8695    1.0000 </r>
       <r>   -9.5347    1.0000 </r>
       <r>   -9.5298    1.0000 </r>
       <r>   -9.5156    1.0000 </r>
       <r>   -9.4649    1.0000 </r>
       <r>   -9.4629    1.0000 </r>
       <r>   -9.4346    1.0000 </r>
       <r>   -9.4280    1.0000 </r>
       <r>   -9.3941    1.0000 </r>
       <r>   -9.3937    1.0000 </r>
       <r>   -9.3092    1.0000 </r>
       <r>   -9.3026    1.0000 </r>
       <r>   -9.2697    1.0000 </r>
       <r>   -9.2691    1.0000 </r>
       <r>   -9.2256    1.0000 </r>
       <r>   -9.2209    1.0000 </r>
       <r>   -9.2066    1.0000 </r>
       <r>   -9.1783    1.0000 </r>
       <r>   -9.1665    1.0000 </r>
       <r>   -9.1631    1.0000 </r>
       <r>   -9.1392    1.0000 </r>
       <r>   -9.1376    1.0000 </r>
       <r>   -9.1366    1.0000 </r>
       <r>   -9.1274    1.0000 </r>
       <r>   -9.1136    1.0000 </r>
       <r>   -7.0673    1.0000 </r>
       <r>   -6.9217    1.0000 </r>
       <r>   -6.9031    1.0000 </r>
       <r>   -6.8903    1.0000 </r>
       <r>   -2.4476    1.0000 </r>
       <r>   -2.3800    1.0000 </r>
       <r>   -2.3598    1.0000 </r>
       <r>   -2.2376    1.0000 </r>
       <r>   -2.2049    1.0000 </r>
       <r>   -2.1866    1.0000 </r>
       <r>   -2.1365    1.0000 </r>
       <r>   -2.0887    1.0000 </r>
       <r>   -2.0404    1.0000 </r>
       <r>   -1.9653    1.0000 </r>
       <r>   -1.9334    1.0000 </r>
       <r>   -1.8062    1.0000 </r>
       <r>    0.6133    1.0000 </r>
       <r>    1.1447    1.0000 </r>
       <r>    1.2448    1.0000 </r>
       <r>    1.3380    1.0000 </r>
       <r>    1.4204    1.0000 </r>
       <r>    1.4260    1.0000 </r>
       <r>    1.5081    1.0000 </r>
       <r>    1.7837    1.0000 </r>
       <r>    1.8253    1.0000 </r>
       <r>    1.9432    1.0000 </r>
       <r>    2.0447    1.0000 </r>
       <r>    2.1070    1.0000 </r>
       <r>    2.1769    1.0000 </r>
       <r>    2.2038    1.0000 </r>
       <r>    2.2077    1.0000 </r>
       <r>    2.3315    1.0000 </r>
       <r>    2.5688    1.0000 </r>
       <r>    2.5853    1.0000 </r>
       <r>    2.6250    1.0000 </r>
       <r>    2.6581    1.0000 </r>
       <r>    2.6593    1.0000 </r>
       <r>    2.9161    1.0000 </r>
       <r>    3.3364    1.0000 </r>
       <r>    3.5734    1.0000 </r>
       <r>    4.3711    0.0000 </r>
       <r>    4.4236    0.0000 </r>
       <r>    4.9146    0.0000 </r>
       <r>    4.9189    0.0000 </r>
       <r>    5.2155    0.0000 </r>
       <r>    5.2276    0.0000 </r>
       <r>    5.3046    0.0000 </r>
       <r>    5.5891    0.0000 </r>
       <r>    5.6240    0.0000 </r>
       <r>    5.7702    0.0000 </r>
       <r>    5.9211    0.0000 </r>
       <r>    5.9696    0.0000 </r>
       <r>    5.9722    0.0000 </r>
       <r>    6.1538    0.0000 </r>
       <r>    6.1624    0.0000 </r>
       <r>    6.3239    0.0000 </r>
      </set>
      <set comment="kpoint 13">
       <r>  -23.9606    1.0000 </r>
       <r>  -23.9574    1.0000 </r>
       <r>  -23.9555    1.0000 </r>
       <r>  -23.9554    1.0000 </r>
       <r>  -23.8799    1.0000 </r>
       <r>  -23.8781    1.0000 </r>
       <r>  -23.8707    1.0000 </r>
       <r>  -23.8696    1.0000 </r>
       <r>   -9.5364    1.0000 </r>
       <r>   -9.5293    1.0000 </r>
       <r>   -9.5148    1.0000 </r>
       <r>   -9.4706    1.0000 </r>
       <r>   -9.4702    1.0000 </r>
       <r>   -9.4408    1.0000 </r>
       <r>   -9.4284    1.0000 </r>
       <r>   -9.3943    1.0000 </r>
       <r>   -9.3933    1.0000 </r>
       <r>   -9.3098    1.0000 </r>
       <r>   -9.3068    1.0000 </r>
       <r>   -9.2697    1.0000 </r>
       <r>   -9.2675    1.0000 </r>
       <r>   -9.2268    1.0000 </r>
       <r>   -9.2222    1.0000 </r>
       <r>   -9.2073    1.0000 </r>
       <r>   -9.1721    1.0000 </r>
       <r>   -9.1643    1.0000 </r>
       <r>   -9.1631    1.0000 </r>
       <r>   -9.1414    1.0000 </r>
       <r>   -9.1362    1.0000 </r>
       <r>   -9.1336    1.0000 </r>
       <r>   -9.1247    1.0000 </r>
       <r>   -9.1139    1.0000 </r>
       <r>   -7.0479    1.0000 </r>
       <r>   -6.9199    1.0000 </r>
       <r>   -6.9024    1.0000 </r>
       <r>   -6.8912    1.0000 </r>
       <r>   -2.4417    1.0000 </r>
       <r>   -2.3917    1.0000 </r>
       <r>   -2.3594    1.0000 </r>
       <r>   -2.2305    1.0000 </r>
       <r>   -2.2001    1.0000 </r>
       <r>   -2.1995    1.0000 </r>
       <r>   -2.1257    1.0000 </r>
       <r>   -2.0885    1.0000 </r>
       <r>   -2.0317    1.0000 </r>
       <r>   -1.9623    1.0000 </r>
       <r>   -1.9257    1.0000 </r>
       <r>   -1.8174    1.0000 </r>
       <r>    0.6840    1.0000 </r>
       <r>    1.1418    1.0000 </r>
       <r>    1.2238    1.0000 </r>
       <r>    1.3498    1.0000 </r>
       <r>    1.4382    1.0000 </r>
       <r>    1.4438    1.0000 </r>
       <r>    1.5106    1.0000 </r>
       <r>    1.7733    1.0000 </r>
       <r>    1.7863    1.0000 </r>
       <r>    1.9247    1.0000 </r>
       <r>    2.0646    1.0000 </r>
       <r>    2.0837    1.0000 </r>
       <r>    2.1826    1.0000 </r>
       <r>    2.1839    1.0000 </r>
       <r>    2.2048    1.0000 </r>
       <r>    2.3591    1.0000 </r>
       <r>    2.5734    1.0000 </r>
       <r>    2.5750    1.0000 </r>
       <r>    2.6337    1.0000 </r>
       <r>    2.6728    1.0000 </r>
       <r>    2.6800    1.0000 </r>
       <r>    2.9030    1.0000 </r>
       <r>    3.3295    1.0000 </r>
       <r>    3.5753    1.0000 </r>
       <r>    4.3987    0.0000 </r>
       <r>    4.4083    0.0000 </r>
       <r>    4.8198    0.0000 </r>
       <r>    4.8585    0.0000 </r>
       <r>    5.1616    0.0000 </r>
       <r>    5.2674    0.0000 </r>
       <r>    5.3017    0.0000 </r>
       <r>    5.5367    0.0000 </r>
       <r>    5.6150    0.0000 </r>
       <r>    5.8183    0.0000 </r>
       <r>    5.8772    0.0000 </r>
       <r>    5.8930    0.0000 </r>
       <r>    5.9577    0.0000 </r>
       <r>    6.1301    0.0000 </r>
       <r>    6.1733    0.0000 </r>
       <r>    6.3104    0.0000 </r>
[...]
       <r>   -9.3351    1.0000 </r>
       <r>   -9.3351    1.0000 </r>
       <r>   -9.3035    1.0000 </r>
       <r>   -9.3035    1.0000 </r>
       <r>   -9.2026    1.0000 </r>
       <r>   -9.2026    1.0000 </r>
       <r>   -9.1774    1.0000 </r>
       <r>   -9.1774    1.0000 </r>
       <r>   -9.1736    1.0000 </r>
       <r>   -9.1736    1.0000 </r>
       <r>   -9.1482    1.0000 </r>
       <r>   -9.1482    1.0000 </r>
       <r>   -9.1337    1.0000 </r>
       <r>   -9.1337    1.0000 </r>
       <r>   -7.0191    1.0000 </r>
       <r>   -7.0191    1.0000 </r>
       <r>   -6.8911    1.0000 </r>
       <r>   -6.8911    1.0000 </r>
       <r>   -2.5419    1.0000 </r>
       <r>   -2.5419    1.0000 </r>
       <r>   -2.3916    1.0000 </r>
       <r>   -2.3916    1.0000 </r>
       <r>   -2.1504    1.0000 </r>
       <r>   -2.1504    1.0000 </r>
       <r>   -2.1191    1.0000 </r>
       <r>   -2.1191    1.0000 </r>
       <r>   -2.0369    1.0000 </r>
       <r>   -2.0369    1.0000 </r>
       <r>   -2.0205    1.0000 </r>
       <r>   -2.0205    1.0000 </r>
       <r>    0.6925    1.0000 </r>
       <r>    0.6925    1.0000 </r>
       <r>    1.1326    1.0000 </r>
       <r>    1.1326    1.0000 </r>
       <r>    1.6384    1.0000 </r>
       <r>    1.6384    1.0000 </r>
       <r>    1.9687    1.0000 </r>
       <r>    1.9687    1.0000 </r>
       <r>    2.0222    1.0000 </r>
       <r>    2.0222    1.0000 </r>
       <r>    2.2246    1.0000 </r>
       <r>    2.2246    1.0000 </r>
       <r>    2.4125    1.0000 </r>
       <r>    2.4125    1.0000 </r>
       <r>    2.4202    1.0000 </r>
       <r>    2.4202    1.0000 </r>
       <r>    2.5755    1.0000 </r>
       <r>    2.5755    1.0000 </r>
       <r>    2.7624    1.0000 </r>
       <r>    2.7624    1.0000 </r>
       <r>    2.9913    1.0000 </r>
       <r>    2.9913    1.0000 </r>
       <r>    3.0301    1.0000 </r>
       <r>    3.0301    1.0000 </r>
       <r>    4.7649    0.0000 </r>
       <r>    4.7649    0.0000 </r>
       <r>    4.8178    0.0000 </r>
       <r>    4.8178    0.0000 </r>
       <r>    4.8387    0.0000 </r>
       <r>    4.8387    0.0000 </r>
       <r>    5.2252    0.0000 </r>
       <r>    5.2252    0.0000 </r>
       <r>    5.9014    0.0000 </r>
       <r>    5.9015    0.0000 </r>
       <r>    6.0019    0.0000 </r>
       <r>    6.0021    0.0000 </r>
       <r>    6.0910    0.0000 </r>
       <r>    6.0914    0.0000 </r>
       <r>    6.7502    0.0000 </r>
       <r>    6.7751    0.0000 </r>
      </set>
     </set>
    </set>
   </array>
  </eigenvalues>
  <separator name="orbital magnetization" >
   <v name="MAGDIPOLOUT">      0.00000000      0.00000000      0.00000000</v>
  </separator>
  <dos>
   <i name="efermi">      3.63744802 </i>
   <total>
    <array>
     <dimension dim="1">gridpoints</dimension>
     <dimension dim="2">spin</dimension>
     <field>energy</field>
     <field>total</field>
     <field>integrated</field>
     <set>
      <set comment="spin 1">
       <r>   -25.5030     0.0000     0.0000 </r>
       <r>   -25.3901     0.0000     0.0000 </r>
       <r>   -25.2773     0.0000     0.0000 </r>
       <r>   -25.1644     0.0000     0.0000 </r>
       <r>   -25.0516     0.0000     0.0000 </r>
       <r>   -24.9388     0.0000     0.0000 </r>
       <r>   -24.8259     0.0000     0.0000 </r>
       <r>   -24.7131     0.0000     0.0000 </r>
       <r>   -24.6003     0.0000     0.0000 </r>
       <r>   -24.4874     0.0000     0.0000 </r>
       <r>   -24.3746     0.0000     0.0000 </r>
       <r>   -24.2617     0.0000     0.0000 </r>
       <r>   -24.1489     0.0000     0.0000 </r>
       <r>   -24.0361     0.0000     0.0000 </r>
       <r>   -23.9232    70.8980     8.0000 </r>
       <r>   -23.8104    70.8981    16.0000 </r>
       <r>   -23.6976     0.0000    16.0000 </r>
       <r>   -23.5847     0.0000    16.0000 </r>
       <r>   -23.4719     0.0000    16.0000 </r>
       <r>   -23.3590     0.0000    16.0000 </r>
       <r>   -23.2462     0.0000    16.0000 </r>
       <r>   -23.1334     0.0000    16.0000 </r>
       <r>   -23.0205     0.0000    16.0000 </r>
       <r>   -22.9077     0.0000    16.0000 </r>
       <r>   -22.7948     0.0000    16.0000 </r>
       <r>   -22.6820     0.0000    16.0000 </r>
       <r>   -22.5692     0.0000    16.0000 </r>
       <r>   -22.4563     0.0000    16.0000 </r>
       <r>   -22.3435     0.0000    16.0000 </r>
       <r>   -22.2307     0.0000    16.0000 </r>
       <r>   -22.1178     0.0000    16.0000 </r>
       <r>   -22.0050     0.0000    16.0000 </r>
       <r>   -21.8921     0.0000    16.0000 </r>
       <r>   -21.7793     0.0000    16.0000 </r>
       <r>   -21.6665     0.0000    16.0000 </r>
       <r>   -21.5536     0.0000    16.0000 </r>
       <r>   -21.4408     0.0000    16.0000 </r>
       <r>   -21.3280     0.0000    16.0000 </r>
       <r>   -21.2151     0.0000    16.0000 </r>
       <r>   -21.1023     0.0000    16.0000 </r>
       <r>   -20.9894     0.0000    16.0000 </r>
       <r>   -20.8766     0.0000    16.0000 </r>
       <r>   -20.7638     0.0000    16.0000 </r>
       <r>   -20.6509     0.0000    16.0000 </r>
       <r>   -20.5381     0.0000    16.0000 </r>
       <r>   -20.4253     0.0000    16.0000 </r>
       <r>   -20.3124     0.0000    16.0000 </r>
       <r>   -20.1996     0.0000    16.0000 </r>
       <r>   -20.0867     0.0000    16.0000 </r>
       <r>   -19.9739     0.0000    16.0000 </r>
       <r>   -19.8611     0.0000    16.0000 </r>
       <r>   -19.7482     0.0000    16.0000 </r>
       <r>   -19.6354     0.0000    16.0000 </r>
       <r>   -19.5225     0.0000    16.0000 </r>
       <r>   -19.4097     0.0000    16.0000 </r>
       <r>   -19.2969     0.0000    16.0000 </r>
       <r>   -19.1840     0.0000    16.0000 </r>
       <r>   -19.0712     0.0000    16.0000 </r>
       <r>   -18.9584     0.0000    16.0000 </r>
       <r>   -18.8455     0.0000    16.0000 </r>
       <r>   -18.7327     0.0000    16.0000 </r>
       <r>   -18.6198     0.0000    16.0000 </r>
       <r>   -18.5070     0.0000    16.0000 </r>
       <r>   -18.3942     0.0000    16.0000 </r>
       <r>   -18.2813     0.0000    16.0000 </r>
       <r>   -18.1685     0.0000    16.0000 </r>
       <r>   -18.0557     0.0000    16.0000 </r>
       <r>   -17.9428     0.0000    16.0000 </r>
       <r>   -17.8300     0.0000    16.0000 </r>
       <r>   -17.7171     0.0000    16.0000 </r>
       <r>   -17.6043     0.0000    16.0000 </r>
       <r>   -17.4915     0.0000    16.0000 </r>
       <r>   -17.3786     0.0000    16.0000 </r>
       <r>   -17.2658     0.0000    16.0000 </r>
       <r>   -17.1530     0.0000    16.0000 </r>
       <r>   -17.0401     0.0000    16.0000 </r>
       <r>   -16.9273     0.0000    16.0000 </r>
       <r>   -16.8144     0.0000    16.0000 </r>
       <r>   -16.7016     0.0000    16.0000 </r>
       <r>   -16.5888     0.0000    16.0000 </r>
       <r>   -16.4759     0.0000    16.0000 </r>
       <r>   -16.3631     0.0000    16.0000 </r>
       <r>   -16.2502     0.0000    16.0000 </r>
       <r>   -16.1374     0.0000    16.0000 </r>
       <r>   -16.0246     0.0000    16.0000 </r>
       <r>   -15.9117     0.0000    16.0000 </r>
       <r>   -15.7989     0.0000    16.0000 </r>
       <r>   -15.6861     0.0000    16.0000 </r>
       <r>   -15.5732     0.0000    16.0000 </r>
       <r>   -15.4604     0.0000    16.0000 </r>
       <r>   -15.3475     0.0000    16.0000 </r>
       <r>   -15.2347     0.0000    16.0000 </r>
       <r>   -15.1219     0.0000    16.0000 </r>
       <r>   -15.0090     0.0000    16.0000 </r>
       <r>   -14.8962     0.0000    16.0000 </r>
       <r>   -14.7834     0.0000    16.0000 </r>
       <r>   -14.6705     0.0000    16.0000 </r>
       <r>   -14.5577     0.0000    16.0000 </r>
       <r>   -14.4448     0.0000    16.0000 </r>
       <r>   -14.3320     0.0000    16.0000 </r>
       <r>   -14.2192     0.0000    16.0000 </r>
       <r>   -14.1063     0.0000    16.0000 </r>
       <r>   -13.9935     0.0000    16.0000 </r>
       <r>   -13.8806     0.0000    16.0000 </r>
       <r>   -13.7678     0.0000    16.0000 </r>
       <r>   -13.6550     0.0000    16.0000 </r>
       <r>   -13.5421     0.0000    16.0000 </r>
       <r>   -13.4293     0.0000    16.0000 </r>
       <r>   -13.3165     0.0000    16.0000 </r>
       <r>   -13.2036     0.0000    16.0000 </r>
       <r>   -13.0908     0.0000    16.0000 </r>
       <r>   -12.9779     0.0000    16.0000 </r>
       <r>   -12.8651     0.0000    16.0000 </r>
       <r>   -12.7523     0.0000    16.0000 </r>
       <r>   -12.6394     0.0000    16.0000 </r>
       <r>   -12.5266     0.0000    16.0000 </r>
       <r>   -12.4138     0.0000    16.0000 </r>
       <r>   -12.3009     0.0000    16.0000 </r>
       <r>   -12.1881     0.0000    16.0000 </r>
       <r>   -12.0752     0.0000    16.0000 </r>
       <r>   -11.9624     0.0000    16.0000 </r>
       <r>   -11.8496     0.0000    16.0000 </r>
       <r>   -11.7367     0.0000    16.0000 </r>
       <r>   -11.6239     0.0000    16.0000 </r>
       <r>   -11.5111     0.0000    16.0000 </r>
       <r>   -11.3982     0.0000    16.0000 </r>
       <r>   -11.2854     0.0000    16.0000 </r>
       <r>   -11.1725     0.0000    16.0000 </r>
       <r>   -11.0597     0.0000    16.0000 </r>
       <r>   -10.9469     0.0000    16.0000 </r>
       <r>   -10.8340     0.0000    16.0000 </r>
       <r>   -10.7212     0.0000    16.0000 </r>
       <r>   -10.6083     0.0000    16.0000 </r>
       <r>   -10.4955     0.0000    16.0000 </r>
       <r>   -10.3827     0.0000    16.0000 </r>
       <r>   -10.2698     0.0000    16.0000 </r>
       <r>   -10.1570     0.0000    16.0000 </r>
       <r>   -10.0442     0.0000    16.0000 </r>
       <r>    -9.9313     0.0000    16.0000 </r>
       <r>    -9.8185     0.0000    16.0000 </r>
       <r>    -9.7056     0.0000    16.0000 </r>
       <r>    -9.5928     0.0000    16.0000 </r>
       <r>    -9.4800    49.8300    21.6227 </r>
       <r>    -9.3671    68.7846    32.0615 </r>
       <r>    -9.2543    60.7403    41.8338 </r>
       <r>    -9.1415   110.5441    56.9136 </r>
       <r>    -9.0286     0.0000    64.0000 </r>
       <r>    -8.9158     0.0000    64.0000 </r>
       <r>    -8.8029     0.0000    64.0000 </r>
       <r>    -8.6901     0.0000    64.0000 </r>
       <r>    -8.5773     0.0000    64.0000 </r>
       <r>    -8.4644     0.0000    64.0000 </r>
       <r>    -8.3516     0.0000    64.0000 </r>
       <r>    -8.2387     0.0000    64.0000 </r>
       <r>    -8.1259     0.0000    64.0000 </r>
       <r>    -8.0131     0.0000    64.0000 </r>
       <r>    -7.9002     0.0000    64.0000 </r>
       <r>    -7.7874     0.0000    64.0000 </r>
       <r>    -7.6746     0.0000    64.0000 </r>
       <r>    -7.5617     0.0000    64.0000 </r>
       <r>    -7.4489     0.0000    64.0000 </r>
       <r>    -7.3360     0.0000    64.0000 </r>
       <r>    -7.2232     0.0520    64.0059 </r>
       <r>    -7.1104     3.6061    64.7469 </r>
       <r>    -6.9975     7.1106    65.6823 </r>
       <r>    -6.8847    49.3786    71.5918 </r>
       <r>    -6.7719     0.0000    72.0000 </r>
       <r>    -6.6590     0.0000    72.0000 </r>
       <r>    -6.5462     0.0000    72.0000 </r>
       <r>    -6.4333     0.0000    72.0000 </r>
       <r>    -6.3205     0.0000    72.0000 </r>
       <r>    -6.2077     0.0000    72.0000 </r>
       <r>    -6.0948     0.0000    72.0000 </r>
       <r>    -5.9820     0.0000    72.0000 </r>
       <r>    -5.8692     0.0000    72.0000 </r>
       <r>    -5.7563     0.0000    72.0000 </r>
       <r>    -5.6435     0.0000    72.0000 </r>
       <r>    -5.5306     0.0000    72.0000 </r>
       <r>    -5.4178     0.0000    72.0000 </r>
       <r>    -5.3050     0.0000    72.0000 </r>
       <r>    -5.1921     0.0000    72.0000 </r>
       <r>    -5.0793     0.0000    72.0000 </r>
       <r>    -4.9664     0.0000    72.0000 </r>
       <r>    -4.8536     0.0000    72.0000 </r>
       <r>    -4.7408     0.0000    72.0000 </r>
       <r>    -4.6279     0.0000    72.0000 </r>
       <r>    -4.5151     0.0000    72.0000 </r>
       <r>    -4.4023     0.0000    72.0000 </r>
       <r>    -4.2894     0.0000    72.0000 </r>
       <r>    -4.1766     0.0000    72.0000 </r>
       <r>    -4.0637     0.0000    72.0000 </r>
       <r>    -3.9509     0.0000    72.0000 </r>
       <r>    -3.8381     0.0000    72.0000 </r>
       <r>    -3.7252     0.0000    72.0000 </r>
       <r>    -3.6124     0.0000    72.0000 </r>
       <r>    -3.4996     0.0000    72.0000 </r>
       <r>    -3.3867     0.0000    72.0000 </r>
       <r>    -3.2739     0.0000    72.0000 </r>
       <r>    -3.1610     0.0000    72.0000 </r>
       <r>    -3.0482     0.0000    72.0000 </r>
       <r>    -2.9354     0.0000    72.0000 </r>
       <r>    -2.8225     0.0000    72.0000 </r>
       <r>    -2.7097     0.0000    72.0000 </r>
       <r>    -2.5969     0.8905    72.1005 </r>
       <r>    -2.4840    15.6818    74.8095 </r>
       <r>    -2.3712     9.1488    76.2323 </r>
       <r>    -2.2583     7.2651    77.4798 </r>
       <r>    -2.1455    40.4851    83.7083 </r>
       <r>    -2.0327    26.2164    88.5982 </r>
       <r>    -1.9198    23.1787    93.1154 </r>
       <r>    -1.8070    10.0174    95.0503 </r>
       <r>    -1.6941     4.7856    96.0000 </r>
       <r>    -1.5813     0.0000    96.0000 </r>
       <r>    -1.4685     0.0000    96.0000 </r>
       <r>    -1.3556     0.0000    96.0000 </r>
       <r>    -1.2428     0.0000    96.0000 </r>
       <r>    -1.1300     0.0000    96.0000 </r>
       <r>    -1.0171     0.0000    96.0000 </r>
       <r>    -0.9043     0.0000    96.0000 </r>
       <r>    -0.7914     0.0000    96.0000 </r>
       <r>    -0.6786     0.0000    96.0000 </r>
       <r>    -0.5658     0.0000    96.0000 </r>
       <r>    -0.4529     0.0000    96.0000 </r>
       <r>    -0.3401     0.0000    96.0000 </r>
       <r>    -0.2273     0.0000    96.0000 </r>
       <r>    -0.1144     0.0000    96.0000 </r>
       <r>    -0.0016     0.0500    96.0056 </r>
       <r>     0.1113     1.5808    96.3584 </r>
       <r>     0.2241     0.9892    96.5316 </r>
       <r>     0.3369     0.8295    96.6736 </r>
       <r>     0.4498     0.8572    96.7967 </r>
       <r>     0.5626     0.8204    96.9326 </r>
       <r>     0.6755     2.5974    97.2531 </r>
       <r>     0.7883     1.4014    97.5381 </r>
       <r>     0.9011     1.6549    97.8067 </r>
       <r>     1.0140     2.8349    98.1999 </r>
       <r>     1.1268    10.5908   100.2350 </r>
       <r>     1.2396     8.4492   101.8934 </r>
       <r>     1.3525    17.0627   104.5053 </r>
       <r>     1.4653    14.8676   106.5576 </r>
       <r>     1.5782    12.7214   108.6155 </r>
       <r>     1.6910     6.3906   109.7211 </r>
       <r>     1.8038    17.5545   111.9208 </r>
       <r>     1.9167    23.6359   115.1070 </r>
       <r>     2.0295    14.4492   117.3304 </r>
       <r>     2.1423    20.4800   120.1509 </r>
       <r>     2.2552    14.1293   122.8943 </r>
       <r>     2.3680    20.8273   125.6301 </r>
       <r>     2.4809    21.5687   128.7138 </r>
       <r>     2.5937    27.2116   132.9105 </r>
       <r>     2.7065    12.6051   135.2023 </r>
       <r>     2.8194    10.6644   136.6434 </r>
       <r>     2.9322     9.0357   138.0796 </r>
       <r>     3.0450     4.8120   139.2030 </r>
       <r>     3.1579     4.2247   139.9567 </r>
       <r>     3.2707     6.9387   141.1029 </r>
       <r>     3.3836    15.5464   143.2342 </r>
       <r>     3.4964     1.7995   143.8031 </r>
       <r>     3.6092     1.2407   144.0000 </r>
       <r>     3.7221     0.0000   144.0000 </r>
       <r>     3.8349     0.0000   144.0000 </r>
       <r>     3.9478     0.0000   144.0000 </r>
       <r>     4.0606     0.0000   144.0000 </r>
       <r>     4.1734     0.0000   144.0000 </r>
       <r>     4.2863     2.4465   144.2761 </r>
       <r>     4.3991     7.9582   145.3580 </r>
       <r>     4.5119     5.1783   146.4043 </r>
       <r>     4.6248     6.9612   147.9055 </r>
       <r>     4.7376     5.5600   148.7674 </r>
       <r>     4.8505     8.5733   150.2874 </r>
       <r>     4.9633     6.0426   151.6618 </r>
       <r>     5.0761     7.7827   152.7582 </r>
       <r>     5.1890     6.0525   154.0829 </r>
       <r>     5.3018    12.3783   155.7567 </r>
       <r>     5.4146     5.7222   156.9657 </r>
       <r>     5.5275     6.9355   158.2226 </r>
       <r>     5.6403    11.3623   159.7021 </r>
       <r>     5.7532    12.2477   161.5620 </r>
       <r>     5.8660    10.0442   163.2534 </r>
       <r>     5.9788    13.4120   165.3334 </r>
       <r>     6.0917    13.2525   167.4954 </r>
       <r>     6.2045    23.7734   170.7825 </r>
       <r>     6.3174    11.3501   172.6607 </r>
       <r>     6.4302     7.7790   173.8978 </r>
       <r>     6.5430     4.5490   174.7133 </r>
       <r>     6.6559     4.9129   175.5544 </r>
       <r>     6.7687     1.3716   175.9148 </r>
       <r>     6.8815     0.3545   176.0000 </r>
       <r>     6.9944     0.0000   176.0000 </r>
       <r>     7.1072     0.0000   176.0000 </r>
       <r>     7.2201     0.0000   176.0000 </r>
       <r>     7.3329     0.0000   176.0000 </r>
       <r>     7.4457     0.0000   176.0000 </r>
       <r>     7.5586     0.0000   176.0000 </r>
       <r>     7.6714     0.0000   176.0000 </r>
       <r>     7.7842     0.0000   176.0000 </r>
       <r>     7.8971     0.0000   176.0000 </r>
       <r>     8.0099     0.0000   176.0000 </r>
       <r>     8.1228     0.0000   176.0000 </r>
       <r>     8.2356     0.0000   176.0000 </r>
       <r>     8.3484     0.0000   176.0000 </r>
      </set>
     </set>
    </array>
   </total>
  </dos>
 </calculation>
 <structure name="finalpos" >
  <crystal>
   <varray name="basis" >
    <v>       8.90826050       0.00000000       0.00000000 </v>
    <v>       0.00000000       6.72686198       0.00000000 </v>
    <v>       0.00000000       0.00000000      11.50561267 </v>
   </varray>
   <i name="volume">    689.46968423 </i>
   <varray name="rec_basis" >
    <v>       0.11225536       0.00000000       0.00000000 </v>
    <v>       0.00000000       0.14865773       0.00000000 </v>
    <v>       0.00000000       0.00000000       0.08691410 </v>
   </varray>
  </crystal>
  <varray name="positions" >
   <v>       0.01536406       0.25000000       0.69213186 </v>
   <v>       0.98463594       0.75000002       0.30786814 </v>
   <v>       0.48463594       0.75000002       0.19213180 </v>
   <v>       0.51536406       0.25000000       0.80786818 </v>
   <v>       0.16070224       0.75000002       0.90650282 </v>
   <v>       0.83929776       0.25000000       0.09349716 </v>
   <v>       0.33929776       0.25000000       0.40650290 </v>
   <v>       0.66070224       0.75000002       0.59349714 </v>
   <v>       0.19345800       0.07100390       0.14637424 </v>
   <v>       0.80654200       0.92899609       0.85362574 </v>
   <v>       0.30654200       0.92899609       0.64637426 </v>
   <v>       0.69345800       0.07100390       0.35362574 </v>
   <v>       0.80654200       0.57100391       0.85362574 </v>
   <v>       0.19345800       0.42899609       0.14637424 </v>
   <v>       0.69345800       0.42899609       0.35362574 </v>
   <v>       0.30654200       0.57100391       0.64637426 </v>
   <v>       0.08126801       0.75000002       0.59096745 </v>
   <v>       0.91873197       0.25000000       0.40903255 </v>
   <v>       0.41873200       0.25000000       0.09096738 </v>
   <v>       0.58126803       0.75000002       0.90903260 </v>
   <v>       0.19639773       0.25000000       0.96492478 </v>
   <v>       0.80360225       0.75000002       0.03507524 </v>
   <v>       0.30360225       0.75000002       0.46492469 </v>
   <v>       0.69639775       0.25000000       0.53507522 </v>
  </varray>
 </structure>
</modeling>
