 vasp.5.4.4.18Apr17-6-g9f103f2a35 (build Nov 21 2017 15:30:27) complex          
  
 executed on             LinuxIFC date 2020.12.16  19:57:23
 running on   64 total cores
 distrk:  each k-point on   32 cores,    2 groups
 distr:  one band on NCORES_PER_BAND=   4 cores,    8 groups


--------------------------------------------------------------------------------------------------------


 INCAR:
 POTCAR:   PAW Sr_sv 10Feb1998                    
 POTCAR:   PAW Si 02Apr1999                       

 ----------------------------------------------------------------------------- 
|                                                                             |
|           W    W    AA    RRRRR   N    N  II  N    N   GGGG   !!!           |
|           W    W   A  A   R    R  NN   N  II  NN   N  G    G  !!!           |
|           W    W  A    A  R    R  N N  N  II  N N  N  G       !!!           |
|           W WW W  AAAAAA  RRRRR   N  N N  II  N  N N  G  GGG   !            |
|           WW  WW  A    A  R   R   N   NN  II  N   NN  G    G                |
|           W    W  A    A  R    R  N    N  II  N    N   GGGG   !!!           |
|                                                                             |
|      You have enabled k-point parallelism (KPAR>1).                         |
|      This developmental code was originally  written by Paul Kent at ORNL,  |
|      and carefully double checked in Vienna.                                |
|      GW as well as linear response parallelism added by Martijn Marsman     |
|      and Georg Kresse.                                                      |
|      Carefully verify results versus KPAR=1.                                |
|      Report problems to Paul Kent and Vienna.                               |
|                                                                             |
 ----------------------------------------------------------------------------- 

 POTCAR:   PAW Sr_sv 10Feb1998                    
   VRHFIN =Sr: 3s3p4s                                                           
   LEXCH  = CA                                                                  
   EATOM  =   845.6099 eV,   62.1506 Ry                                         
                                                                                
   TITEL  = PAW Sr_sv 10Feb1998                                                 
   LULTRA =        F    use ultrasoft PP ?                                      
   IUNSCR =        1    unscreen: 0-lin 1-nonlin 2-no                           
   RPACOR =    2.200    partial core radius                                     
   POMASS =   87.620; ZVAL   =   10.000    mass and valenz                      
   RCORE  =    2.500    outmost cutoff radius                                   
   RWIGS  =    4.040; RWIGS  =    2.138    wigner-seitz radius (au A)           
   ENMAX  =  226.327; ENMIN  =  169.745 eV                                      
   RCLOC  =    2.201    cutoff for local pot                                    
   LCOR   =        T    correct aug charges                                     
   LPAW   =        T    paw PP                                                  
   EAUG   =  366.804                                                            
   DEXC   =     .000                                                            
   RMAX   =    3.065    core radius for proj-oper                               
   RDEP   =    2.562    core radius for depl-charge                             
   QCUT   =   -4.079; QGAM   =    8.157    optimization parameters              
                                                                                
   Description                                                                  
     l     E      TYP  RCUT    TYP  RCUT                                        
     0   .000     23  2.500                                                     
     0   .000     23  2.500                                                     
     1   .000     23  2.500                                                     
     1   .000     23  2.500                                                     
     2   .000     23  2.500                                                     
     2   .000     23  2.500                                                     
  local pseudopotential read in
  partial core-charges read in
  atomic valenz-charges read in
  non local Contribution for L=           0  read in
    real space projection operators read in
  non local Contribution for L=           0  read in
    real space projection operators read in
  non local Contribution for L=           1  read in
    real space projection operators read in
  non local Contribution for L=           1  read in
    real space projection operators read in
  non local Contribution for L=           2  read in
    real space projection operators read in
  non local Contribution for L=           2  read in
    real space projection operators read in
    PAW grid and wavefunctions read in
 
   number of l-projection  operators is LMAX  =           6
   number of lm-projection operators is LMMAX =          18
 
 POTCAR:   PAW Si 02Apr1999                       
   VRHFIN =Si: s2p2                                                             
   LEXCH  = CA                                                                  
   EATOM  =   103.4338 eV,    7.6022 Ry                                         
                                                                                
   TITEL  = PAW Si 02Apr1999                                                    
   LULTRA =        F    use ultrasoft PP ?                                      
   IUNSCR =        1    unscreen: 0-lin 1-nonlin 2-no                           
   RPACOR =    1.500    partial core radius                                     
   POMASS =   28.085; ZVAL   =    4.000    mass and valenz                      
   RCORE  =    1.900    outmost cutoff radius                                   
   RWIGS  =    2.480; RWIGS  =    1.312    wigner-seitz radius (au A)           
   ENMAX  =  245.704; ENMIN  =  184.278 eV                                      
   ICORE  =        2    local potential                                         
   LCOR   =        T    correct aug charges                                     
   LPAW   =        T    paw PP                                                  
   EAUG   =  322.069                                                            
   DEXC   =    -.006                                                            
   RMAX   =    2.941    core radius for proj-oper                               
   RAUG   =    1.300    factor for augmentation sphere                          
   RDEP   =    1.993    core radius for depl-charge                             
   QCUT   =   -4.250; QGAM   =    8.499    optimization parameters              
                                                                                
   Description                                                                  
     l     E      TYP  RCUT    TYP  RCUT                                        
     0   .000     23  1.900                                                     
     0   .000     23  1.900                                                     
     1   .000     23  1.900                                                     
     1   .000     23  1.900                                                     
     2   .000      7  1.900                                                     
  local pseudopotential read in
  partial core-charges read in
  atomic valenz-charges read in
  non local Contribution for L=           0  read in
    real space projection operators read in
  non local Contribution for L=           0  read in
    real space projection operators read in
  non local Contribution for L=           1  read in
    real space projection operators read in
  non local Contribution for L=           1  read in
    real space projection operators read in
    PAW grid and wavefunctions read in
 
   number of l-projection  operators is LMAX  =           4
   number of lm-projection operators is LMMAX =           8
 
 Optimization of the real space projectors (new method)

 maximal supplied QI-value         = 15.12
 optimisation between [QCUT,QGAM] = [ 11.34, 22.83] = [ 36.00,145.93] Ry 
 Optimized for a Real-space Cutoff    1.56 Angstroem

   l    n(q)    QCUT    max X(q) W(low)/X(q) W(high)/X(q)  e(spline) 
   0     11    11.338     6.769    0.16E-04    0.24E-05    0.17E-07
   0     11    11.338    11.010    0.41E-04    0.15E-04    0.16E-06
   1     10    11.338     3.817    0.90E-05    0.31E-06    0.26E-07
   1     10    11.338    44.322    0.19E-03    0.57E-04    0.44E-06
   2     10    11.338     4.916    0.17E-04    0.40E-04    0.76E-07
   2     10    11.338    93.165    0.21E-03    0.40E-03    0.41E-06
 Optimization of the real space projectors (new method)

 maximal supplied QI-value         = 19.84
 optimisation between [QCUT,QGAM] = [ 11.31, 22.82] = [ 35.82,145.81] Ry 
 Optimized for a Real-space Cutoff    1.16 Angstroem

   l    n(q)    QCUT    max X(q) W(low)/X(q) W(high)/X(q)  e(spline) 
   0      8    11.310     8.540    0.14E-04    0.11E-04    0.43E-08
   0      8    11.310   104.916    0.28E-03    0.31E-03    0.39E-07
   1      7    11.310     5.806    0.79E-05    0.47E-04    0.19E-07
   1      7    11.310    72.249    0.28E-03    0.28E-03    0.75E-07
 PAW Sr_sv 10Feb1998                    :
 energy of atom  1       EATOM= -845.6099
 kinetic energy error for atom=    0.0011 (will be added to EATOM!!)
 PAW Si 02Apr1999                       :
 energy of atom  2       EATOM= -103.4338
 kinetic energy error for atom=    0.0006 (will be added to EATOM!!)
 
 
 POSCAR: sr8 si16                                
  positions in cartesian coordinates
  No initial velocities read in
 exchange correlation table for  LEXCH =        2
   RHO(1)=    0.500       N(1)  =     2000
   RHO(2)=  100.500       N(2)  =     4000
 


--------------------------------------------------------------------------------------------------------


 ion  position               nearest neighbor table
   1  0.015  0.250  0.691-  24 3.40  18 3.40  13 3.45  10 3.45  16 3.45  11 3.45  21 3.60  17 3.63
                            17 3.63   5 4.41   5 4.41   7 4.42   4 4.71   4 4.71   8 4.80   8 4.80
   2  0.985  0.750  0.309-  23 3.40  17 3.40   9 3.45  14 3.45  12 3.45  15 3.45  22 3.60  18 3.63
                            18 3.63   6 4.41   6 4.41   8 4.42   3 4.71   3 4.71   7 4.80   7 4.80
   3  0.485  0.750  0.191-  22 3.40  20 3.40  12 3.45  15 3.45   9 3.45  14 3.45  23 3.60  19 3.63
                            19 3.63   7 4.41   7 4.41   5 4.42   2 4.71   2 4.71   6 4.80   6 4.80
   4  0.515  0.250  0.809-  21 3.40  19 3.40  16 3.45  11 3.45  13 3.45  10 3.45  24 3.60  20 3.63
                            20 3.63   8 4.41   8 4.41   6 4.42   1 4.71   1 4.71   5 4.80   5 4.80
   5  0.159  0.750  0.907-  10 3.46  13 3.46  21 3.48  21 3.48  11 3.50  16 3.50  22 3.54   9 3.55
                            14 3.55  17 3.71  20 3.82   1 4.41   1 4.41   3 4.42   4 4.80   4 4.80
   6  0.841  0.250  0.093-  14 3.46   9 3.46  22 3.48  22 3.48  15 3.50  12 3.50  21 3.54  13 3.55
                            10 3.55  18 3.71  19 3.82   2 4.41   2 4.41   4 4.42   3 4.80   3 4.80
   7  0.341  0.250  0.407-  15 3.46  12 3.46  23 3.48  23 3.48  14 3.50   9 3.50  24 3.54  16 3.55
                            11 3.55  19 3.71  18 3.82   3 4.41   3 4.41   1 4.42   2 4.80   2 4.80
   8  0.659  0.750  0.593-  11 3.46  16 3.46  24 3.48  24 3.48  10 3.50  13 3.50  23 3.54  12 3.55
                            15 3.55  20 3.71  17 3.82   4 4.41   4 4.41   2 4.42   1 4.80   1 4.80
   9  0.194  0.073  0.147-  14 2.41  21 2.41  19 2.42   2 3.45   3 3.45   6 3.46   7 3.50   5 3.55

  10  0.806  0.927  0.853-  13 2.41  22 2.41  20 2.42   1 3.45   4 3.45   5 3.46   8 3.50   6 3.55

  11  0.306  0.927  0.647-  16 2.41  23 2.41  17 2.42   4 3.45   1 3.45   8 3.46   5 3.50   7 3.55

  12  0.694  0.073  0.353-  15 2.41  24 2.41  18 2.42   3 3.45   2 3.45   7 3.46   6 3.50   8 3.55

  13  0.806  0.573  0.853-  10 2.41  22 2.41  20 2.42   1 3.45   4 3.45   5 3.46   8 3.50   6 3.55

  14  0.194  0.427  0.147-   9 2.41  21 2.41  19 2.42   2 3.45   3 3.45   6 3.46   7 3.50   5 3.55

  15  0.694  0.427  0.353-  12 2.41  24 2.41  18 2.42   3 3.45   2 3.45   7 3.46   6 3.50   8 3.55

  16  0.306  0.573  0.647-  11 2.41  23 2.41  17 2.42   4 3.45   1 3.45   8 3.46   5 3.50   7 3.55

  17  0.083  0.750  0.592-  11 2.42  16 2.42  23 2.45   2 3.40   1 3.63   1 3.63   5 3.71   8 3.82

  18  0.917  0.250  0.408-  15 2.42  12 2.42  24 2.45   1 3.40   2 3.63   2 3.63   6 3.71   7 3.82

  19  0.417  0.250  0.092-  14 2.42   9 2.42  21 2.45   4 3.40   3 3.63   3 3.63   7 3.71   6 3.82

  20  0.583  0.750  0.908-  10 2.42  13 2.42  22 2.45   3 3.40   4 3.63   4 3.63   8 3.71   5 3.82

  21  0.198  0.250  0.967-  14 2.41   9 2.41  19 2.45   4 3.40   5 3.48   5 3.48   6 3.54   1 3.60

  22  0.802  0.750  0.033-  10 2.41  13 2.41  20 2.45   3 3.40   6 3.48   6 3.48   5 3.54   2 3.60

  23  0.302  0.750  0.467-  11 2.41  16 2.41  17 2.45   2 3.40   7 3.48   7 3.48   8 3.54   3 3.60

  24  0.698  0.250  0.533-  15 2.41  12 2.41  18 2.45   1 3.40   8 3.48   8 3.48   7 3.54   4 3.60

 
  LATTYP: Found a simple orthorhombic cell.
 ALAT       =     6.7778496742
 B/A-ratio  =     1.3292516818
 C/A-ratio  =     1.7117734747
  
  Lattice vectors:
  
 A1 = (   0.0000000000,  -6.7778496742,   0.0000000000)
 A2 = (  -9.0094680786,   0.0000000000,   0.0000000000)
 A3 = (   0.0000000000,   0.0000000000, -11.6021432877)


Analysis of symmetry for initial positions (statically):
=====================================================================
 Subroutine PRICEL returns:
 Original cell was already a primitive cell.
 

 Routine SETGRP: Setting up the symmetry group for a 
 simple orthorhombic supercell.


 Subroutine GETGRP returns: Found  8 space group operations
 (whereof  2 operations were pure point group operations)
 out of a pool of  8 trial point group operations.


The static configuration has the point symmetry S_2 .
 The point group associated with its full space group is D_2h.


Analysis of symmetry for dynamics (positions and initial velocities):
=====================================================================
 Subroutine PRICEL returns:
 Original cell was already a primitive cell.
 

 Routine SETGRP: Setting up the symmetry group for a 
 simple orthorhombic supercell.


 Subroutine GETGRP returns: Found  8 space group operations
 (whereof  2 operations were pure point group operations)
 out of a pool of  8 trial point group operations.


The dynamic configuration has the point symmetry S_2 .
 The point group associated with its full space group is D_2h.


 Subroutine INISYM returns: Found  8 space group operations
 (whereof  2 operations are pure point group operations),
 and found     1 'primitive' translations

 
 
 KPOINTS: k-density: 6.0                          

Automatic generation of k-mesh.
Space group operators:
 irot       det(A)        alpha          n_x          n_y          n_z        tau_x        tau_y        tau_z
    1     1.000000     0.000000     1.000000     0.000000     0.000000     0.000000     0.000000     0.000000
    2    -1.000000     0.000000     1.000000     0.000000     0.000000     0.000000     0.000000     0.000000
    3     1.000000   180.000000     0.000000     0.000000     1.000000    -0.500000     0.000000    -0.500000
    4    -1.000000   180.000000     0.000000     0.000000     1.000000    -0.500000     0.000000    -0.500000
    5     1.000000   180.000000     1.000000     0.000000     0.000000    -0.500000    -0.500000    -0.500000
    6    -1.000000   180.000000     1.000000     0.000000     0.000000    -0.500000    -0.500000    -0.500000
    7     1.000000   180.000000     0.000000     1.000000     0.000000    -0.000000    -0.500000    -0.000000
    8    -1.000000   180.000000     0.000000     1.000000     0.000000     0.000000    -0.500000     0.000000
 
 Subroutine IBZKPT returns following result:
 ===========================================
 
 Found     36 irreducible k-points:
 
 Following reciprocal coordinates:
            Coordinates               Weight
  0.000000  0.000000  0.000000      1.000000
  0.200000  0.000000  0.000000      2.000000
  0.400000  0.000000  0.000000      2.000000
  0.000000  0.166667  0.000000      2.000000
  0.200000  0.166667  0.000000      4.000000
  0.400000  0.166667  0.000000      4.000000
  0.000000  0.333333  0.000000      2.000000
  0.200000  0.333333  0.000000      4.000000
  0.400000  0.333333  0.000000      4.000000
  0.000000  0.500000  0.000000      1.000000
  0.200000  0.500000  0.000000      2.000000
  0.400000  0.500000  0.000000      2.000000
  0.000000  0.000000  0.250000      2.000000
  0.200000  0.000000  0.250000      4.000000
  0.400000  0.000000  0.250000      4.000000
  0.000000  0.166667  0.250000      4.000000
  0.200000  0.166667  0.250000      8.000000
  0.400000  0.166667  0.250000      8.000000
  0.000000  0.333333  0.250000      4.000000
  0.200000  0.333333  0.250000      8.000000
  0.400000  0.333333  0.250000      8.000000
  0.000000  0.500000  0.250000      2.000000
  0.200000  0.500000  0.250000      4.000000
  0.400000  0.500000  0.250000      4.000000
  0.000000  0.000000  0.500000      1.000000
  0.200000  0.000000  0.500000      2.000000
  0.400000  0.000000  0.500000      2.000000
  0.000000  0.166667  0.500000      2.000000
  0.200000  0.166667  0.500000      4.000000
  0.400000  0.166667  0.500000      4.000000
  0.000000  0.333333  0.500000      2.000000
  0.200000  0.333333  0.500000      4.000000
  0.400000  0.333333  0.500000      4.000000
  0.000000  0.500000  0.500000      1.000000
  0.200000  0.500000  0.500000      2.000000
  0.400000  0.500000  0.500000      2.000000
 
 Following cartesian coordinates:
            Coordinates               Weight
  0.000000  0.000000  0.000000      1.000000
  0.022199  0.000000  0.000000      2.000000
  0.044398  0.000000  0.000000      2.000000
  0.000000  0.024590  0.000000      2.000000
  0.022199  0.024590  0.000000      4.000000
  0.044398  0.024590  0.000000      4.000000
  0.000000  0.049180  0.000000      2.000000
  0.022199  0.049180  0.000000      4.000000
  0.044398  0.049180  0.000000      4.000000
  0.000000  0.073770  0.000000      1.000000
  0.022199  0.073770  0.000000      2.000000
  0.044398  0.073770  0.000000      2.000000
  0.000000  0.000000  0.021548      2.000000
  0.022199  0.000000  0.021548      4.000000
  0.044398  0.000000  0.021548      4.000000
  0.000000  0.024590  0.021548      4.000000
  0.022199  0.024590  0.021548      8.000000
  0.044398  0.024590  0.021548      8.000000
  0.000000  0.049180  0.021548      4.000000
  0.022199  0.049180  0.021548      8.000000
  0.044398  0.049180  0.021548      8.000000
  0.000000  0.073770  0.021548      2.000000
  0.022199  0.073770  0.021548      4.000000
  0.044398  0.073770  0.021548      4.000000
  0.000000  0.000000  0.043095      1.000000
  0.022199  0.000000  0.043095      2.000000
  0.044398  0.000000  0.043095      2.000000
  0.000000  0.024590  0.043095      2.000000
  0.022199  0.024590  0.043095      4.000000
  0.044398  0.024590  0.043095      4.000000
  0.000000  0.049180  0.043095      2.000000
  0.022199  0.049180  0.043095      4.000000
  0.044398  0.049180  0.043095      4.000000
  0.000000  0.073770  0.043095      1.000000
  0.022199  0.073770  0.043095      2.000000
  0.044398  0.073770  0.043095      2.000000
 
 TETIRR: Found    360 inequivalent tetrahedra from      720


--------------------------------------------------------------------------------------------------------




 Dimension of arrays:
   k-points           NKPTS =     36   k-points in BZ     NKDIM =     36   number of bands    NBANDS=     88
   number of dos      NEDOS =    301   number of ions     NIONS =     24
   non local maximal  LDIM  =      6   non local SUM 2l+1 LMDIM =     18
   total plane-waves  NPLWV = 128000
   max r-space proj   IRMAX =   2946   max aug-charges    IRDMAX=  10792
   dimension x,y,z NGX =    50 NGY =   40 NGZ =   64
   dimension x,y,z NGXF=   100 NGYF=   80 NGZF=  128
   support grid    NGXF=   100 NGYF=   80 NGZF=  128
   ions per type =               8  16
   NGX,Y,Z   is equivalent  to a cutoff of   9.23,  9.81,  9.17 a.u.
   NGXF,Y,Z  is equivalent  to a cutoff of  18.45, 19.62, 18.34 a.u.

 SYSTEM =  unknown system                          
 POSCAR =  sr8 si16                                

 Startparameter for this run:
   NWRITE =      2    write-flag & timer
   PREC   = normal    normal or accurate (medium, high low for compatibility)
   ISTART =      0    job   : 0-new  1-cont  2-samecut
   ICHARG =      2    charge: 1-file 2-atom 10-const
   ISPIN  =      1    spin polarized calculation?
   LNONCOLLINEAR =      F non collinear calculations
   LSORBIT =      F    spin-orbit coupling
   INIWAV =      1    electr: 0-lowe 1-rand  2-diag
   LASPH  =      F    aspherical Exc in radial PAW
   METAGGA=      F    non-selfconsistent MetaGGA calc.

 Electronic Relaxation 1
   ENCUT  =  500.0 eV  36.75 Ry    6.06 a.u.  16.43 12.36 21.15*2*pi/ulx,y,z
   ENINI  =  500.0     initial cutoff
   ENAUG  =  366.8 eV  augmentation charge cutoff
   NELM   =    100;   NELMIN=  2; NELMDL= -5     # of ELM steps 
   EDIFF  = 0.1E-05   stopping-criterion for ELM
   LREAL  =      T    real-space projection
   NLSPLINE    = F    spline interpolate recip. space projectors
   LCOMPAT=      F    compatible to vasp.4.4
   GGA_COMPAT  = T    GGA compatible to vasp.4.4-vasp.4.6
   LMAXPAW     = -100 max onsite density
   LMAXMIX     =    2 max onsite mixed and CHGCAR
   VOSKOWN=      0    Vosko Wilk Nusair interpolation
   ROPT   =   -0.00050  -0.00050
 Ionic relaxation
   EDIFFG = 0.1E-01   stopping-criterion for IOM
   NSW    =    200    number of steps for IOM
   NBLOCK =      1;   KBLOCK =    200    inner block; outer block 
   IBRION =      2    ionic relax: 0-MD 1-quasi-New 2-CG
   NFREE  =      1    steps in history (QN), initial steepest desc. (CG)
   ISIF   =      3    stress and relaxation
   IWAVPR =     11    prediction:  0-non 1-charg 2-wave 3-comb
   ISYM   =      2    0-nonsym 1-usesym 2-fastsym
   LCORR  =      T    Harris-Foulkes like correction to forces

   POTIM  = 0.5000    time-step for ionic-motion
   TEIN   =    0.0    initial temperature
   TEBEG  =    0.0;   TEEND  =   0.0 temperature during run
   SMASS  =  -3.00    Nose mass-parameter (am)
   estimated Nose-frequenzy (Omega)   =  0.10E-29 period in steps =****** mass=  -0.185E-26a.u.
   SCALEE = 1.0000    scale energy and forces
   NPACO  =    256;   APACO  = 16.0  distance and # of slots for P.C.
   PSTRESS=    0.0 pullay stress

  Mass of Ions in am
   POMASS =  87.62 28.09
  Ionic Valenz
   ZVAL   =  10.00  4.00
  Atomic Wigner-Seitz radii
   RWIGS  =  -1.00 -1.00
  virtual crystal weights 
   VCA    =   1.00  1.00
   NELECT =     144.0000    total number of electrons
   NUPDOWN=      -1.0000    fix difference up-down

 DOS related values:
   EMIN   =  10.00;   EMAX   =-10.00  energy-range for DOS
   EFERMI =   0.00
   ISMEAR =    -5;   SIGMA  =   0.01  broadening in eV -4-tet -1-fermi 0-gaus

 Electronic relaxation 2 (details)
   IALGO  =     38    algorithm
   LDIAG  =      T    sub-space diagonalisation (order eigenvalues)
   LSUBROT=      F    optimize rotation matrix (better conditioning)
   TURBO    =      0    0=normal 1=particle mesh
   IRESTART =      0    0=no restart 2=restart with 2 vectors
   NREBOOT  =      0    no. of reboots
   NMIN     =      0    reboot dimension
   EREF     =   0.00    reference energy to select bands
   IMIX   =      4    mixing-type and parameters
     AMIX     =   0.40;   BMIX     =  1.00
     AMIX_MAG =   1.60;   BMIX_MAG =  1.00
     AMIN     =   0.10
     WC   =   100.;   INIMIX=   1;  MIXPRE=   1;  MAXMIX= -45

 Intra band minimization:
   WEIMIN = 0.0010     energy-eigenvalue tresh-hold
   EBREAK =  0.28E-08  absolut break condition
   DEPER  =   0.30     relativ break condition  

   TIME   =   0.40     timestep for ELM

  volume/ion in A,a.u.               =      29.52       199.21
  Fermi-wavevector in a.u.,A,eV,Ry     =   0.962541  1.818939 12.605595  0.926485
  Thomas-Fermi vector in A             =   2.092009
 
 Write flags
   LWAVE        =      T    write WAVECAR
   LDOWNSAMPLE  =      F    k-point downsampling of WAVECAR
   LCHARG       =      T    write CHGCAR
   LVTOT        =      F    write LOCPOT, total local potential
   LVHAR        =      F    write LOCPOT, Hartree potential only
   LELF         =      F    write electronic localiz. function (ELF)
   LORBIT       =      0    0 simple, 1 ext, 2 COOP (PROOUT), +10 PAW based schemes


 Dipole corrections
   LMONO  =      F    monopole corrections only (constant potential shift)
   LDIPOL =      F    correct potential (dipole corrections)
   IDIPOL =      0    1-x, 2-y, 3-z, 4-all directions 
   EPSILON=  1.0000000 bulk dielectric constant

 Exchange correlation treatment:
   GGA     =    --    GGA type
   LEXCH   =     2    internal setting for exchange type
   VOSKOWN=      0    Vosko Wilk Nusair interpolation
   LHFCALC =     F    Hartree Fock is set to
   LHFONE  =     F    Hartree Fock one center treatment
   AEXX    =    0.0000 exact exchange contribution

 Linear response parameters
   LEPSILON=     F    determine dielectric tensor
   LRPA    =     F    only Hartree local field effects (RPA)
   LNABLA  =     F    use nabla operator in PAW spheres
   LVEL    =     F    velocity operator in full k-point grid
   LINTERFAST=   F  fast interpolation
   KINTER  =     0    interpolate to denser k-point grid
   CSHIFT  =0.1000    complex shift for real part using Kramers Kronig
   OMEGAMAX=  -1.0    maximum frequency
   DEG_THRESHOLD= 0.2000000E-02 threshold for treating states as degnerate
   RTIME   =   -0.100 relaxation time in fs
  (WPLASMAI=    0.000 imaginary part of plasma frequency in eV, 0.658/RTIME)
   DFIELD  = 0.0000000 0.0000000 0.0000000 field for delta impulse in time
 
 Orbital magnetization related:
   ORBITALMAG=     F  switch on orbital magnetization
   LCHIMAG   =     F  perturbation theory with respect to B field
   DQ        =  0.001000  dq finite difference perturbation B field
   LLRAUG    =     F  two centre corrections for induced B field



--------------------------------------------------------------------------------------------------------


 conjugate gradient relaxation of ions
 charge density and potential will be updated during run
 non-spin polarized calculation
 Variant of blocked Davidson
 Davidson routine will perform the subspace rotation
 perform sub-space diagonalisation
    after iterative eigenvector-optimisation
 modified Broyden-mixing scheme, WC =      100.0
 initial mixing is a Kerker type mixing with AMIX =  0.4000 and BMIX =      1.0000
 Hartree-type preconditioning will be used
 using additional bands           16
 real space projection scheme for non local part
 use partial core corrections
 calculate Harris-corrections to forces 
   (improved forces if not selfconsistent)
 use of overlap-Matrix (Vanderbilt PP)
 Fermi weights with tetrahedron method with Bloechl corrections


--------------------------------------------------------------------------------------------------------


  energy-cutoff  :      500.00
  volume of cell :      708.48
      direct lattice vectors                 reciprocal lattice vectors
     9.009468079  0.000000000  0.000000000     0.110994344  0.000000000  0.000000000
     0.000000000  6.777849674  0.000000000     0.000000000  0.147539419  0.000000000
     0.000000000  0.000000000 11.602143288     0.000000000  0.000000000  0.086190971

  length of vectors
     9.009468079  6.777849674 11.602143288     0.110994344  0.147539419  0.086190971


 
 k-points in units of 2pi/SCALE and weight: k-density: 6.0                          
   0.00000000  0.00000000  0.00000000       0.008
   0.02219887  0.00000000  0.00000000       0.017
   0.04439774  0.00000000  0.00000000       0.017
   0.00000000  0.02458990  0.00000000       0.017
   0.02219887  0.02458990  0.00000000       0.033
   0.04439774  0.02458990  0.00000000       0.033
   0.00000000  0.04917981  0.00000000       0.017
   0.02219887  0.04917981  0.00000000       0.033
   0.04439774  0.04917981  0.00000000       0.033
   0.00000000  0.07376971  0.00000000       0.008
   0.02219887  0.07376971  0.00000000       0.017
   0.04439774  0.07376971  0.00000000       0.017
   0.00000000  0.00000000  0.02154774       0.017
   0.02219887  0.00000000  0.02154774       0.033
   0.04439774  0.00000000  0.02154774       0.033
   0.00000000  0.02458990  0.02154774       0.033
   0.02219887  0.02458990  0.02154774       0.067
   0.04439774  0.02458990  0.02154774       0.067
   0.00000000  0.04917981  0.02154774       0.033
   0.02219887  0.04917981  0.02154774       0.067
   0.04439774  0.04917981  0.02154774       0.067
   0.00000000  0.07376971  0.02154774       0.017
   0.02219887  0.07376971  0.02154774       0.033
   0.04439774  0.07376971  0.02154774       0.033
   0.00000000  0.00000000  0.04309549       0.008
   0.02219887  0.00000000  0.04309549       0.017
   0.04439774  0.00000000  0.04309549       0.017
   0.00000000  0.02458990  0.04309549       0.017
   0.02219887  0.02458990  0.04309549       0.033
   0.04439774  0.02458990  0.04309549       0.033
   0.00000000  0.04917981  0.04309549       0.017
   0.02219887  0.04917981  0.04309549       0.033
   0.04439774  0.04917981  0.04309549       0.033
   0.00000000  0.07376971  0.04309549       0.008
   0.02219887  0.07376971  0.04309549       0.017
   0.04439774  0.07376971  0.04309549       0.017
 
 k-points in reciprocal lattice and weights: k-density: 6.0                          
   0.00000000  0.00000000  0.00000000       0.008
   0.20000000  0.00000000  0.00000000       0.017
   0.40000000  0.00000000  0.00000000       0.017
   0.00000000  0.16666667  0.00000000       0.017
   0.20000000  0.16666667  0.00000000       0.033
   0.40000000  0.16666667  0.00000000       0.033
   0.00000000  0.33333333  0.00000000       0.017
   0.20000000  0.33333333  0.00000000       0.033
   0.40000000  0.33333333  0.00000000       0.033
   0.00000000  0.50000000  0.00000000       0.008
   0.20000000  0.50000000  0.00000000       0.017
   0.40000000  0.50000000  0.00000000       0.017
   0.00000000  0.00000000  0.25000000       0.017
   0.20000000  0.00000000  0.25000000       0.033
   0.40000000  0.00000000  0.25000000       0.033
   0.00000000  0.16666667  0.25000000       0.033
   0.20000000  0.16666667  0.25000000       0.067
   0.40000000  0.16666667  0.25000000       0.067
   0.00000000  0.33333333  0.25000000       0.033
   0.20000000  0.33333333  0.25000000       0.067
   0.40000000  0.33333333  0.25000000       0.067
   0.00000000  0.50000000  0.25000000       0.017
   0.20000000  0.50000000  0.25000000       0.033
   0.40000000  0.50000000  0.25000000       0.033
   0.00000000  0.00000000  0.50000000       0.008
   0.20000000  0.00000000  0.50000000       0.017
   0.40000000  0.00000000  0.50000000       0.017
   0.00000000  0.16666667  0.50000000       0.017
   0.20000000  0.16666667  0.50000000       0.033
   0.40000000  0.16666667  0.50000000       0.033
   0.00000000  0.33333333  0.50000000       0.017
   0.20000000  0.33333333  0.50000000       0.033
   0.40000000  0.33333333  0.50000000       0.033
   0.00000000  0.50000000  0.50000000       0.008
   0.20000000  0.50000000  0.50000000       0.017
   0.40000000  0.50000000  0.50000000       0.017
 
 position of ions in fractional coordinates (direct lattice) 
   0.01517300  0.25000000  0.69130999
   0.98482700  0.75000002  0.30869001
   0.48482700  0.75000002  0.19130993
   0.51517300  0.25000000  0.80869005
   0.15930900  0.75000002  0.90664998
   0.84069100  0.25000000  0.09335000
   0.34069100  0.25000000  0.40665007
   0.65930900  0.75000002  0.59334998
   0.19427001  0.07254100  0.14674400
   0.80572999  0.92745899  0.85325598
   0.30572999  0.92745899  0.64674402
   0.69427001  0.07254100  0.35325598
   0.80572999  0.57254101  0.85325598
   0.19427001  0.42745899  0.14674400
   0.69427001  0.42745899  0.35325598
   0.30572999  0.57254101  0.64674402
   0.08290500  0.75000002  0.59200102
   0.91709498  0.25000000  0.40799898
   0.41709501  0.25000000  0.09200096
   0.58290502  0.75000002  0.90799902
   0.19769400  0.25000000  0.96694000
   0.80230599  0.75000002  0.03306002
   0.30230599  0.75000002  0.46693992
   0.69769401  0.25000000  0.53306000
 
 position of ions in cartesian coordinates  (Angst):
   0.13670066  1.69446242  8.02067757
   8.87276745  5.08338737  3.58146572
   4.36803341  5.08338737  2.21960521
   4.64143467  1.69446242  9.38253784
   1.43528938  5.08338737 10.51908302
   7.57417870  1.69446242  1.08306003
   3.06944466  1.69446242  4.71801233
   5.94002342  5.08338737  6.88413143
   1.75026941  0.49167198  1.70254493
   7.25919867  6.28617763  9.89959812
   2.75446463  6.28617763  7.50361681
   6.25500345  0.49167198  4.09852648
   7.25919867  3.88059688  9.89959812
   1.75026941  2.89725280  1.70254493
   6.25500345  2.89725280  4.09852648
   2.75446463  3.88059688  7.50361681
   0.74692994  5.08338737  6.86848068
   8.26253796  1.69446242  4.73366260
   3.75780416  1.69446242  1.06740832
   5.25166416  5.08338737 10.53473473
   1.78111780  1.69446242 11.21857643
   7.22835016  5.08338737  0.38356703
   2.72361612  5.08338737  5.41750383
   6.28585196  1.69446242  6.18463850
 


--------------------------------------------------------------------------------------------------------


 k-point  1 :   0.0000 0.0000 0.0000  plane waves:   18015
 k-point  2 :   0.2000 0.0000 0.0000  plane waves:   18061
 k-point  3 :   0.4000 0.0000 0.0000  plane waves:   17963
 k-point  4 :   0.0000 0.1667 0.0000  plane waves:   17981
 k-point  5 :   0.2000 0.1667 0.0000  plane waves:   17995
 k-point  6 :   0.4000 0.1667 0.0000  plane waves:   17998
 k-point  7 :   0.0000 0.3333 0.0000  plane waves:   17997
 k-point  8 :   0.2000 0.3333 0.0000  plane waves:   17955
 k-point  9 :   0.4000 0.3333 0.0000  plane waves:   17977
 k-point 10 :   0.0000 0.5000 0.0000  plane waves:   17944
 k-point 11 :   0.2000 0.5000 0.0000  plane waves:   17950
 k-point 12 :   0.4000 0.5000 0.0000  plane waves:   17980
 k-point 13 :   0.0000 0.0000 0.2500  plane waves:   18014
 k-point 14 :   0.2000 0.0000 0.2500  plane waves:   18010
 k-point 15 :   0.4000 0.0000 0.2500  plane waves:   17976
 k-point 16 :   0.0000 0.1667 0.2500  plane waves:   17994
 k-point 17 :   0.2000 0.1667 0.2500  plane waves:   18005
 k-point 18 :   0.4000 0.1667 0.2500  plane waves:   17983
 k-point 19 :   0.0000 0.3333 0.2500  plane waves:   17983
 k-point 20 :   0.2000 0.3333 0.2500  plane waves:   17976
 k-point 21 :   0.4000 0.3333 0.2500  plane waves:   17972
 k-point 22 :   0.0000 0.5000 0.2500  plane waves:   17960
 k-point 23 :   0.2000 0.5000 0.2500  plane waves:   17998
 k-point 24 :   0.4000 0.5000 0.2500  plane waves:   17972
 k-point 25 :   0.0000 0.0000 0.5000  plane waves:   17962
 k-point 26 :   0.2000 0.0000 0.5000  plane waves:   17982
 k-point 27 :   0.4000 0.0000 0.5000  plane waves:   17990
 k-point 28 :   0.0000 0.1667 0.5000  plane waves:   17998
 k-point 29 :   0.2000 0.1667 0.5000  plane waves:   17996
 k-point 30 :   0.4000 0.1667 0.5000  plane waves:   17998
 k-point 31 :   0.0000 0.3333 0.5000  plane waves:   18010
 k-point 32 :   0.2000 0.3333 0.5000  plane waves:   18006
 k-point 33 :   0.4000 0.3333 0.5000  plane waves:   17968
 k-point 34 :   0.0000 0.5000 0.5000  plane waves:   18004
 k-point 35 :   0.2000 0.5000 0.5000  plane waves:   18000
 k-point 36 :   0.4000 0.5000 0.5000  plane waves:   17992

 maximum and minimum number of plane-waves per node :      4533     4466

 maximum number of plane-waves:     18061
 maximum index in each direction: 
   IXMAX=   16   IYMAX=   12   IZMAX=   21
   IXMIN=  -16   IYMIN=  -12   IZMIN=  -21


 real space projection operators:
  total allocation   :       4328.62 KBytes
  max/ min on nodes  :       1126.75       1037.56


 parallel 3D FFT for wavefunctions:
    minimum data exchange during FFTs selected (reduces bandwidth)
 parallel 3D FFT for charge:
    minimum data exchange during FFTs selected (reduces bandwidth)


 total amount of memory used by VASP MPI-rank0    67772. kBytes
=======================================================================

   base      :      30000. kBytes
   nonlr-proj:       2580. kBytes
   fftplans  :       2347. kBytes
   grid      :       3658. kBytes
   one-center:         93. kBytes
   wavefun   :      29094. kBytes
 
     INWAV:  cpu time    0.0000: real time    0.0000
 Broyden mixing: mesh for mixing (old mesh)
   NGX = 33   NGY = 25   NGZ = 43
  (NGX  =100   NGY  = 80   NGZ  =128)
  gives a total of  35475 points

 initial charge density was supplied:
 charge density of overlapping atoms calculated
 number of electron     144.0000000 magnetization 
 keeping initial charge density in first step


--------------------------------------------------------------------------------------------------------


 Maximum index for non-local projection operator          837
 Maximum index for augmentation-charges         1136 (set IRDMAX)


--------------------------------------------------------------------------------------------------------


 First call to EWALD:  gamma=   0.199
 Maximum number of real-space cells 3x 3x 2
 Maximum number of reciprocal cells 3x 2x 3

    FEWALD:  cpu time    0.0029: real time    0.0029


--------------------------------------- Iteration      1(   1)  ---------------------------------------


    POTLOK:  cpu time    0.0338: real time    0.0429
    SETDIJ:  cpu time    0.0027: real time    0.0029
     EDDAV:  cpu time    2.3169: real time    2.3284
 BZINTS: Fermi energy: 10.631757;144.000000 electrons
         Band energy:-392.288457;  BLOECHL correction: -0.058900
       DOS:  cpu time    0.0470: real time    0.0472
    --------------------------------------------
      LOOP:  cpu time    2.4004: real time    2.4214

 eigenvalue-minimisations  :  6360
 total energy-change (2. order) : 0.7803072E+03  (-0.5998414E+04)
 number of electron     144.0000000 magnetization 
 augmentation part      144.0000000 magnetization 

 Free energy of the ion-electron system (eV)
  ---------------------------------------------------
  alpha Z        PSCENC =       319.83555916
  Ewald energy   TEWEN  =     -6374.53395873
  -Hartree energ DENC   =     -1698.94998960
  -exchange      EXHF   =         0.00000000
  -V(xc)+E(xc)   XCENC  =       130.45171057
  PAW double counting   =      4517.12043150    -4141.12902044
  entropy T*S    EENTRO =         0.00000000
  eigenvalues    EBANDS =      -392.28845706
  atomic energy  EATOM  =      8419.80093738
  Solvation  Ediel_sol  =         0.00000000
  ---------------------------------------------------
  free energy    TOTEN  =       780.30721278 eV

  energy without entropy =      780.30721278  energy(sigma->0) =      780.30721278


--------------------------------------------------------------------------------------------------------




--------------------------------------- Iteration      1(   2)  ---------------------------------------


     EDDAV:  cpu time    2.6514: real time    2.6671
 BZINTS: Fermi energy:  4.031642;144.000000 electrons
         Band energy:***********;  BLOECHL correction:  0.000000
       DOS:  cpu time    0.0106: real time    0.0107
    --------------------------------------------
      LOOP:  cpu time    2.6620: real time    2.6777

 eigenvalue-minimisations  :  7568
 total energy-change (2. order) :-0.8238585E+03  (-0.7977974E+03)
 number of electron     144.0000000 magnetization 
 augmentation part      144.0000000 magnetization 

 Free energy of the ion-electron system (eV)
  ---------------------------------------------------
  alpha Z        PSCENC =       319.83555916
  Ewald energy   TEWEN  =     -6374.53395873
  -Hartree energ DENC   =     -1698.94998960
  -exchange      EXHF   =         0.00000000
  -V(xc)+E(xc)   XCENC  =       130.45171057
  PAW double counting   =      4517.12043150    -4141.12902044
  entropy T*S    EENTRO =         0.00000000
  eigenvalues    EBANDS =     -1216.14694710
  atomic energy  EATOM  =      8419.80093738
  Solvation  Ediel_sol  =         0.00000000
  ---------------------------------------------------
  free energy    TOTEN  =       -43.55127726 eV

  energy without entropy =      -43.55127726  energy(sigma->0) =      -43.55127726


--------------------------------------------------------------------------------------------------------




--------------------------------------- Iteration      1(   3)  ---------------------------------------


     EDDAV:  cpu time    2.8433: real time    2.8591
 BZINTS: Fermi energy:  2.267728;144.000000 electrons
         Band energy:***********;  BLOECHL correction:  0.000000
       DOS:  cpu time    0.0080: real time    0.0081
    --------------------------------------------
      LOOP:  cpu time    2.8514: real time    2.8671

 eigenvalue-minimisations  :  8288
 total energy-change (2. order) :-0.7409708E+02  (-0.7357081E+02)
 number of electron     144.0000000 magnetization 
 augmentation part      144.0000000 magnetization 

 Free energy of the ion-electron system (eV)
  ---------------------------------------------------
  alpha Z        PSCENC =       319.83555916
  Ewald energy   TEWEN  =     -6374.53395873
  -Hartree energ DENC   =     -1698.94998960
  -exchange      EXHF   =         0.00000000
  -V(xc)+E(xc)   XCENC  =       130.45171057
  PAW double counting   =      4517.12043150    -4141.12902044
  entropy T*S    EENTRO =         0.00000000
  eigenvalues    EBANDS =     -1290.24402999
  atomic energy  EATOM  =      8419.80093738
  Solvation  Ediel_sol  =         0.00000000
  ---------------------------------------------------
  free energy    TOTEN  =      -117.64836015 eV

  energy without entropy =     -117.64836015  energy(sigma->0) =     -117.64836015


--------------------------------------------------------------------------------------------------------




--------------------------------------- Iteration      1(   4)  ---------------------------------------


     EDDAV:  cpu time    3.4358: real time    3.4530
 BZINTS: Fermi energy:  2.256065;144.000000 electrons
         Band energy:***********;  BLOECHL correction:  0.000000
       DOS:  cpu time    0.0078: real time    0.0078
    --------------------------------------------
      LOOP:  cpu time    3.4437: real time    3.4608

 eigenvalue-minimisations  : 10456
 total energy-change (2. order) :-0.4083085E+01  (-0.4070529E+01)
 number of electron     144.0000000 magnetization 
 augmentation part      144.0000000 magnetization 

 Free energy of the ion-electron system (eV)
  ---------------------------------------------------
  alpha Z        PSCENC =       319.83555916
  Ewald energy   TEWEN  =     -6374.53395873
  -Hartree energ DENC   =     -1698.94998960
  -exchange      EXHF   =         0.00000000
  -V(xc)+E(xc)   XCENC  =       130.45171057
  PAW double counting   =      4517.12043150    -4141.12902044
  entropy T*S    EENTRO =         0.00000000
  eigenvalues    EBANDS =     -1294.32711488
  atomic energy  EATOM  =      8419.80093738
  Solvation  Ediel_sol  =         0.00000000
  ---------------------------------------------------
  free energy    TOTEN  =      -121.73144504 eV

  energy without entropy =     -121.73144504  energy(sigma->0) =     -121.73144504


--------------------------------------------------------------------------------------------------------




--------------------------------------- Iteration      1(   5)  ---------------------------------------


     EDDAV:  cpu time    3.0876: real time    3.1045
 BZINTS: Fermi energy:  2.306002;144.000000 electrons
         Band energy:***********;  BLOECHL correction:  0.000000
       DOS:  cpu time    0.0079: real time    0.0079
    CHARGE:  cpu time    0.0793: real time    0.0795
    MIXING:  cpu time    0.0030: real time    0.0034
    --------------------------------------------
      LOOP:  cpu time    3.1779: real time    3.1954

 eigenvalue-minimisations  :  9168
 total energy-change (2. order) :-0.2859786E+00  (-0.2859200E+00)
 number of electron     144.0000014 magnetization 
 augmentation part        1.1037010 magnetization 

 Broyden mixing:
  rms(total) = 0.11608E+01    rms(broyden)= 0.11608E+01
  rms(prec ) = 0.16862E+01
  weight for this iteration     100.00

 Free energy of the ion-electron system (eV)
  ---------------------------------------------------
  alpha Z        PSCENC =       319.83555916
  Ewald energy   TEWEN  =     -6374.53395873
  -Hartree energ DENC   =     -1698.94998960
  -exchange      EXHF   =         0.00000000
  -V(xc)+E(xc)   XCENC  =       130.45171057
  PAW double counting   =      4517.12043150    -4141.12902044
  entropy T*S    EENTRO =         0.00000000
  eigenvalues    EBANDS =     -1294.61309346
  atomic energy  EATOM  =      8419.80093738
  Solvation  Ediel_sol  =         0.00000000
  ---------------------------------------------------
  free energy    TOTEN  =      -122.01742362 eV

  energy without entropy =     -122.01742362  energy(sigma->0) =     -122.01742362


--------------------------------------------------------------------------------------------------------




--------------------------------------- Iteration      1(   6)  ---------------------------------------


    POTLOK:  cpu time    0.0147: real time    0.0227
    SETDIJ:  cpu time    0.0016: real time    0.0016
     EDDAV:  cpu time    2.5803: real time    2.5865
 BZINTS: Fermi energy:  2.862614;144.000000 electrons
         Band energy:***********;  BLOECHL correction:  0.000000
       DOS:  cpu time    0.0084: real time    0.0084
    CHARGE:  cpu time    0.0756: real time    0.0758
    MIXING:  cpu time    0.0035: real time    0.0035
    --------------------------------------------
      LOOP:  cpu time    2.6841: real time    2.6986

 eigenvalue-minimisations  :  7376
 total energy-change (2. order) : 0.5516199E+01  (-0.1594717E+01)
 number of electron     144.0000013 magnetization 
 augmentation part        1.2887062 magnetization 

 Broyden mixing:
  rms(total) = 0.61938E+00    rms(broyden)= 0.61938E+00
  rms(prec ) = 0.75981E+00
  weight for this iteration     100.00

 eigenvalues of (default mixing * dielectric matrix)
  average eigenvalue GAMMA=   1.8639
  1.8639

 Free energy of the ion-electron system (eV)
  ---------------------------------------------------
  alpha Z        PSCENC =       319.83555916
  Ewald energy   TEWEN  =     -6374.53395873
  -Hartree energ DENC   =     -1687.53284357
  -exchange      EXHF   =         0.00000000
  -V(xc)+E(xc)   XCENC  =       131.52912040
  PAW double counting   =      4522.22283635    -4167.92071721
  entropy T*S    EENTRO =         0.00000000
  eigenvalues    EBANDS =     -1279.90215818
  atomic energy  EATOM  =      8419.80093738
  Solvation  Ediel_sol  =         0.00000000
  ---------------------------------------------------
  free energy    TOTEN  =      -116.50122440 eV

  energy without entropy =     -116.50122440  energy(sigma->0) =     -116.50122440


--------------------------------------------------------------------------------------------------------




--------------------------------------- Iteration      1(   7)  ---------------------------------------


    POTLOK:  cpu time    0.0151: real time    0.0239
    SETDIJ:  cpu time    0.0016: real time    0.0016
     EDDAV:  cpu time    2.9401: real time    2.9473
 BZINTS: Fermi energy:  3.069074;144.000000 electrons
         Band energy:***********;  BLOECHL correction:  0.000000
       DOS:  cpu time    0.0081: real time    0.0081
    CHARGE:  cpu time    0.0750: real time    0.0752
    MIXING:  cpu time    0.0029: real time    0.0034
    --------------------------------------------
      LOOP:  cpu time    3.0429: real time    3.0596

 eigenvalue-minimisations  :  8704
 total energy-change (2. order) : 0.1615034E+00  (-0.6547127E+00)
 number of electron     144.0000013 magnetization 
 augmentation part        1.1425254 magnetization 

 Broyden mixing:
  rms(total) = 0.23094E+00    rms(broyden)= 0.23094E+00
  rms(prec ) = 0.29387E+00
  weight for this iteration     100.00

 eigenvalues of (default mixing * dielectric matrix)
  average eigenvalue GAMMA=   1.7736
  1.7736  1.7736

 Free energy of the ion-electron system (eV)
  ---------------------------------------------------
  alpha Z        PSCENC =       319.83555916
  Ewald energy   TEWEN  =     -6374.53395873
  -Hartree energ DENC   =     -1669.55885045
  -exchange      EXHF   =         0.00000000
  -V(xc)+E(xc)   XCENC  =       132.03539659
  PAW double counting   =      4548.81976385    -4212.58526074
  entropy T*S    EENTRO =         0.00000000
  eigenvalues    EBANDS =     -1280.15330809
  atomic energy  EATOM  =      8419.80093738
  Solvation  Ediel_sol  =         0.00000000
  ---------------------------------------------------
  free energy    TOTEN  =      -116.33972102 eV

  energy without entropy =     -116.33972102  energy(sigma->0) =     -116.33972102


--------------------------------------------------------------------------------------------------------




--------------------------------------- Iteration      1(   8)  ---------------------------------------


    POTLOK:  cpu time    0.0157: real time    0.0236
    SETDIJ:  cpu time    0.0017: real time    0.0017
     EDDAV:  cpu time    2.6169: real time    2.6231
 BZINTS: Fermi energy:  2.908701;144.000000 electrons
         Band energy:***********;  BLOECHL correction:  0.000000
       DOS:  cpu time    0.0081: real time    0.0082
    CHARGE:  cpu time    0.0751: real time    0.0753
    MIXING:  cpu time    0.0028: real time    0.0031
    --------------------------------------------
      LOOP:  cpu time    2.7203: real time    2.7349

 eigenvalue-minimisations  :  7392
 total energy-change (2. order) : 0.4426715E-02  (-0.2125088E+00)
 number of electron     144.0000013 magnetization 
 augmentation part        0.9494041 magnetization 

 Broyden mixing:
  rms(total) = 0.85709E-01    rms(broyden)= 0.85709E-01
  rms(prec ) = 0.15609E+00
  weight for this iteration     100.00

 eigenvalues of (default mixing * dielectric matrix)
  average eigenvalue GAMMA=   1.5937
  2.4075  1.1868  1.1868

 Free energy of the ion-electron system (eV)
  ---------------------------------------------------
  alpha Z        PSCENC =       319.83555916
  Ewald energy   TEWEN  =     -6374.53395873
  -Hartree energ DENC   =     -1659.52021800
  -exchange      EXHF   =         0.00000000
  -V(xc)+E(xc)   XCENC  =       132.05580947
  PAW double counting   =      4598.57298298    -4267.76737057
  entropy T*S    EENTRO =         0.00000000
  eigenvalues    EBANDS =     -1284.77903600
  atomic energy  EATOM  =      8419.80093738
  Solvation  Ediel_sol  =         0.00000000
  ---------------------------------------------------
  free energy    TOTEN  =      -116.33529431 eV

  energy without entropy =     -116.33529431  energy(sigma->0) =     -116.33529431


--------------------------------------------------------------------------------------------------------




--------------------------------------- Iteration      1(   9)  ---------------------------------------


    POTLOK:  cpu time    0.0171: real time    0.0253
    SETDIJ:  cpu time    0.0016: real time    0.0016
     EDDAV:  cpu time    2.6055: real time    2.6119
 BZINTS: Fermi energy:  3.030630;144.000000 electrons
         Band energy:***********;  BLOECHL correction:  0.000000
       DOS:  cpu time    0.0081: real time    0.0081
    CHARGE:  cpu time    0.0751: real time    0.0753
    MIXING:  cpu time    0.0029: real time    0.0030
    --------------------------------------------
      LOOP:  cpu time    2.7102: real time    2.7251

 eigenvalue-minimisations  :  7496
 total energy-change (2. order) : 0.6478256E-01  (-0.5144478E-01)
 number of electron     144.0000013 magnetization 
 augmentation part        0.9556959 magnetization 

 Broyden mixing:
  rms(total) = 0.23131E-01    rms(broyden)= 0.23130E-01
  rms(prec ) = 0.26619E-01
  weight for this iteration     100.00

 eigenvalues of (default mixing * dielectric matrix)
  average eigenvalue GAMMA=   1.6360
  2.1213  2.1213  1.1506  1.1506

 Free energy of the ion-electron system (eV)
  ---------------------------------------------------
  alpha Z        PSCENC =       319.83555916
  Ewald energy   TEWEN  =     -6374.53395873
  -Hartree energ DENC   =     -1658.99813941
  -exchange      EXHF   =         0.00000000
  -V(xc)+E(xc)   XCENC  =       132.35595811
  PAW double counting   =      4609.70996573    -4281.41979030
  entropy T*S    EENTRO =         0.00000000
  eigenvalues    EBANDS =     -1283.02104369
  atomic energy  EATOM  =      8419.80093738
  Solvation  Ediel_sol  =         0.00000000
  ---------------------------------------------------
  free energy    TOTEN  =      -116.27051175 eV

  energy without entropy =     -116.27051175  energy(sigma->0) =     -116.27051175


--------------------------------------------------------------------------------------------------------




--------------------------------------- Iteration      1(  10)  ---------------------------------------


    POTLOK:  cpu time    0.0144: real time    0.0228
    SETDIJ:  cpu time    0.0016: real time    0.0016
     EDDAV:  cpu time    3.0708: real time    3.0783
 BZINTS: Fermi energy:  3.023136;144.000000 electrons
         Band energy:***********;  BLOECHL correction:  0.000000
       DOS:  cpu time    0.0079: real time    0.0079
    CHARGE:  cpu time    0.0752: real time    0.0754
    MIXING:  cpu time    0.0030: real time    0.0030
    --------------------------------------------
      LOOP:  cpu time    3.1729: real time    3.1890

 eigenvalue-minimisations  :  9296
 total energy-change (2. order) :-0.7882044E-02  (-0.7689840E-02)
 number of electron     144.0000013 magnetization 
 augmentation part        0.8949781 magnetization 

 Broyden mixing:
  rms(total) = 0.17338E-01    rms(broyden)= 0.17338E-01
  rms(prec ) = 0.21325E-01
  weight for this iteration     100.00

 eigenvalues of (default mixing * dielectric matrix)
  average eigenvalue GAMMA=   1.6796
  2.7151  2.7151  1.1143  1.1143  0.7392

 Free energy of the ion-electron system (eV)
  ---------------------------------------------------
  alpha Z        PSCENC =       319.83555916
  Ewald energy   TEWEN  =     -6374.53395873
  -Hartree energ DENC   =     -1660.15694934
  -exchange      EXHF   =         0.00000000
  -V(xc)+E(xc)   XCENC  =       132.36729210
  PAW double counting   =      4617.61506595    -4288.06444289
  entropy T*S    EENTRO =         0.00000000
  eigenvalues    EBANDS =     -1283.14189742
  atomic energy  EATOM  =      8419.80093738
  Solvation  Ediel_sol  =         0.00000000
  ---------------------------------------------------
  free energy    TOTEN  =      -116.27839379 eV

  energy without entropy =     -116.27839379  energy(sigma->0) =     -116.27839379


--------------------------------------------------------------------------------------------------------




--------------------------------------- Iteration      1(  11)  ---------------------------------------


    POTLOK:  cpu time    0.0141: real time    0.0229
    SETDIJ:  cpu time    0.0023: real time    0.0023
     EDDAV:  cpu time    2.8852: real time    2.8923
 BZINTS: Fermi energy:  3.019198;144.000000 electrons
         Band energy:***********;  BLOECHL correction:  0.000000
       DOS:  cpu time    0.0079: real time    0.0080
    CHARGE:  cpu time    0.0749: real time    0.0750
    MIXING:  cpu time    0.0030: real time    0.0031
    --------------------------------------------
      LOOP:  cpu time    2.9874: real time    3.0035

 eigenvalue-minimisations  :  8472
 total energy-change (2. order) :-0.1227776E-03  (-0.2176458E-03)
 number of electron     144.0000013 magnetization 
 augmentation part        0.8926958 magnetization 

 Broyden mixing:
  rms(total) = 0.83999E-02    rms(broyden)= 0.83999E-02
  rms(prec ) = 0.11208E-01
  weight for this iteration     100.00

 eigenvalues of (default mixing * dielectric matrix)
  average eigenvalue GAMMA=   1.5595
  2.5739  1.9721  1.6134  1.0249  1.0864  1.0864

 Free energy of the ion-electron system (eV)
  ---------------------------------------------------
  alpha Z        PSCENC =       319.83555916
  Ewald energy   TEWEN  =     -6374.53395873
  -Hartree energ DENC   =     -1661.37919678
  -exchange      EXHF   =         0.00000000
  -V(xc)+E(xc)   XCENC  =       132.43188936
  PAW double counting   =      4624.80354330    -4294.43867979
  entropy T*S    EENTRO =         0.00000000
  eigenvalues    EBANDS =     -1282.79861047
  atomic energy  EATOM  =      8419.80093738
  Solvation  Ediel_sol  =         0.00000000
  ---------------------------------------------------
  free energy    TOTEN  =      -116.27851657 eV

  energy without entropy =     -116.27851657  energy(sigma->0) =     -116.27851657


--------------------------------------------------------------------------------------------------------




--------------------------------------- Iteration      1(  12)  ---------------------------------------


    POTLOK:  cpu time    0.0151: real time    0.0231
    SETDIJ:  cpu time    0.0016: real time    0.0016
     EDDAV:  cpu time    2.6543: real time    2.6608
 BZINTS: Fermi energy:  3.014824;144.000000 electrons
         Band energy:***********;  BLOECHL correction:  0.000000
       DOS:  cpu time    0.0080: real time    0.0080
    CHARGE:  cpu time    0.0747: real time    0.0749
    MIXING:  cpu time    0.0034: real time    0.0034
    --------------------------------------------
      LOOP:  cpu time    2.7570: real time    2.7718

 eigenvalue-minimisations  :  7584
 total energy-change (2. order) : 0.9671000E-04  (-0.5493278E-04)
 number of electron     144.0000013 magnetization 
 augmentation part        0.8918930 magnetization 

 Broyden mixing:
  rms(total) = 0.63575E-02    rms(broyden)= 0.63575E-02
  rms(prec ) = 0.79481E-02
  weight for this iteration     100.00

 eigenvalues of (default mixing * dielectric matrix)
  average eigenvalue GAMMA=   1.5782
  2.5912  2.5912  1.7299  1.1064  1.1064  1.1435  0.7787

 Free energy of the ion-electron system (eV)
  ---------------------------------------------------
  alpha Z        PSCENC =       319.83555916
  Ewald energy   TEWEN  =     -6374.53395873
  -Hartree energ DENC   =     -1661.03123819
  -exchange      EXHF   =         0.00000000
  -V(xc)+E(xc)   XCENC  =       132.46707644
  PAW double counting   =      4625.88718602    -4296.00237711
  entropy T*S    EENTRO =         0.00000000
  eigenvalues    EBANDS =     -1282.70160482
  atomic energy  EATOM  =      8419.80093738
  Solvation  Ediel_sol  =         0.00000000
  ---------------------------------------------------
  free energy    TOTEN  =      -116.27841986 eV

  energy without entropy =     -116.27841986  energy(sigma->0) =     -116.27841986


--------------------------------------------------------------------------------------------------------




--------------------------------------- Iteration      1(  13)  ---------------------------------------


    POTLOK:  cpu time    0.0152: real time    0.0233
    SETDIJ:  cpu time    0.0016: real time    0.0016
     EDDAV:  cpu time    2.7022: real time    2.7086
 BZINTS: Fermi energy:  3.012296;144.000000 electrons
         Band energy:***********;  BLOECHL correction:  0.000000
       DOS:  cpu time    0.0082: real time    0.0082
    CHARGE:  cpu time    0.0754: real time    0.0756
    MIXING:  cpu time    0.0034: real time    0.0035
    --------------------------------------------
      LOOP:  cpu time    2.8061: real time    2.8209

 eigenvalue-minimisations  :  7840
 total energy-change (2. order) : 0.7860760E-04  (-0.2828758E-04)
 number of electron     144.0000013 magnetization 
 augmentation part        0.8923852 magnetization 

 Broyden mixing:
  rms(total) = 0.16418E-02    rms(broyden)= 0.16418E-02
  rms(prec ) = 0.19606E-02
  weight for this iteration     100.00

 eigenvalues of (default mixing * dielectric matrix)
  average eigenvalue GAMMA=   1.5596
  2.6700  2.2333  2.2333  1.1741  1.1741  0.9885  1.0017  1.0017

 Free energy of the ion-electron system (eV)
  ---------------------------------------------------
  alpha Z        PSCENC =       319.83555916
  Ewald energy   TEWEN  =     -6374.53395873
  -Hartree energ DENC   =     -1661.35981936
  -exchange      EXHF   =         0.00000000
  -V(xc)+E(xc)   XCENC  =       132.48017586
  PAW double counting   =      4626.51208697    -4296.42916547
  entropy T*S    EENTRO =         0.00000000
  eigenvalues    EBANDS =     -1282.58415707
  atomic energy  EATOM  =      8419.80093738
  Solvation  Ediel_sol  =         0.00000000
  ---------------------------------------------------
  free energy    TOTEN  =      -116.27834125 eV

  energy without entropy =     -116.27834125  energy(sigma->0) =     -116.27834125


--------------------------------------------------------------------------------------------------------




--------------------------------------- Iteration      1(  14)  ---------------------------------------


    POTLOK:  cpu time    0.0142: real time    0.0228
    SETDIJ:  cpu time    0.0015: real time    0.0015
     EDDAV:  cpu time    2.6305: real time    2.6367
 BZINTS: Fermi energy:  3.010031;144.000000 electrons
         Band energy:***********;  BLOECHL correction:  0.000000
       DOS:  cpu time    0.0083: real time    0.0083
    CHARGE:  cpu time    0.0745: real time    0.0747
    MIXING:  cpu time    0.0034: real time    0.0034
    --------------------------------------------
      LOOP:  cpu time    2.7324: real time    2.7474

 eigenvalue-minimisations  :  7440
 total energy-change (2. order) :-0.2505532E-05  (-0.4594140E-05)
 number of electron     144.0000013 magnetization 
 augmentation part        0.8933508 magnetization 

 Broyden mixing:
  rms(total) = 0.91125E-03    rms(broyden)= 0.91125E-03
  rms(prec ) = 0.11935E-02
  weight for this iteration     100.00

 eigenvalues of (default mixing * dielectric matrix)
  average eigenvalue GAMMA=   1.6260
  2.7517  2.6715  2.0418  2.0418  1.1430  1.1430  0.9690  0.9690  0.9032

 Free energy of the ion-electron system (eV)
  ---------------------------------------------------
  alpha Z        PSCENC =       319.83555916
  Ewald energy   TEWEN  =     -6374.53395873
  -Hartree energ DENC   =     -1661.43102543
  -exchange      EXHF   =         0.00000000
  -V(xc)+E(xc)   XCENC  =       132.48388072
  PAW double counting   =      4626.38787396    -4296.28781026
  entropy T*S    EENTRO =         0.00000000
  eigenvalues    EBANDS =     -1282.53380057
  atomic energy  EATOM  =      8419.80093738
  Solvation  Ediel_sol  =         0.00000000
  ---------------------------------------------------
  free energy    TOTEN  =      -116.27834376 eV

  energy without entropy =     -116.27834376  energy(sigma->0) =     -116.27834376


--------------------------------------------------------------------------------------------------------




--------------------------------------- Iteration      1(  15)  ---------------------------------------


    POTLOK:  cpu time    0.0142: real time    0.0234
    SETDIJ:  cpu time    0.0016: real time    0.0016
     EDDAV:  cpu time    2.4040: real time    2.4097
 BZINTS: Fermi energy:  3.008204;144.000000 electrons
         Band energy:***********;  BLOECHL correction:  0.000000
       DOS:  cpu time    0.0082: real time    0.0082
    CHARGE:  cpu time    0.0764: real time    0.0765
    MIXING:  cpu time    0.0032: real time    0.0032
    --------------------------------------------
      LOOP:  cpu time    2.5076: real time    2.5227

 eigenvalue-minimisations  :  6736
 total energy-change (2. order) : 0.2055725E-05  (-0.2032987E-05)
 number of electron     144.0000013 magnetization 
 augmentation part        0.8939258 magnetization 

 Broyden mixing:
  rms(total) = 0.20506E-03    rms(broyden)= 0.20505E-03
  rms(prec ) = 0.29099E-03
  weight for this iteration     100.00

 eigenvalues of (default mixing * dielectric matrix)
  average eigenvalue GAMMA=   1.6255
  2.8731  2.6241  2.6241  1.9002  1.1294  1.1294  1.0543  1.0543  1.0068  0.8593

 Free energy of the ion-electron system (eV)
  ---------------------------------------------------
  alpha Z        PSCENC =       319.83555916
  Ewald energy   TEWEN  =     -6374.53395873
  -Hartree energ DENC   =     -1661.48433753
  -exchange      EXHF   =         0.00000000
  -V(xc)+E(xc)   XCENC  =       132.48499773
  PAW double counting   =      4626.35715207    -4296.22189170
  entropy T*S    EENTRO =         0.00000000
  eigenvalues    EBANDS =     -1282.51680010
  atomic energy  EATOM  =      8419.80093738
  Solvation  Ediel_sol  =         0.00000000
  ---------------------------------------------------
  free energy    TOTEN  =      -116.27834170 eV

  energy without entropy =     -116.27834170  energy(sigma->0) =     -116.27834170


--------------------------------------------------------------------------------------------------------




--------------------------------------- Iteration      1(  16)  ---------------------------------------


    POTLOK:  cpu time    0.0150: real time    0.0231
    SETDIJ:  cpu time    0.0016: real time    0.0016
     EDDAV:  cpu time    2.3031: real time    2.3086
 BZINTS: Fermi energy:  3.006609;144.000000 electrons
         Band energy:***********;  BLOECHL correction:  0.000000
       DOS:  cpu time    0.0082: real time    0.0082
    --------------------------------------------
      LOOP:  cpu time    2.3279: real time    2.3415

 eigenvalue-minimisations  :  6256
 total energy-change (2. order) :-0.2451852E-06  (-0.4550059E-06)
 number of electron     144.0000013 magnetization 
 augmentation part        0.8939258 magnetization 

 Free energy of the ion-electron system (eV)
  ---------------------------------------------------
  alpha Z        PSCENC =       319.83555916
  Ewald energy   TEWEN  =     -6374.53395873
  -Hartree energ DENC   =     -1661.47880678
  -exchange      EXHF   =         0.00000000
  -V(xc)+E(xc)   XCENC  =       132.48501084
  PAW double counting   =      4626.26953216    -4296.14250044
  entropy T*S    EENTRO =         0.00000000
  eigenvalues    EBANDS =     -1282.51411554
  atomic energy  EATOM  =      8419.80093738
  Solvation  Ediel_sol  =         0.00000000
  ---------------------------------------------------
  free energy    TOTEN  =      -116.27834195 eV

  energy without entropy =     -116.27834195  energy(sigma->0) =     -116.27834195


--------------------------------------------------------------------------------------------------------




 average (electrostatic) potential at core
  the test charge radii are     1.1929  0.9892
  (the norm of the test charge is              1.0000)
       1 -38.3603       2 -38.3603       3 -38.3603       4 -38.3603       5 -38.5224
       6 -38.5224       7 -38.5224       8 -38.5224       9 -87.3650      10 -87.3650
      11 -87.3650      12 -87.3650      13 -87.3650      14 -87.3650      15 -87.3650
      16 -87.3650      17 -87.3897      18 -87.3897      19 -87.3897      20 -87.3897
      21 -87.3197      22 -87.3197      23 -87.3196      24 -87.3196
 
 
 
 E-fermi :   3.0066     XC(G=0):  -8.7453     alpha+bet : -9.2130


 k-point     1 :       0.0000    0.0000    0.0000
  band No.  band energies     occupation 
      1     -32.6333      2.00000
      2     -32.6332      2.00000
      3     -32.6326      2.00000
      4     -32.6326      2.00000
      5     -32.4849      2.00000
      6     -32.4849      2.00000
      7     -32.4837      2.00000
      8     -32.4836      2.00000
      9     -14.7420      2.00000
     10     -14.7397      2.00000
     11     -14.7364      2.00000
     12     -14.7347      2.00000
     13     -14.7208      2.00000
     14     -14.7131      2.00000
     15     -14.7093      2.00000
     16     -14.7056      2.00000
     17     -14.7023      2.00000
     18     -14.7013      2.00000
     19     -14.6911      2.00000
     20     -14.6884      2.00000
     21     -14.6045      2.00000
     22     -14.6022      2.00000
     23     -14.5822      2.00000
     24     -14.5817      2.00000
     25     -14.5754      2.00000
     26     -14.5673      2.00000
     27     -14.5571      2.00000
     28     -14.5570      2.00000
     29     -14.5567      2.00000
     30     -14.5540      2.00000
     31     -14.5524      2.00000
     32     -14.5504      2.00000
     33      -7.8734      2.00000
     34      -7.7285      2.00000
     35      -7.7182      2.00000
     36      -7.6843      2.00000
     37      -3.2795      2.00000
     38      -3.2410      2.00000
     39      -2.9083      2.00000
     40      -2.8997      2.00000
     41      -2.7894      2.00000
     42      -2.7711      2.00000
     43      -2.7602      2.00000
     44      -2.6549      2.00000
     45      -2.6491      2.00000
     46      -2.6450      2.00000
     47      -2.6304      2.00000
     48      -2.3591      2.00000
     49      -0.8412      2.00000
     50       0.2616      2.00000
     51       0.2669      2.00000
     52       0.3812      2.00000
     53       0.7667      2.00000
     54       0.9777      2.00000
     55       1.0864      2.00000
     56       1.2252      2.00000
     57       1.3921      2.00000
     58       1.4428      2.00000
     59       1.4526      2.00000
     60       1.5199      2.00000
     61       1.6027      2.00000
     62       1.6338      2.00000
     63       1.6443      2.00000
     64       1.6730      2.00000
     65       1.6834      2.00000
     66       1.9395      2.00000
     67       1.9423      2.00000
     68       1.9572      2.00000
     69       2.4074      2.00000
     70       2.5144      2.00000
     71       2.6425      2.00000
     72       2.7037      2.00000
     73       3.9581      0.00000
     74       4.0251      0.00000
     75       4.2714      0.00000
     76       4.3825      0.00000
     77       4.4388      0.00000
     78       4.5884      0.00000
     79       4.8259      0.00000
     80       5.0501      0.00000
     81       5.3920      0.00000
     82       5.4130      0.00000
     83       5.4588      0.00000
     84       5.5411      0.00000
     85       5.6412      0.00000
     86       5.6553      0.00000
     87       5.8101      0.00000
     88       5.8314      0.00000

 k-point     2 :       0.2000    0.0000    0.0000
  band No.  band energies     occupation 
      1     -32.6333      2.00000
      2     -32.6332      2.00000
      3     -32.6326      2.00000
      4     -32.6326      2.00000
      5     -32.4848      2.00000
      6     -32.4847      2.00000
      7     -32.4838      2.00000
      8     -32.4837      2.00000
      9     -14.7422      2.00000
     10     -14.7406      2.00000
     11     -14.7358      2.00000
     12     -14.7346      2.00000
     13     -14.7199      2.00000
     14     -14.7137      2.00000
     15     -14.7079      2.00000
     16     -14.7055      2.00000
     17     -14.7028      2.00000
     18     -14.7016      2.00000
     19     -14.6911      2.00000
     20     -14.6888      2.00000
     21     -14.6027      2.00000
     22     -14.5995      2.00000
     23     -14.5850      2.00000
     24     -14.5821      2.00000
     25     -14.5731      2.00000
     26     -14.5665      2.00000
     27     -14.5572      2.00000
     28     -14.5571      2.00000
     29     -14.5562      2.00000
     30     -14.5546      2.00000
     31     -14.5542      2.00000
     32     -14.5531      2.00000
     33      -7.8545      2.00000
     34      -7.7256      2.00000
     35      -7.7170      2.00000
     36      -7.7010      2.00000
     37      -3.2940      2.00000
     38      -3.1988      2.00000
     39      -3.0617      2.00000
     40      -2.8656      2.00000
     41      -2.7625      2.00000
     42      -2.7518      2.00000
     43      -2.6736      2.00000
     44      -2.6654      2.00000
     45      -2.6601      2.00000
     46      -2.6555      2.00000
     47      -2.6256      2.00000
     48      -2.5079      2.00000
     49      -0.6764      2.00000
     50       0.2046      2.00000
     51       0.2195      2.00000
     52       0.4363      2.00000
     53       0.7298      2.00000
     54       1.0321      2.00000
     55       1.1968      2.00000
     56       1.2345      2.00000
     57       1.3325      2.00000
     58       1.3592      2.00000
     59       1.3836      2.00000
     60       1.5240      2.00000
     61       1.6939      2.00000
     62       1.7111      2.00000
     63       1.7123      2.00000
     64       1.7869      2.00000
     65       1.8018      2.00000
     66       1.9537      2.00000
     67       1.9708      2.00000
     68       1.9903      2.00000
     69       2.4010      2.00000
     70       2.5124      2.00000
     71       2.5363      2.00000
     72       2.6901      2.00000
     73       3.9971      0.00000
     74       4.0220      0.00000
     75       4.2837      0.00000
     76       4.4599      0.00000
     77       4.4670      0.00000
     78       4.5208      0.00000
     79       4.5213      0.00000
     80       4.9507      0.00000
     81       4.9874      0.00000
     82       5.2314      0.00000
     83       5.3363      0.00000
     84       5.4077      0.00000
     85       5.5778      0.00000
     86       5.7976      0.00000
     87       5.8417      0.00000
     88       5.9973      0.00000

 k-point     3 :       0.4000    0.0000    0.0000
  band No.  band energies     occupation 
      1     -32.6332      2.00000
      2     -32.6332      2.00000
      3     -32.6326      2.00000
      4     -32.6326      2.00000
      5     -32.4845      2.00000
      6     -32.4844      2.00000
      7     -32.4841      2.00000
      8     -32.4840      2.00000
      9     -14.7423      2.00000
     10     -14.7418      2.00000
     11     -14.7350      2.00000
     12     -14.7347      2.00000
     13     -14.7178      2.00000
     14     -14.7153      2.00000
     15     -14.7049      2.00000
     16     -14.7048      2.00000
     17     -14.7039      2.00000
     18     -14.7026      2.00000
     19     -14.6908      2.00000
     20     -14.6899      2.00000
     21     -14.5975      2.00000
     22     -14.5929      2.00000
     23     -14.5908      2.00000
     24     -14.5860      2.00000
     25     -14.5672      2.00000
     26     -14.5640      2.00000
     27     -14.5598      2.00000
     28     -14.5594      2.00000
     29     -14.5573      2.00000
     30     -14.5572      2.00000
     31     -14.5555      2.00000
     32     -14.5548      2.00000
     33      -7.8056      2.00000
     34      -7.7473      2.00000
     35      -7.7189      2.00000
     36      -7.7160      2.00000
     37      -3.2939      2.00000
     38      -3.2202      2.00000
     39      -3.0624      2.00000
     40      -2.8598      2.00000
     41      -2.7411      2.00000
     42      -2.7338      2.00000
     43      -2.7233      2.00000
     44      -2.6939      2.00000
     45      -2.6869      2.00000
     46      -2.6798      2.00000
     47      -2.6106      2.00000
     48      -2.6075      2.00000
     49      -0.3385      2.00000
     50      -0.0009      2.00000
     51       0.2240      2.00000
     52       0.3605      2.00000
     53       0.8550      2.00000
     54       1.0098      2.00000
     55       1.2480      2.00000
     56       1.2655      2.00000
     57       1.2842      2.00000
     58       1.2860      2.00000
     59       1.4243      2.00000
     60       1.5199      2.00000
     61       1.7828      2.00000
     62       1.8069      2.00000
     63       1.8634      2.00000
     64       1.9409      2.00000
     65       2.0062      2.00000
     66       2.0252      2.00000
     67       2.0921      2.00000
     68       2.1873      2.00000
     69       2.3593      2.00000
     70       2.3706      2.00000
     71       2.3765      2.00000
     72       2.5493      2.00000
     73       4.0000      0.00000
     74       4.0701      0.00000
     75       4.1391      0.00000
     76       4.3865      0.00000
     77       4.3919      0.00000
     78       4.4305      0.00000
     79       4.4725      0.00000
     80       4.6092      0.00000
     81       4.9643      0.00000
     82       5.0309      0.00000
     83       5.1495      0.00000
     84       5.3537      0.00000
     85       5.4076      0.00000
     86       5.5511      0.00000
     87       5.8140      0.00000
     88       5.9502      0.00000

 k-point     4 :       0.0000    0.1667    0.0000
  band No.  band energies     occupation 
      1     -32.6332      2.00000
      2     -32.6331      2.00000
      3     -32.6326      2.00000
      4     -32.6326      2.00000
      5     -32.4849      2.00000
      6     -32.4849      2.00000
      7     -32.4837      2.00000
      8     -32.4836      2.00000
      9     -14.7423      2.00000
     10     -14.7399      2.00000
     11     -14.7366      2.00000
     12     -14.7359      2.00000
     13     -14.7192      2.00000
     14     -14.7157      2.00000
     15     -14.7102      2.00000
     16     -14.7098      2.00000
     17     -14.7026      2.00000
     18     -14.6970      2.00000
     19     -14.6901      2.00000
     20     -14.6895      2.00000
     21     -14.6046      2.00000
     22     -14.6024      2.00000
     23     -14.5822      2.00000
     24     -14.5815      2.00000
     25     -14.5732      2.00000
     26     -14.5666      2.00000
     27     -14.5581      2.00000
     28     -14.5573      2.00000
     29     -14.5564      2.00000
     30     -14.5539      2.00000
     31     -14.5524      2.00000
     32     -14.5507      2.00000
     33      -7.8536      2.00000
     34      -7.7223      2.00000
     35      -7.7187      2.00000
     36      -7.6839      2.00000
     37      -3.2635      2.00000
     38      -3.1952      2.00000
     39      -2.8962      2.00000
     40      -2.8895      2.00000
     41      -2.8312      2.00000
     42      -2.8254      2.00000
     43      -2.7789      2.00000
     44      -2.7766      2.00000
     45      -2.7007      2.00000
     46      -2.6433      2.00000
     47      -2.6270      2.00000
     48      -2.3769      2.00000
     49      -0.5918      2.00000
     50       0.3879      2.00000
     51       0.4095      2.00000
     52       0.5552      2.00000
     53       0.7351      2.00000
     54       0.7453      2.00000
     55       0.9981      2.00000
     56       1.2643      2.00000
     57       1.3833      2.00000
     58       1.4426      2.00000
     59       1.4494      2.00000
     60       1.5075      2.00000
     61       1.5245      2.00000
     62       1.6154      2.00000
     63       1.7074      2.00000
     64       1.7163      2.00000
     65       1.7656      2.00000
     66       1.8088      2.00000
     67       2.0009      2.00000
     68       2.0034      2.00000
     69       2.2529      2.00000
     70       2.3962      2.00000
     71       2.7390      2.00000
     72       2.8635      2.00000
     73       3.8821      0.00000
     74       4.1120      0.00000
     75       4.4928      0.00000
     76       4.5570      0.00000
     77       4.5997      0.00000
     78       4.6645      0.00000
     79       4.7065      0.00000
     80       4.9267      0.00000
     81       5.1318      0.00000
     82       5.3930      0.00000
[...]
     17     -12.6635      2.00000
     18     -12.6635      2.00000
     19     -12.6545      2.00000
     20     -12.6545      2.00000
     21     -12.5289      2.00000
     22     -12.5289      2.00000
     23     -12.4789      2.00000
     24     -12.4789      2.00000
     25     -12.4716      2.00000
     26     -12.4716      2.00000
     27     -12.4521      2.00000
     28     -12.4521      2.00000
     29     -12.4514      2.00000
     30     -12.4514      2.00000
     31     -12.4355      2.00000
     32     -12.4355      2.00000
     33      -6.6415      2.00000
     34      -6.6415      2.00000
     35      -6.5836      2.00000
     36      -6.5836      2.00000
     37      -2.4242      2.00000
     38      -2.4242      2.00000
     39      -1.9912      2.00000
     40      -1.9912      2.00000
     41      -1.7399      2.00000
     42      -1.7399      2.00000
     43      -1.5998      2.00000
     44      -1.5998      2.00000
     45      -1.3821      2.00000
     46      -1.3821      2.00000
     47      -1.2888      2.00000
     48      -1.2888      2.00000
     49       1.1944      2.00000
     50       1.1944      2.00000
     51       1.3932      2.00000
     52       1.3932      2.00000
     53       2.0607      2.00000
     54       2.0607      2.00000
     55       2.1656      2.00000
     56       2.1656      2.00000
     57       2.5083      2.00000
     58       2.5083      2.00000
     59       2.5913      2.00000
     60       2.5913      2.00000
     61       3.0839      2.00000
     62       3.0839      2.00000
     63       3.1182      2.00000
     64       3.1182      2.00000
     65       3.3752      2.00000
     66       3.3752      2.00000
     67       3.4350      2.00000
     68       3.4350      2.00000
     69       3.7679      2.00000
     70       3.7679      2.00000
     71       3.9951      2.00000
     72       3.9951      2.00000
     73       4.9519      0.00000
     74       4.9519      0.00000
     75       5.2184      0.00000
     76       5.2184      0.00000
     77       5.6589      0.00000
     78       5.6589      0.00000
     79       5.8566      0.00000
     80       5.8566      0.00000
     81       6.3788      0.00000
     82       6.3788      0.00000
     83       6.4558      0.00000
     84       6.4558      0.00000
     85       6.9602      0.00000
     86       6.9602      0.00000
     87       7.4128      0.00000
     88       7.4131      0.00000

 k-point    36 :       0.4000    0.5000    0.5000
  band No.  band energies     occupation 
      1     -30.4986      2.00000
      2     -30.4986      2.00000
      3     -30.4985      2.00000
      4     -30.4985      2.00000
      5     -30.2694      2.00000
      6     -30.2694      2.00000
      7     -30.2681      2.00000
      8     -30.2681      2.00000
      9     -12.7390      2.00000
     10     -12.7390      2.00000
     11     -12.7358      2.00000
     12     -12.7358      2.00000
     13     -12.7225      2.00000
     14     -12.7225      2.00000
     15     -12.7209      2.00000
     16     -12.7209      2.00000
     17     -12.6602      2.00000
     18     -12.6602      2.00000
     19     -12.6557      2.00000
     20     -12.6557      2.00000
     21     -12.5086      2.00000
     22     -12.5086      2.00000
     23     -12.4891      2.00000
     24     -12.4891      2.00000
     25     -12.4646      2.00000
     26     -12.4646      2.00000
     27     -12.4538      2.00000
     28     -12.4538      2.00000
     29     -12.4516      2.00000
     30     -12.4516      2.00000
     31     -12.4495      2.00000
     32     -12.4495      2.00000
     33      -6.6145      2.00000
     34      -6.6145      2.00000
     35      -6.5922      2.00000
     36      -6.5922      2.00000
     37      -2.3821      2.00000
     38      -2.3821      2.00000
     39      -2.2374      2.00000
     40      -2.2373      2.00000
     41      -1.6251      2.00000
     42      -1.6251      2.00000
     43      -1.5721      2.00000
     44      -1.5721      2.00000
     45      -1.4074      2.00000
     46      -1.4074      2.00000
     47      -1.3441      2.00000
     48      -1.3441      2.00000
     49       1.3163      2.00000
     50       1.3163      2.00000
     51       1.5227      2.00000
     52       1.5227      2.00000
     53       2.0435      2.00000
     54       2.0436      2.00000
     55       2.2213      2.00000
     56       2.2213      2.00000
     57       2.6693      2.00000
     58       2.6693      2.00000
     59       2.7128      2.00000
     60       2.7128      2.00000
     61       2.9230      2.00000
     62       2.9230      2.00000
     63       2.9890      2.00000
     64       2.9890      2.00000
     65       3.4143      2.00000
     66       3.4143      2.00000
     67       3.4157      2.00000
     68       3.4157      2.00000
     69       3.8765      2.00000
     70       3.8765      2.00000
     71       3.9077      2.00000
     72       3.9077      2.00000
     73       5.0745      0.00000
     74       5.0745      0.00000
     75       5.2965      0.00000
     76       5.2965      0.00000
     77       5.5003      0.00000
     78       5.5003      0.00000
     79       5.6571      0.00000
     80       5.6571      0.00000
     81       6.3847      0.00000
     82       6.3847      0.00000
     83       6.6126      0.00000
     84       6.6126      0.00000
     85       6.9929      0.00000
     86       6.9929      0.00000
     87       7.1684      0.00000
     88       7.1684      0.00000


--------------------------------------------------------------------------------------------------------


 soft charge-density along one line, spin component           1
         0         1         2         3         4         5         6         7         8         9
 total charge-density along one line
 
 pseudopotential strength for first ion, spin component:           1
-12.045  -7.941   0.000   0.001   0.001  -0.000  -0.000  -0.000
 -7.941  -6.303   0.000  -0.003  -0.000  -0.000   0.000   0.000
  0.000   0.000 -14.830   0.000   0.000   0.124  -0.000  -0.000
  0.001  -0.003   0.000 -14.832   0.002  -0.000   0.124  -0.000
  0.001  -0.000   0.000   0.002 -14.831  -0.000  -0.000   0.124
 -0.000  -0.000   0.124  -0.000  -0.000   0.050  -0.000  -0.000
 -0.000   0.000  -0.000   0.124  -0.000  -0.000   0.050  -0.000
 -0.000   0.000  -0.000  -0.000   0.124  -0.000  -0.000   0.050
  0.000   0.000  -0.000   0.000   0.000   0.000  -0.000  -0.000
  0.000   0.000  -0.001   0.000   0.000   0.000  -0.000  -0.000
 -0.000  -0.000  -0.000  -0.000   0.000   0.000   0.000  -0.000
  0.001   0.001   0.000   0.001   0.000  -0.000   0.000   0.000
 -0.000  -0.000  -0.000   0.000   0.000   0.000  -0.000   0.000
  0.000   0.000  -0.000   0.000   0.000   0.000   0.000   0.000
  0.000   0.000  -0.000   0.000   0.000  -0.000  -0.000   0.000
 -0.000  -0.000  -0.000  -0.000   0.000  -0.000   0.000  -0.000
  0.000   0.000   0.000  -0.000  -0.000   0.000  -0.000  -0.000
 -0.000  -0.000  -0.000   0.000  -0.000  -0.000   0.000  -0.000
 total augmentation occupancy for first ion, spin component:           1
  2.168  -0.360  -0.000  -0.006  -0.004   0.000   0.019   0.011   0.000  -0.000   0.003  -0.010  -0.001   0.000   0.000  -0.006
 -0.360   0.754  -0.000   0.012   0.008   0.000  -0.039  -0.016  -0.000   0.000  -0.005   0.019   0.002   0.000  -0.000   0.015
  0.000   0.000   2.014   0.000   0.000   0.076   0.000   0.000  -0.009  -0.004   0.000   0.000   0.000   0.024   0.018   0.000
 -0.006   0.012   0.000   2.012   0.002  -0.000   0.083  -0.007   0.000   0.000   0.002   0.018   0.004   0.000  -0.000   0.009
 -0.004   0.008   0.000   0.002   2.013   0.000  -0.007   0.079  -0.000   0.000   0.010   0.006   0.011   0.000   0.000  -0.025
 -0.000   0.000   0.076   0.000   0.000   0.370   0.000  -0.000   0.029   0.023   0.000   0.000  -0.000  -0.089  -0.081   0.000
  0.019  -0.039   0.000   0.083  -0.007   0.000   0.362   0.014  -0.000   0.000  -0.006  -0.050  -0.019   0.000   0.000   0.022
  0.011  -0.016   0.000  -0.007   0.079   0.000   0.014   0.373   0.000   0.000  -0.030  -0.016  -0.028   0.000  -0.000   0.105
  0.000   0.000  -0.009  -0.000  -0.000   0.029   0.000  -0.000   0.133  -0.047  -0.000   0.000  -0.000  -0.453   0.160   0.000
  0.000  -0.000  -0.004  -0.000   0.000   0.023   0.000  -0.000  -0.047   0.090  -0.000  -0.000   0.000   0.160  -0.302   0.000
  0.003  -0.005   0.000   0.002   0.010   0.000  -0.006  -0.030  -0.000  -0.000   0.115   0.031   0.012  -0.000   0.000  -0.394
 -0.010   0.019   0.000   0.018   0.006   0.000  -0.050  -0.016   0.000   0.000   0.031   0.126   0.029  -0.000   0.000  -0.111
 -0.001   0.002  -0.000   0.004   0.011   0.000  -0.019  -0.028   0.000   0.000   0.012   0.029   0.095  -0.000   0.000  -0.033
  0.000   0.000   0.024   0.000   0.000  -0.089   0.000  -0.000  -0.453   0.160   0.000  -0.000   0.000   1.625  -0.582  -0.000
  0.000  -0.000   0.018  -0.000   0.000  -0.081   0.000  -0.000   0.160  -0.302  -0.000   0.000   0.000  -0.582   1.064  -0.000
 -0.006   0.015   0.000   0.009  -0.025   0.000   0.022   0.105  -0.000   0.000  -0.394  -0.111  -0.033  -0.000   0.000   1.411
  0.019  -0.045   0.000  -0.043  -0.000  -0.000   0.174   0.038   0.000  -0.000  -0.111  -0.424  -0.096   0.000   0.000   0.426
  0.010  -0.026   0.000  -0.008  -0.024  -0.000   0.054   0.083   0.000   0.000  -0.033  -0.096  -0.318   0.000   0.000   0.107


------------------------ aborting loop because EDIFF is reached ----------------------------------------


    CHARGE:  cpu time    0.0768: real time    0.0770
    FORLOC:  cpu time    0.0037: real time    0.0037
    FORNL :  cpu time    0.4267: real time    0.4277
    STRESS:  cpu time    1.2866: real time    1.2897
    FORCOR:  cpu time    0.0097: real time    0.0097
    FORHAR:  cpu time    0.0078: real time    0.0078
    MIXING:  cpu time    0.0029: real time    0.0029
    OFIELD:  cpu time    0.0000: real time    0.0000

  FORCE on cell =-STRESS in cart. coord.  units (eV):
  Direction    XX          YY          ZZ          XY          YZ          ZX
  --------------------------------------------------------------------------------------
  Alpha Z   394.85380   394.85380   394.85380
  Ewald   -2308.61022 -2292.38414 -2289.03972    -0.00000    -0.00000    -0.00013
  Hartree   477.03998   493.39721   487.69415    -0.00000    -0.00000    -0.00000
  E(xc)    -499.11772  -498.91949  -498.89013    -0.00000     0.00000    -0.00000
  Local     214.01140   187.07225   191.16331     0.00000     0.00000     0.00010
  n-local   251.55089   247.22999   248.12227    -0.14119    -0.13582    -0.13768
  augment   -74.69381   -73.43884   -73.72565     0.00000     0.00000    -0.00000
  Kinetic  1544.28979  1542.04143  1538.96094     1.25208    -1.41000     0.34668
  Fock        0.00000     0.00000     0.00000     0.00000     0.00000     0.00000
  -------------------------------------------------------------------------------------
  Total      -0.67589    -0.14779    -0.86102    -0.00000     0.00000     0.00000
  in kB      -1.88699    -0.41259    -2.40384    -0.00000     0.00000     0.00000
  external pressure =       -1.57 kB  Pullay stress =        0.00 kB


 VOLUME and BASIS-vectors are now :
 -----------------------------------------------------------------------------
  energy-cutoff  :      500.00
  volume of cell :      573.88
      direct lattice vectors                 reciprocal lattice vectors
     8.417969268  0.000000000  0.000000000     0.118793496 -0.000000000  0.000000000
     0.000000000  6.306623834  0.000000000    -0.000000000  0.158563445  0.000000000
     0.000000000  0.000000000 10.809745402     0.000000000  0.000000000  0.092509117

  length of vectors
     8.417969268  6.306623834 10.809745402     0.118793496  0.158563445  0.092509117


 FORCES acting on ions
    electron-ion (+dipol)            ewald-force                    non-local-force                 convergence-correction
 -----------------------------------------------------------------------------------------------
   0.231E+01 0.914E-04 0.756E+01   -.261E+01 0.159E-04 -.793E+01   0.382E+00 0.885E-18 0.397E+00   0.785E-03 -.214E-08 0.197E-02
   -.232E+01 0.123E-04 -.756E+01   0.261E+01 -.223E-04 0.793E+01   -.382E+00 0.877E-18 -.397E+00   -.785E-03 0.555E-09 -.197E-02
   -.232E+01 0.715E-05 0.756E+01   0.261E+01 -.223E-04 -.793E+01   -.382E+00 0.465E-18 0.397E+00   -.785E-03 0.732E-09 0.197E-02
   0.231E+01 0.863E-04 -.756E+01   -.261E+01 0.159E-04 0.793E+01   0.382E+00 0.370E-18 -.397E+00   0.785E-03 -.197E-08 -.197E-02
   -.236E+02 0.106E-04 -.539E+01   0.228E+02 -.203E-04 0.558E+01   0.765E+00 -.159E-17 -.176E+00   0.284E-02 0.189E-08 -.569E-04
   0.236E+02 0.886E-04 0.539E+01   -.228E+02 0.194E-04 -.558E+01   -.765E+00 -.170E-17 0.176E+00   -.284E-02 0.703E-09 0.569E-04
   0.236E+02 0.873E-04 -.539E+01   -.228E+02 0.194E-04 0.558E+01   -.765E+00 0.284E-18 -.176E+00   -.284E-02 0.556E-09 -.569E-04
   -.236E+02 0.938E-05 0.539E+01   0.228E+02 -.203E-04 -.558E+01   0.765E+00 -.482E-18 0.176E+00   0.284E-02 0.174E-08 0.569E-04
   0.784E+01 0.241E+02 -.135E+02   -.805E+01 -.248E+02 0.139E+02   0.245E+00 0.698E+00 -.469E+00   -.898E-03 -.284E-02 0.191E-02
   -.784E+01 -.241E+02 0.135E+02   0.805E+01 0.248E+02 -.139E+02   -.245E+00 -.698E+00 0.469E+00   0.898E-03 0.284E-02 -.191E-02
   -.784E+01 -.241E+02 -.135E+02   0.805E+01 0.248E+02 0.139E+02   -.245E+00 -.698E+00 -.469E+00   0.898E-03 0.284E-02 0.191E-02
   0.784E+01 0.241E+02 0.135E+02   -.805E+01 -.248E+02 -.139E+02   0.245E+00 0.698E+00 0.469E+00   -.898E-03 -.284E-02 -.191E-02
   -.784E+01 0.241E+02 0.135E+02   0.805E+01 -.248E+02 -.139E+02   -.245E+00 0.698E+00 0.469E+00   0.898E-03 -.284E-02 -.191E-02
   0.784E+01 -.241E+02 -.135E+02   -.805E+01 0.248E+02 0.139E+02   0.245E+00 -.698E+00 -.469E+00   -.898E-03 0.284E-02 0.191E-02
   0.784E+01 -.241E+02 0.135E+02   -.805E+01 0.248E+02 -.139E+02   0.245E+00 -.698E+00 0.469E+00   -.898E-03 0.284E-02 -.191E-02
   -.784E+01 0.241E+02 -.135E+02   0.805E+01 -.248E+02 0.139E+02   -.245E+00 0.698E+00 -.469E+00   0.898E-03 -.284E-02 0.191E-02
   0.385E+02 -.107E-04 0.863E+00   -.395E+02 -.913E-05 -.193E+01   0.101E+01 -.491E-17 0.113E+01   -.334E-02 0.670E-09 0.141E-03
   -.385E+02 -.260E-05 -.863E+00   0.395E+02 0.926E-05 0.193E+01   -.101E+01 -.908E-18 -.113E+01   0.334E-02 -.766E-09 -.141E-03
   -.385E+02 0.779E-05 0.863E+00   0.395E+02 0.926E-05 -.193E+01   -.101E+01 -.480E-17 0.113E+01   0.334E-02 -.700E-09 0.141E-03
   0.385E+02 -.342E-06 -.863E+00   -.395E+02 -.913E-05 0.193E+01   0.101E+01 0.520E-17 -.113E+01   -.334E-02 0.736E-09 -.141E-03
   0.560E+01 -.507E-05 0.278E+02   -.515E+01 0.996E-05 -.286E+02   -.496E+00 -.295E-17 0.735E+00   -.919E-03 -.850E-09 -.339E-02
   -.560E+01 -.120E-04 -.278E+02   0.515E+01 -.106E-04 0.286E+02   0.496E+00 0.178E-17 -.735E+00   0.919E-03 0.454E-09 0.339E-02
   -.560E+01 0.302E-06 0.278E+02   0.515E+01 -.106E-04 -.286E+02   0.496E+00 0.394E-17 0.735E+00   0.919E-03 0.337E-09 -.339E-02
   0.560E+01 0.727E-05 -.278E+02   -.515E+01 0.996E-05 0.286E+02   -.496E+00 -.500E-17 -.735E+00   -.919E-03 -.967E-09 0.339E-02
 -----------------------------------------------------------------------------------------------
   -.322E-03 0.447E-03 0.533E-04   -.231E-13 0.581E-14 0.711E-14   0.222E-15 -.765E-17 0.000E+00   -.269E-08 -.249E-09 -.551E-08
 
 
 POSITION                                       TOTAL-FORCE (eV/Angst)
 -----------------------------------------------------------------------------------
      0.12621      1.57666      7.48054         0.084953     -0.000000      0.031001
      8.29176      4.72997      3.32921        -0.084953     -0.000000     -0.031001
      4.08278      4.72997      2.07566        -0.084953     -0.000000      0.031001
      4.33519      1.57666      8.73408         0.084953     -0.000000     -0.031001
      1.32694      4.72997      9.79964         0.018421      0.000000      0.007603
      7.09103      1.57666      1.01011        -0.018421     -0.000000     -0.007603
      2.88205      1.57666      4.39476        -0.018421      0.000000      0.007603
      5.53592      4.72997      6.41498         0.018421      0.000000     -0.007603
      1.61228      0.38438      1.62038         0.039917      0.029221     -0.072863
      6.80569      5.92225      9.18936        -0.039917     -0.029221      0.072863
      2.59671      5.92225      7.02526        -0.039917     -0.029221     -0.072863
      5.82126      0.38438      3.78449         0.039917      0.029221      0.072863
      6.80569      3.53769      9.18936        -0.039917      0.029221      0.072863
      1.61228      2.76894      1.62038         0.039917     -0.029221     -0.072863
      5.82126      2.76894      3.78449         0.039917     -0.029221      0.072863
      2.59671      3.53769      7.02526        -0.039917      0.029221     -0.072863
      0.61613      4.72997      6.39364        -0.077988     -0.000000      0.061880
      7.80184      1.57666      4.41610         0.077988      0.000000     -0.061880
      3.59286      1.57666      0.98877         0.077988      0.000000      0.061880
      4.82511      4.72997      9.82098        -0.077988     -0.000000     -0.061880
      1.64554      1.57666     10.36666        -0.051804     -0.000000     -0.044117
      6.77243      4.72997      0.44309         0.051804      0.000000      0.044117
      2.56344      4.72997      4.96178         0.051804      0.000000     -0.044117
      5.85453      1.57666      5.84796        -0.051804     -0.000000      0.044117
 -----------------------------------------------------------------------------------
    total drift:                               -0.000322      0.000447      0.000053


--------------------------------------------------------------------------------------------------------



  FREE ENERGIE OF THE ION-ELECTRON SYSTEM (eV)
  ---------------------------------------------------
  free  energy   TOTEN  =      -119.43133085 eV

  energy  without entropy=     -119.43133085  energy(sigma->0) =     -119.43133085
 
 d Force =-0.2646828E-02[-0.371E-02,-0.159E-02]  d Energy = 0.6144724E-02-0.879E-02
 d Force =-0.4724121E+00[-0.478E+00,-0.467E+00]  d Ewald  = 0.1474532E+02-0.152E+02


--------------------------------------------------------------------------------------------------------


    POTLOK:  cpu time    0.0087: real time    0.0087


--------------------------------------------------------------------------------------------------------




--------------------------------------------------------------------------------------------------------


  
 reached required accuracy - stopping structural energy minimisation
 writing wavefunctions
     LOOP+:  cpu time   34.2520: real time   34.9823
    4ORBIT:  cpu time    0.0000: real time    0.0000
 BZINTS: Fermi energy:  4.558172;144.000000 electrons
         Band energy:***********;  BLOECHL correction:  0.000000

 total amount of memory used by VASP MPI-rank0    68328. kBytes
=======================================================================

   base      :      30000. kBytes
   nonlr-proj:       3136. kBytes
   fftplans  :       2347. kBytes
   grid      :       3658. kBytes
   one-center:         93. kBytes
   wavefun   :      29094. kBytes
 
  
  
 General timing and accounting informations for this job:
 ========================================================
  
                  Total CPU time used (sec):      253.321
                            User time (sec):      251.778
                          System time (sec):        1.543
                         Elapsed time (sec):      258.474
  
                   Maximum memory used (kb):      153396.
                   Average memory used (kb):           0.
  
                          Minor page faults:        25537
                          Major page faults:          288
                 Voluntary context switches:        20976
