 vasp.5.4.4.18Apr17-6-g9f103f2a35 (build Nov 21 2017 15:30:27) complex          
  
 executed on             LinuxIFC date 2020.12.16  20:12:00
 running on   64 total cores
 distrk:  each k-point on   32 cores,    2 groups
 distr:  one band on NCORES_PER_BAND=   4 cores,    8 groups


--------------------------------------------------------------------------------------------------------


 INCAR:
 POTCAR:   PAW_PBE Sr_sv 07Sep2000                
 POTCAR:   PAW_PBE Si 05Jan2001                   

 ----------------------------------------------------------------------------- 
|                                                                             |
|           W    W    AA    RRRRR   N    N  II  N    N   GGGG   !!!           |
|           W    W   A  A   R    R  NN   N  II  NN   N  G    G  !!!           |
|           W    W  A    A  R    R  N N  N  II  N N  N  G       !!!           |
|           W WW W  AAAAAA  RRRRR   N  N N  II  N  N N  G  GGG   !            |
|           WW  WW  A    A  R   R   N   NN  II  N   NN  G    G                |
|           W    W  A    A  R    R  N    N  II  N    N   GGGG   !!!           |
|                                                                             |
|      You have enabled k-point parallelism (KPAR>1).                         |
|      This developmental code was originally  written by Paul Kent at ORNL,  |
|      and carefully double checked in Vienna.                                |
|      GW as well as linear response parallelism added by Martijn Marsman     |
|      and Georg Kresse.                                                      |
|      Carefully verify results versus KPAR=1.                                |
|      Report problems to Paul Kent and Vienna.                               |
|                                                                             |
 ----------------------------------------------------------------------------- 


 ----------------------------------------------------------------------------- 
|                                                                             |
|  ADVICE TO THIS USER RUNNING 'VASP/VAMP'   (HEAR YOUR MASTER'S VOICE ...):  |
|                                                                             |
|      You have switched on vdW-DFT.                                          |
|      This routine was written and supplied by Jiri Klimes.                  |
|      We recommed that you carefully read and cite the following             |
|      publication                                                            |
|      J. Klimes, D.R. Bowler, A. Michelides                                  |
|        J. Phys.: Cond Matt. 22 022201 (2010)                                |
|      J. Klimes, D.R. Bowler, A. Michelides                                  |
|        Phys. Rev. B. 83, 195131 (2011)                                      |
|      and references therein.                                                |
|                                                                             |
 ----------------------------------------------------------------------------- 

 POTCAR:   PAW_PBE Sr_sv 07Sep2000                
   VRHFIN =Sr: 4s4p5s                                                           
   LEXCH  = PE                                                                  
   EATOM  =   842.4562 eV,   61.9188 Ry                                         
                                                                                
   TITEL  = PAW_PBE Sr_sv 07Sep2000                                             
   LULTRA =        F    use ultrasoft PP ?                                      
   IUNSCR =        1    unscreen: 0-lin 1-nonlin 2-no                           
   RPACOR =    2.200    partial core radius                                     
   POMASS =   87.620; ZVAL   =   10.000    mass and valenz                      
   RCORE  =    2.500    outmost cutoff radius                                   
   RWIGS  =    4.040; RWIGS  =    2.138    wigner-seitz radius (au A)           
   ENMAX  =  229.282; ENMIN  =  171.961 eV                                      
   RCLOC  =    2.201    cutoff for local pot                                    
   LCOR   =        T    correct aug charges                                     
   LPAW   =        T    paw PP                                                  
   EAUG   =  366.804                                                            
   DEXC   =     .000                                                            
   RMAX   =    3.045    core radius for proj-oper                               
   RAUG   =    1.300    factor for augmentation sphere                          
   RDEP   =    2.562    radius for radial grids                                 
   QCUT   =   -4.105; QGAM   =    8.210    optimization parameters              
                                                                                
   Description                                                                  
     l     E      TYP  RCUT    TYP  RCUT                                        
     0   .000     23  2.480                                                     
     0   .000     23  2.480                                                     
     1   .000     23  2.500                                                     
     1   .000     23  2.500                                                     
     2   .000     23  2.500                                                     
     2   .000     23  2.500                                                     
  local pseudopotential read in
  partial core-charges read in
  atomic valenz-charges read in
  non local Contribution for L=           0  read in
    real space projection operators read in
  non local Contribution for L=           0  read in
    real space projection operators read in
  non local Contribution for L=           1  read in
    real space projection operators read in
  non local Contribution for L=           1  read in
    real space projection operators read in
  non local Contribution for L=           2  read in
    real space projection operators read in
  non local Contribution for L=           2  read in
    real space projection operators read in
    PAW grid and wavefunctions read in
 
   number of l-projection  operators is LMAX  =           6
   number of lm-projection operators is LMMAX =          18
 
 POTCAR:   PAW_PBE Si 05Jan2001                   
   VRHFIN =Si: s2p2                                                             
   LEXCH  = PE                                                                  
   EATOM  =   103.0669 eV,    7.5752 Ry                                         
                                                                                
   TITEL  = PAW_PBE Si 05Jan2001                                                
   LULTRA =        F    use ultrasoft PP ?                                      
   IUNSCR =        1    unscreen: 0-lin 1-nonlin 2-no                           
   RPACOR =    1.500    partial core radius                                     
   POMASS =   28.085; ZVAL   =    4.000    mass and valenz                      
   RCORE  =    1.900    outmost cutoff radius                                   
   RWIGS  =    2.480; RWIGS  =    1.312    wigner-seitz radius (au A)           
   ENMAX  =  245.345; ENMIN  =  184.009 eV                                      
   ICORE  =        2    local potential                                         
   LCOR   =        T    correct aug charges                                     
   LPAW   =        T    paw PP                                                  
   EAUG   =  322.069                                                            
   DEXC   =    -.007                                                            
   RMAX   =    2.944    core radius for proj-oper                               
   RAUG   =    1.300    factor for augmentation sphere                          
   RDEP   =    1.993    radius for radial grids                                 
   QCUT   =   -4.246; QGAM   =    8.493    optimization parameters              
                                                                                
   Description                                                                  
     l     E      TYP  RCUT    TYP  RCUT                                        
     0   .000     23  1.900                                                     
     0   .000     23  1.900                                                     
     1   .000     23  1.900                                                     
     1   .000     23  1.900                                                     
     2   .000      7  1.900                                                     
  local pseudopotential read in
  partial core-charges read in
  atomic valenz-charges read in
  non local Contribution for L=           0  read in
    real space projection operators read in
  non local Contribution for L=           0  read in
    real space projection operators read in
  non local Contribution for L=           1  read in
    real space projection operators read in
  non local Contribution for L=           1  read in
    real space projection operators read in
    PAW grid and wavefunctions read in
 
   number of l-projection  operators is LMAX  =           4
   number of lm-projection operators is LMMAX =           8
 
 Optimization of the real space projectors (new method)

 maximal supplied QI-value         = 15.12
 optimisation between [QCUT,QGAM] = [ 11.34, 22.83] = [ 36.00,145.93] Ry 
 Optimized for a Real-space Cutoff    1.56 Angstroem

   l    n(q)    QCUT    max X(q) W(low)/X(q) W(high)/X(q)  e(spline) 
   0     11    11.338     6.584    0.15E-04    0.24E-05    0.13E-07
   0     11    11.338    11.383    0.41E-04    0.15E-04    0.15E-06
   1     10    11.338     3.802    0.90E-05    0.33E-06    0.26E-07
   1     10    11.338    39.081    0.19E-03    0.53E-04    0.42E-06
   2     10    11.338     4.950    0.16E-04    0.40E-04    0.77E-07
   2     10    11.338    88.754    0.21E-03    0.41E-03    0.42E-06
 Optimization of the real space projectors (new method)

 maximal supplied QI-value         = 19.84
 optimisation between [QCUT,QGAM] = [ 11.31, 22.82] = [ 35.82,145.81] Ry 
 Optimized for a Real-space Cutoff    1.16 Angstroem

   l    n(q)    QCUT    max X(q) W(low)/X(q) W(high)/X(q)  e(spline) 
   0      8    11.310     8.708    0.14E-04    0.11E-04    0.43E-08
   0      8    11.310   106.241    0.27E-03    0.30E-03    0.38E-07
   1      7    11.310     5.901    0.82E-05    0.48E-04    0.19E-07
   1      7    11.310    73.241    0.27E-03    0.27E-03    0.74E-07

 ----------------------------------------------------------------------------- 
|                                                                             |
|  ADVICE TO THIS USER RUNNING 'VASP/VAMP'   (HEAR YOUR MASTER'S VOICE ...):  |
|                                                                             |
|      You enforced a specific xc-type in the INCAR file,                     |
|      a different type was found on the POTCAR file                          |
|          I HOPE YOU KNOW, WHAT YOU ARE  DOING                               |
|                                                                             |
 ----------------------------------------------------------------------------- 

 PAW_PBE Sr_sv 07Sep2000                :
 energy of atom  1       EATOM= -842.4562
 kinetic energy error for atom=    0.0012 (will be added to EATOM!!)
 PAW_PBE Si 05Jan2001                   :
 energy of atom  2       EATOM= -103.0669
 kinetic energy error for atom=    0.0006 (will be added to EATOM!!)
 
 
 POSCAR: sr8 si16                                
  positions in cartesian coordinates
  No initial velocities read in
 exchange correlation table for  LEXCH =       42
   RHO(1)=    0.500       N(1)  =     2000
   RHO(2)=  100.500       N(2)  =     4000
 


--------------------------------------------------------------------------------------------------------


 ion  position               nearest neighbor table
   1  0.015  0.250  0.691-  24 3.40  18 3.40  13 3.45  10 3.45  16 3.45  11 3.45  21 3.60  17 3.63
                            17 3.63   5 4.41   5 4.41   7 4.42   4 4.71   4 4.71   8 4.80   8 4.80
   2  0.985  0.750  0.309-  23 3.40  17 3.40   9 3.45  14 3.45  12 3.45  15 3.45  22 3.60  18 3.63
                            18 3.63   6 4.41   6 4.41   8 4.42   3 4.71   3 4.71   7 4.80   7 4.80
   3  0.485  0.750  0.191-  22 3.40  20 3.40  12 3.45  15 3.45   9 3.45  14 3.45  23 3.60  19 3.63
                            19 3.63   7 4.41   7 4.41   5 4.42   2 4.71   2 4.71   6 4.80   6 4.80
   4  0.515  0.250  0.809-  21 3.40  19 3.40  16 3.45  11 3.45  13 3.45  10 3.45  24 3.60  20 3.63
                            20 3.63   8 4.41   8 4.41   6 4.42   1 4.71   1 4.71   5 4.80   5 4.80
   5  0.159  0.750  0.907-  10 3.46  13 3.46  21 3.48  21 3.48  11 3.50  16 3.50  22 3.54   9 3.55
                            14 3.55  17 3.71  20 3.82   1 4.41   1 4.41   3 4.42   4 4.80   4 4.80
   6  0.841  0.250  0.093-  14 3.46   9 3.46  22 3.48  22 3.48  15 3.50  12 3.50  21 3.54  13 3.55
                            10 3.55  18 3.71  19 3.82   2 4.41   2 4.41   4 4.42   3 4.80   3 4.80
   7  0.341  0.250  0.407-  15 3.46  12 3.46  23 3.48  23 3.48  14 3.50   9 3.50  24 3.54  16 3.55
                            11 3.55  19 3.71  18 3.82   3 4.41   3 4.41   1 4.42   2 4.80   2 4.80
   8  0.659  0.750  0.593-  11 3.46  16 3.46  24 3.48  24 3.48  10 3.50  13 3.50  23 3.54  12 3.55
                            15 3.55  20 3.71  17 3.82   4 4.41   4 4.41   2 4.42   1 4.80   1 4.80
   9  0.194  0.073  0.147-  14 2.41  21 2.41  19 2.42   2 3.45   3 3.45   6 3.46   7 3.50   5 3.55

  10  0.806  0.927  0.853-  13 2.41  22 2.41  20 2.42   1 3.45   4 3.45   5 3.46   8 3.50   6 3.55

  11  0.306  0.927  0.647-  16 2.41  23 2.41  17 2.42   4 3.45   1 3.45   8 3.46   5 3.50   7 3.55

  12  0.694  0.073  0.353-  15 2.41  24 2.41  18 2.42   3 3.45   2 3.45   7 3.46   6 3.50   8 3.55

  13  0.806  0.573  0.853-  10 2.41  22 2.41  20 2.42   1 3.45   4 3.45   5 3.46   8 3.50   6 3.55

  14  0.194  0.427  0.147-   9 2.41  21 2.41  19 2.42   2 3.45   3 3.45   6 3.46   7 3.50   5 3.55

  15  0.694  0.427  0.353-  12 2.41  24 2.41  18 2.42   3 3.45   2 3.45   7 3.46   6 3.50   8 3.55

  16  0.306  0.573  0.647-  11 2.41  23 2.41  17 2.42   4 3.45   1 3.45   8 3.46   5 3.50   7 3.55

  17  0.083  0.750  0.592-  11 2.42  16 2.42  23 2.45   2 3.40   1 3.63   1 3.63   5 3.71   8 3.82

  18  0.917  0.250  0.408-  15 2.42  12 2.42  24 2.45   1 3.40   2 3.63   2 3.63   6 3.71   7 3.82

  19  0.417  0.250  0.092-  14 2.42   9 2.42  21 2.45   4 3.40   3 3.63   3 3.63   7 3.71   6 3.82

  20  0.583  0.750  0.908-  10 2.42  13 2.42  22 2.45   3 3.40   4 3.63   4 3.63   8 3.71   5 3.82

  21  0.198  0.250  0.967-  14 2.41   9 2.41  19 2.45   4 3.40   5 3.48   5 3.48   6 3.54   1 3.60

  22  0.802  0.750  0.033-  10 2.41  13 2.41  20 2.45   3 3.40   6 3.48   6 3.48   5 3.54   2 3.60

  23  0.302  0.750  0.467-  11 2.41  16 2.41  17 2.45   2 3.40   7 3.48   7 3.48   8 3.54   3 3.60

  24  0.698  0.250  0.533-  15 2.41  12 2.41  18 2.45   1 3.40   8 3.48   8 3.48   7 3.54   4 3.60

 
  LATTYP: Found a simple orthorhombic cell.
 ALAT       =     6.7778496742
 B/A-ratio  =     1.3292516818
 C/A-ratio  =     1.7117734747
  
  Lattice vectors:
  
 A1 = (   0.0000000000,  -6.7778496742,   0.0000000000)
 A2 = (  -9.0094680786,   0.0000000000,   0.0000000000)
 A3 = (   0.0000000000,   0.0000000000, -11.6021432877)


Analysis of symmetry for initial positions (statically):
=====================================================================
 Subroutine PRICEL returns:
 Original cell was already a primitive cell.
 

 Routine SETGRP: Setting up the symmetry group for a 
 simple orthorhombic supercell.


 Subroutine GETGRP returns: Found  8 space group operations
 (whereof  2 operations were pure point group operations)
 out of a pool of  8 trial point group operations.


The static configuration has the point symmetry S_2 .
 The point group associated with its full space group is D_2h.


Analysis of symmetry for dynamics (positions and initial velocities):
=====================================================================
 Subroutine PRICEL returns:
 Original cell was already a primitive cell.
 

 Routine SETGRP: Setting up the symmetry group for a 
 simple orthorhombic supercell.


 Subroutine GETGRP returns: Found  8 space group operations
 (whereof  2 operations were pure point group operations)
 out of a pool of  8 trial point group operations.


The dynamic configuration has the point symmetry S_2 .
 The point group associated with its full space group is D_2h.


 Subroutine INISYM returns: Found  8 space group operations
 (whereof  2 operations are pure point group operations),
 and found     1 'primitive' translations

 
 
 KPOINTS: k-density: 6.0                          

Automatic generation of k-mesh.
Space group operators:
 irot       det(A)        alpha          n_x          n_y          n_z        tau_x        tau_y        tau_z
    1     1.000000     0.000000     1.000000     0.000000     0.000000     0.000000     0.000000     0.000000
    2    -1.000000     0.000000     1.000000     0.000000     0.000000     0.000000     0.000000     0.000000
    3     1.000000   180.000000     0.000000     0.000000     1.000000    -0.500000     0.000000    -0.500000
    4    -1.000000   180.000000     0.000000     0.000000     1.000000    -0.500000     0.000000    -0.500000
    5     1.000000   180.000000     1.000000     0.000000     0.000000    -0.500000    -0.500000    -0.500000
    6    -1.000000   180.000000     1.000000     0.000000     0.000000    -0.500000    -0.500000    -0.500000
    7     1.000000   180.000000     0.000000     1.000000     0.000000    -0.000000    -0.500000    -0.000000
    8    -1.000000   180.000000     0.000000     1.000000     0.000000     0.000000    -0.500000     0.000000
 
 Subroutine IBZKPT returns following result:
 ===========================================
 
 Found     36 irreducible k-points:
 
 Following reciprocal coordinates:
            Coordinates               Weight
  0.000000  0.000000  0.000000      1.000000
  0.200000  0.000000  0.000000      2.000000
  0.400000  0.000000  0.000000      2.000000
  0.000000  0.166667  0.000000      2.000000
  0.200000  0.166667  0.000000      4.000000
  0.400000  0.166667  0.000000      4.000000
  0.000000  0.333333  0.000000      2.000000
  0.200000  0.333333  0.000000      4.000000
  0.400000  0.333333  0.000000      4.000000
  0.000000  0.500000  0.000000      1.000000
  0.200000  0.500000  0.000000      2.000000
  0.400000  0.500000  0.000000      2.000000
  0.000000  0.000000  0.250000      2.000000
  0.200000  0.000000  0.250000      4.000000
  0.400000  0.000000  0.250000      4.000000
  0.000000  0.166667  0.250000      4.000000
  0.200000  0.166667  0.250000      8.000000
  0.400000  0.166667  0.250000      8.000000
  0.000000  0.333333  0.250000      4.000000
  0.200000  0.333333  0.250000      8.000000
  0.400000  0.333333  0.250000      8.000000
  0.000000  0.500000  0.250000      2.000000
  0.200000  0.500000  0.250000      4.000000
  0.400000  0.500000  0.250000      4.000000
  0.000000  0.000000  0.500000      1.000000
  0.200000  0.000000  0.500000      2.000000
  0.400000  0.000000  0.500000      2.000000
  0.000000  0.166667  0.500000      2.000000
  0.200000  0.166667  0.500000      4.000000
  0.400000  0.166667  0.500000      4.000000
  0.000000  0.333333  0.500000      2.000000
  0.200000  0.333333  0.500000      4.000000
  0.400000  0.333333  0.500000      4.000000
  0.000000  0.500000  0.500000      1.000000
  0.200000  0.500000  0.500000      2.000000
  0.400000  0.500000  0.500000      2.000000
 
 Following cartesian coordinates:
            Coordinates               Weight
  0.000000  0.000000  0.000000      1.000000
  0.022199  0.000000  0.000000      2.000000
  0.044398  0.000000  0.000000      2.000000
  0.000000  0.024590  0.000000      2.000000
  0.022199  0.024590  0.000000      4.000000
  0.044398  0.024590  0.000000      4.000000
  0.000000  0.049180  0.000000      2.000000
  0.022199  0.049180  0.000000      4.000000
  0.044398  0.049180  0.000000      4.000000
  0.000000  0.073770  0.000000      1.000000
  0.022199  0.073770  0.000000      2.000000
  0.044398  0.073770  0.000000      2.000000
  0.000000  0.000000  0.021548      2.000000
  0.022199  0.000000  0.021548      4.000000
  0.044398  0.000000  0.021548      4.000000
  0.000000  0.024590  0.021548      4.000000
  0.022199  0.024590  0.021548      8.000000
  0.044398  0.024590  0.021548      8.000000
  0.000000  0.049180  0.021548      4.000000
  0.022199  0.049180  0.021548      8.000000
  0.044398  0.049180  0.021548      8.000000
  0.000000  0.073770  0.021548      2.000000
  0.022199  0.073770  0.021548      4.000000
  0.044398  0.073770  0.021548      4.000000
  0.000000  0.000000  0.043095      1.000000
  0.022199  0.000000  0.043095      2.000000
  0.044398  0.000000  0.043095      2.000000
  0.000000  0.024590  0.043095      2.000000
  0.022199  0.024590  0.043095      4.000000
  0.044398  0.024590  0.043095      4.000000
  0.000000  0.049180  0.043095      2.000000
  0.022199  0.049180  0.043095      4.000000
  0.044398  0.049180  0.043095      4.000000
  0.000000  0.073770  0.043095      1.000000
  0.022199  0.073770  0.043095      2.000000
  0.044398  0.073770  0.043095      2.000000
 
 TETIRR: Found    360 inequivalent tetrahedra from      720


--------------------------------------------------------------------------------------------------------




 Dimension of arrays:
   k-points           NKPTS =     36   k-points in BZ     NKDIM =     36   number of bands    NBANDS=     88
   number of dos      NEDOS =    301   number of ions     NIONS =     24
   non local maximal  LDIM  =      6   non local SUM 2l+1 LMDIM =     18
   total plane-waves  NPLWV = 128000
   max r-space proj   IRMAX =   2946   max aug-charges    IRDMAX=  10792
   dimension x,y,z NGX =    50 NGY =   40 NGZ =   64
   dimension x,y,z NGXF=   100 NGYF=   80 NGZF=  128
   support grid    NGXF=   100 NGYF=   80 NGZF=  128
   ions per type =               8  16
   NGX,Y,Z   is equivalent  to a cutoff of   9.23,  9.81,  9.17 a.u.
   NGXF,Y,Z  is equivalent  to a cutoff of  18.45, 19.62, 18.34 a.u.

 SYSTEM =  unknown system                          
 POSCAR =  sr8 si16                                

 Startparameter for this run:
   NWRITE =      2    write-flag & timer
   PREC   = normal    normal or accurate (medium, high low for compatibility)
   ISTART =      0    job   : 0-new  1-cont  2-samecut
   ICHARG =      2    charge: 1-file 2-atom 10-const
   ISPIN  =      1    spin polarized calculation?
   LNONCOLLINEAR =      F non collinear calculations
   LSORBIT =      F    spin-orbit coupling
   INIWAV =      1    electr: 0-lowe 1-rand  2-diag
   LASPH  =      T    aspherical Exc in radial PAW
   METAGGA=      F    non-selfconsistent MetaGGA calc.

 Electronic Relaxation 1
   ENCUT  =  500.0 eV  36.75 Ry    6.06 a.u.  16.43 12.36 21.15*2*pi/ulx,y,z
   ENINI  =  500.0     initial cutoff
   ENAUG  =  366.8 eV  augmentation charge cutoff
   NELM   =    100;   NELMIN=  2; NELMDL= -5     # of ELM steps 
   EDIFF  = 0.1E-05   stopping-criterion for ELM
   LREAL  =      T    real-space projection
   NLSPLINE    = F    spline interpolate recip. space projectors
   LCOMPAT=      F    compatible to vasp.4.4
   GGA_COMPAT  = T    GGA compatible to vasp.4.4-vasp.4.6
   LMAXPAW     = -100 max onsite density
   LMAXMIX     =    2 max onsite mixed and CHGCAR
   VOSKOWN=      0    Vosko Wilk Nusair interpolation
   ROPT   =   -0.00050  -0.00050
 Ionic relaxation
   EDIFFG = 0.1E-01   stopping-criterion for IOM
   NSW    =    200    number of steps for IOM
   NBLOCK =      1;   KBLOCK =    200    inner block; outer block 
   IBRION =      2    ionic relax: 0-MD 1-quasi-New 2-CG
   NFREE  =      1    steps in history (QN), initial steepest desc. (CG)
   ISIF   =      3    stress and relaxation
   IWAVPR =     11    prediction:  0-non 1-charg 2-wave 3-comb
   ISYM   =      2    0-nonsym 1-usesym 2-fastsym
   LCORR  =      T    Harris-Foulkes like correction to forces

   POTIM  = 0.5000    time-step for ionic-motion
   TEIN   =    0.0    initial temperature
   TEBEG  =    0.0;   TEEND  =   0.0 temperature during run
   SMASS  =  -3.00    Nose mass-parameter (am)
   estimated Nose-frequenzy (Omega)   =  0.10E-29 period in steps =****** mass=  -0.185E-26a.u.
   SCALEE = 1.0000    scale energy and forces
   NPACO  =    256;   APACO  = 16.0  distance and # of slots for P.C.
   PSTRESS=    0.0 pullay stress

  Mass of Ions in am
   POMASS =  87.62 28.09
  Ionic Valenz
   ZVAL   =  10.00  4.00
  Atomic Wigner-Seitz radii
   RWIGS  =  -1.00 -1.00
  virtual crystal weights 
   VCA    =   1.00  1.00
   NELECT =     144.0000    total number of electrons
   NUPDOWN=      -1.0000    fix difference up-down

 DOS related values:
   EMIN   =  10.00;   EMAX   =-10.00  energy-range for DOS
   EFERMI =   0.00
   ISMEAR =    -5;   SIGMA  =   0.01  broadening in eV -4-tet -1-fermi 0-gaus

 Electronic relaxation 2 (details)
   IALGO  =     38    algorithm
   LDIAG  =      T    sub-space diagonalisation (order eigenvalues)
   LSUBROT=      F    optimize rotation matrix (better conditioning)
   TURBO    =      0    0=normal 1=particle mesh
   IRESTART =      0    0=no restart 2=restart with 2 vectors
   NREBOOT  =      0    no. of reboots
   NMIN     =      0    reboot dimension
   EREF     =   0.00    reference energy to select bands
   IMIX   =      4    mixing-type and parameters
     AMIX     =   0.40;   BMIX     =  1.00
     AMIX_MAG =   1.60;   BMIX_MAG =  1.00
     AMIN     =   0.10
     WC   =   100.;   INIMIX=   1;  MIXPRE=   1;  MAXMIX= -45

 Intra band minimization:
   WEIMIN = 0.0010     energy-eigenvalue tresh-hold
   EBREAK =  0.28E-08  absolut break condition
   DEPER  =   0.30     relativ break condition  

   TIME   =   0.40     timestep for ELM

  volume/ion in A,a.u.               =      29.52       199.21
  Fermi-wavevector in a.u.,A,eV,Ry     =   0.962541  1.818939 12.605595  0.926485
  Thomas-Fermi vector in A             =   2.092009
 
 Write flags
   LWAVE        =      T    write WAVECAR
   LDOWNSAMPLE  =      F    k-point downsampling of WAVECAR
   LCHARG       =      T    write CHGCAR
   LVTOT        =      F    write LOCPOT, total local potential
   LVHAR        =      F    write LOCPOT, Hartree potential only
   LELF         =      F    write electronic localiz. function (ELF)
   LORBIT       =      0    0 simple, 1 ext, 2 COOP (PROOUT), +10 PAW based schemes


 Dipole corrections
   LMONO  =      F    monopole corrections only (constant potential shift)
   LDIPOL =      F    correct potential (dipole corrections)
   IDIPOL =      0    1-x, 2-y, 3-z, 4-all directions 
   EPSILON=  1.0000000 bulk dielectric constant

 Exchange correlation treatment:
   GGA     =    BO    GGA type
   LEXCH   =    42    internal setting for exchange type
   VOSKOWN=      0    Vosko Wilk Nusair interpolation
   LHFCALC =     F    Hartree Fock is set to
   LHFONE  =     F    Hartree Fock one center treatment
   AEXX    =    0.0000 exact exchange contribution

 vdW DFT:
   LUSE_VDW   =     T    switch on vdW DFT
   Zab_VDW    =-.8491    correlation parameter
   PARAM1     =0.1833
   PARAM2     =0.2200
   PARAM3     =0.0000
   -- rVV10 --
   BPARAM     = 6.3000
   CPARAM     = 0.0093

 Linear response parameters
   LEPSILON=     F    determine dielectric tensor
   LRPA    =     F    only Hartree local field effects (RPA)
   LNABLA  =     F    use nabla operator in PAW spheres
   LVEL    =     F    velocity operator in full k-point grid
   LINTERFAST=   F  fast interpolation
   KINTER  =     0    interpolate to denser k-point grid
   CSHIFT  =0.1000    complex shift for real part using Kramers Kronig
   OMEGAMAX=  -1.0    maximum frequency
   DEG_THRESHOLD= 0.2000000E-02 threshold for treating states as degnerate
   RTIME   =   -0.100 relaxation time in fs
  (WPLASMAI=    0.000 imaginary part of plasma frequency in eV, 0.658/RTIME)
   DFIELD  = 0.0000000 0.0000000 0.0000000 field for delta impulse in time
 
 Orbital magnetization related:
   ORBITALMAG=     F  switch on orbital magnetization
   LCHIMAG   =     F  perturbation theory with respect to B field
   DQ        =  0.001000  dq finite difference perturbation B field
   LLRAUG    =     F  two centre corrections for induced B field



--------------------------------------------------------------------------------------------------------


 conjugate gradient relaxation of ions
 charge density and potential will be updated during run
 non-spin polarized calculation
 Variant of blocked Davidson
 Davidson routine will perform the subspace rotation
 perform sub-space diagonalisation
    after iterative eigenvector-optimisation
 modified Broyden-mixing scheme, WC =      100.0
 initial mixing is a Kerker type mixing with AMIX =  0.4000 and BMIX =      1.0000
 Hartree-type preconditioning will be used
 using additional bands           16
 real space projection scheme for non local part
 use partial core corrections
 calculate Harris-corrections to forces 
   (improved forces if not selfconsistent)
 use gradient corrections 
 use of overlap-Matrix (Vanderbilt PP)
 Fermi weights with tetrahedron method with Bloechl corrections


--------------------------------------------------------------------------------------------------------


  energy-cutoff  :      500.00
  volume of cell :      708.48
      direct lattice vectors                 reciprocal lattice vectors
     9.009468079  0.000000000  0.000000000     0.110994344  0.000000000  0.000000000
     0.000000000  6.777849674  0.000000000     0.000000000  0.147539419  0.000000000
     0.000000000  0.000000000 11.602143288     0.000000000  0.000000000  0.086190971

  length of vectors
     9.009468079  6.777849674 11.602143288     0.110994344  0.147539419  0.086190971


 
 k-points in units of 2pi/SCALE and weight: k-density: 6.0                          
   0.00000000  0.00000000  0.00000000       0.008
   0.02219887  0.00000000  0.00000000       0.017
   0.04439774  0.00000000  0.00000000       0.017
   0.00000000  0.02458990  0.00000000       0.017
   0.02219887  0.02458990  0.00000000       0.033
   0.04439774  0.02458990  0.00000000       0.033
   0.00000000  0.04917981  0.00000000       0.017
   0.02219887  0.04917981  0.00000000       0.033
   0.04439774  0.04917981  0.00000000       0.033
   0.00000000  0.07376971  0.00000000       0.008
   0.02219887  0.07376971  0.00000000       0.017
   0.04439774  0.07376971  0.00000000       0.017
   0.00000000  0.00000000  0.02154774       0.017
   0.02219887  0.00000000  0.02154774       0.033
   0.04439774  0.00000000  0.02154774       0.033
   0.00000000  0.02458990  0.02154774       0.033
   0.02219887  0.02458990  0.02154774       0.067
   0.04439774  0.02458990  0.02154774       0.067
   0.00000000  0.04917981  0.02154774       0.033
   0.02219887  0.04917981  0.02154774       0.067
   0.04439774  0.04917981  0.02154774       0.067
   0.00000000  0.07376971  0.02154774       0.017
   0.02219887  0.07376971  0.02154774       0.033
   0.04439774  0.07376971  0.02154774       0.033
   0.00000000  0.00000000  0.04309549       0.008
   0.02219887  0.00000000  0.04309549       0.017
   0.04439774  0.00000000  0.04309549       0.017
   0.00000000  0.02458990  0.04309549       0.017
   0.02219887  0.02458990  0.04309549       0.033
   0.04439774  0.02458990  0.04309549       0.033
   0.00000000  0.04917981  0.04309549       0.017
   0.02219887  0.04917981  0.04309549       0.033
   0.04439774  0.04917981  0.04309549       0.033
   0.00000000  0.07376971  0.04309549       0.008
   0.02219887  0.07376971  0.04309549       0.017
   0.04439774  0.07376971  0.04309549       0.017
 
 k-points in reciprocal lattice and weights: k-density: 6.0                          
   0.00000000  0.00000000  0.00000000       0.008
   0.20000000  0.00000000  0.00000000       0.017
   0.40000000  0.00000000  0.00000000       0.017
   0.00000000  0.16666667  0.00000000       0.017
   0.20000000  0.16666667  0.00000000       0.033
   0.40000000  0.16666667  0.00000000       0.033
   0.00000000  0.33333333  0.00000000       0.017
   0.20000000  0.33333333  0.00000000       0.033
   0.40000000  0.33333333  0.00000000       0.033
   0.00000000  0.50000000  0.00000000       0.008
   0.20000000  0.50000000  0.00000000       0.017
   0.40000000  0.50000000  0.00000000       0.017
   0.00000000  0.00000000  0.25000000       0.017
   0.20000000  0.00000000  0.25000000       0.033
   0.40000000  0.00000000  0.25000000       0.033
   0.00000000  0.16666667  0.25000000       0.033
   0.20000000  0.16666667  0.25000000       0.067
   0.40000000  0.16666667  0.25000000       0.067
   0.00000000  0.33333333  0.25000000       0.033
   0.20000000  0.33333333  0.25000000       0.067
   0.40000000  0.33333333  0.25000000       0.067
   0.00000000  0.50000000  0.25000000       0.017
   0.20000000  0.50000000  0.25000000       0.033
   0.40000000  0.50000000  0.25000000       0.033
   0.00000000  0.00000000  0.50000000       0.008
   0.20000000  0.00000000  0.50000000       0.017
   0.40000000  0.00000000  0.50000000       0.017
   0.00000000  0.16666667  0.50000000       0.017
   0.20000000  0.16666667  0.50000000       0.033
   0.40000000  0.16666667  0.50000000       0.033
   0.00000000  0.33333333  0.50000000       0.017
   0.20000000  0.33333333  0.50000000       0.033
   0.40000000  0.33333333  0.50000000       0.033
   0.00000000  0.50000000  0.50000000       0.008
   0.20000000  0.50000000  0.50000000       0.017
   0.40000000  0.50000000  0.50000000       0.017
 
 position of ions in fractional coordinates (direct lattice) 
   0.01517300  0.25000000  0.69130999
   0.98482700  0.75000002  0.30869001
   0.48482700  0.75000002  0.19130993
   0.51517300  0.25000000  0.80869005
   0.15930900  0.75000002  0.90664998
   0.84069100  0.25000000  0.09335000
   0.34069100  0.25000000  0.40665007
   0.65930900  0.75000002  0.59334998
   0.19427001  0.07254100  0.14674400
   0.80572999  0.92745899  0.85325598
   0.30572999  0.92745899  0.64674402
   0.69427001  0.07254100  0.35325598
   0.80572999  0.57254101  0.85325598
   0.19427001  0.42745899  0.14674400
   0.69427001  0.42745899  0.35325598
   0.30572999  0.57254101  0.64674402
   0.08290500  0.75000002  0.59200102
   0.91709498  0.25000000  0.40799898
   0.41709501  0.25000000  0.09200096
   0.58290502  0.75000002  0.90799902
   0.19769400  0.25000000  0.96694000
   0.80230599  0.75000002  0.03306002
   0.30230599  0.75000002  0.46693992
   0.69769401  0.25000000  0.53306000
 
 position of ions in cartesian coordinates  (Angst):
   0.13670066  1.69446242  8.02067757
   8.87276745  5.08338737  3.58146572
   4.36803341  5.08338737  2.21960521
   4.64143467  1.69446242  9.38253784
   1.43528938  5.08338737 10.51908302
   7.57417870  1.69446242  1.08306003
   3.06944466  1.69446242  4.71801233
   5.94002342  5.08338737  6.88413143
   1.75026941  0.49167198  1.70254493
   7.25919867  6.28617763  9.89959812
   2.75446463  6.28617763  7.50361681
   6.25500345  0.49167198  4.09852648
   7.25919867  3.88059688  9.89959812
   1.75026941  2.89725280  1.70254493
   6.25500345  2.89725280  4.09852648
   2.75446463  3.88059688  7.50361681
   0.74692994  5.08338737  6.86848068
   8.26253796  1.69446242  4.73366260
   3.75780416  1.69446242  1.06740832
   5.25166416  5.08338737 10.53473473
   1.78111780  1.69446242 11.21857643
   7.22835016  5.08338737  0.38356703
   2.72361612  5.08338737  5.41750383
   6.28585196  1.69446242  6.18463850
 


--------------------------------------------------------------------------------------------------------


 k-point  1 :   0.0000 0.0000 0.0000  plane waves:   18015
 k-point  2 :   0.2000 0.0000 0.0000  plane waves:   18061
 k-point  3 :   0.4000 0.0000 0.0000  plane waves:   17963
 k-point  4 :   0.0000 0.1667 0.0000  plane waves:   17981
 k-point  5 :   0.2000 0.1667 0.0000  plane waves:   17995
 k-point  6 :   0.4000 0.1667 0.0000  plane waves:   17998
 k-point  7 :   0.0000 0.3333 0.0000  plane waves:   17997
 k-point  8 :   0.2000 0.3333 0.0000  plane waves:   17955
 k-point  9 :   0.4000 0.3333 0.0000  plane waves:   17977
 k-point 10 :   0.0000 0.5000 0.0000  plane waves:   17944
 k-point 11 :   0.2000 0.5000 0.0000  plane waves:   17950
 k-point 12 :   0.4000 0.5000 0.0000  plane waves:   17980
 k-point 13 :   0.0000 0.0000 0.2500  plane waves:   18014
 k-point 14 :   0.2000 0.0000 0.2500  plane waves:   18010
 k-point 15 :   0.4000 0.0000 0.2500  plane waves:   17976
 k-point 16 :   0.0000 0.1667 0.2500  plane waves:   17994
 k-point 17 :   0.2000 0.1667 0.2500  plane waves:   18005
 k-point 18 :   0.4000 0.1667 0.2500  plane waves:   17983
 k-point 19 :   0.0000 0.3333 0.2500  plane waves:   17983
 k-point 20 :   0.2000 0.3333 0.2500  plane waves:   17976
 k-point 21 :   0.4000 0.3333 0.2500  plane waves:   17972
 k-point 22 :   0.0000 0.5000 0.2500  plane waves:   17960
 k-point 23 :   0.2000 0.5000 0.2500  plane waves:   17998
 k-point 24 :   0.4000 0.5000 0.2500  plane waves:   17972
 k-point 25 :   0.0000 0.0000 0.5000  plane waves:   17962
 k-point 26 :   0.2000 0.0000 0.5000  plane waves:   17982
 k-point 27 :   0.4000 0.0000 0.5000  plane waves:   17990
 k-point 28 :   0.0000 0.1667 0.5000  plane waves:   17998
 k-point 29 :   0.2000 0.1667 0.5000  plane waves:   17996
 k-point 30 :   0.4000 0.1667 0.5000  plane waves:   17998
 k-point 31 :   0.0000 0.3333 0.5000  plane waves:   18010
 k-point 32 :   0.2000 0.3333 0.5000  plane waves:   18006
 k-point 33 :   0.4000 0.3333 0.5000  plane waves:   17968
 k-point 34 :   0.0000 0.5000 0.5000  plane waves:   18004
 k-point 35 :   0.2000 0.5000 0.5000  plane waves:   18000
 k-point 36 :   0.4000 0.5000 0.5000  plane waves:   17992

 maximum and minimum number of plane-waves per node :      4533     4466

 maximum number of plane-waves:     18061
 maximum index in each direction: 
   IXMAX=   16   IYMAX=   12   IZMAX=   21
   IXMIN=  -16   IYMIN=  -12   IZMIN=  -21


 real space projection operators:
  total allocation   :       4328.62 KBytes
  max/ min on nodes  :       1126.75       1037.56


 parallel 3D FFT for wavefunctions:
    minimum data exchange during FFTs selected (reduces bandwidth)
 parallel 3D FFT for charge:
    minimum data exchange during FFTs selected (reduces bandwidth)


 total amount of memory used by VASP MPI-rank0    67772. kBytes
=======================================================================

   base      :      30000. kBytes
   nonlr-proj:       2580. kBytes
   fftplans  :       2347. kBytes
   grid      :       3658. kBytes
   one-center:         93. kBytes
   wavefun   :      29094. kBytes
 
     INWAV:  cpu time    0.0001: real time    0.0003
 Broyden mixing: mesh for mixing (old mesh)
   NGX = 33   NGY = 25   NGZ = 43
  (NGX  =100   NGY  = 80   NGZ  =128)
  gives a total of  35475 points

 initial charge density was supplied:
 charge density of overlapping atoms calculated
 number of electron     144.0000000 magnetization 
 keeping initial charge density in first step


--------------------------------------------------------------------------------------------------------


 Maximum index for non-local projection operator          837
 Maximum index for augmentation-charges         1136 (set IRDMAX)


--------------------------------------------------------------------------------------------------------


 First call to EWALD:  gamma=   0.199
 Maximum number of real-space cells 3x 3x 2
 Maximum number of reciprocal cells 3x 2x 3

    FEWALD:  cpu time    0.0502: real time    0.0503


--------------------------------------- Iteration      1(   1)  ---------------------------------------


vdW kernel read from vdw_kernel.bindat
  0.0000  0.2424  0.5071  0.7962  1.1119  1.4567  1.8333  2.2446  2.6937  3.1842
  3.7199  4.3049  4.9438  5.6415  6.4036  7.2358  8.1446  9.1372 10.2212 11.4050
 12.6979 14.1099 15.6519 17.3360 19.1751 21.1837 23.3773 25.7729 28.3892 31.2465
 34.3669 37.7748 41.4965 45.5611 50.0000
 
    POTLOK:  cpu time    1.3234: real time    1.3493
    SETDIJ:  cpu time    0.1097: real time    0.1101
     EDDAV:  cpu time    2.2671: real time    2.2812
 BZINTS: Fermi energy: 10.680308;144.000000 electrons
         Band energy:-398.123369;  BLOECHL correction: -0.057293
       DOS:  cpu time    0.0468: real time    0.0472
    --------------------------------------------
      LOOP:  cpu time    3.7470: real time    3.7878

 eigenvalue-minimisations  :  6360
 total energy-change (2. order) : 0.8048767E+03  (-0.6026166E+04)
 number of electron     144.0000000 magnetization 
 augmentation part      144.0000000 magnetization 

 Free energy of the ion-electron system (eV)
  ---------------------------------------------------
  alpha Z        PSCENC =       332.24841166
  Ewald energy   TEWEN  =     -6374.53395873
  -Hartree energ DENC   =     -1695.20939011
  -exchange      EXHF   =         0.00000000
  -V(xc)+E(xc)   XCENC  =       112.97938963
  PAW double counting   =      4511.78731222    -4102.86604402
  entropy T*S    EENTRO =         0.00000000
  eigenvalues    EBANDS =      -398.12336947
  atomic energy  EATOM  =      8418.59438694
  Solvation  Ediel_sol  =         0.00000000
  ---------------------------------------------------
  free energy    TOTEN  =       804.87673813 eV

  energy without entropy =      804.87673813  energy(sigma->0) =      804.87673813


--------------------------------------------------------------------------------------------------------




--------------------------------------- Iteration      1(   2)  ---------------------------------------


     EDDAV:  cpu time    2.6000: real time    2.6079
 BZINTS: Fermi energy:  3.966624;144.000000 electrons
         Band energy:***********;  BLOECHL correction:  0.000000
       DOS:  cpu time    0.0093: real time    0.0093
    --------------------------------------------
      LOOP:  cpu time    2.6093: real time    2.6172

 eigenvalue-minimisations  :  7568
 total energy-change (2. order) :-0.8250244E+03  (-0.7991543E+03)
 number of electron     144.0000000 magnetization 
 augmentation part      144.0000000 magnetization 

 Free energy of the ion-electron system (eV)
  ---------------------------------------------------
  alpha Z        PSCENC =       332.24841166
  Ewald energy   TEWEN  =     -6374.53395873
  -Hartree energ DENC   =     -1695.20939011
  -exchange      EXHF   =         0.00000000
  -V(xc)+E(xc)   XCENC  =       112.97938963
  PAW double counting   =      4511.78731222    -4102.86604402
  entropy T*S    EENTRO =         0.00000000
  eigenvalues    EBANDS =     -1223.14781536
  atomic energy  EATOM  =      8418.59438694
  Solvation  Ediel_sol  =         0.00000000
  ---------------------------------------------------
  free energy    TOTEN  =       -20.14770776 eV

  energy without entropy =      -20.14770776  energy(sigma->0) =      -20.14770776


--------------------------------------------------------------------------------------------------------




--------------------------------------- Iteration      1(   3)  ---------------------------------------


     EDDAV:  cpu time    2.7757: real time    2.7840
 BZINTS: Fermi energy:  2.324074;144.000000 electrons
         Band energy:***********;  BLOECHL correction:  0.000000
       DOS:  cpu time    0.0078: real time    0.0078
    --------------------------------------------
      LOOP:  cpu time    2.7835: real time    2.7918

 eigenvalue-minimisations  :  8248
 total energy-change (2. order) :-0.7553298E+02  (-0.7501202E+02)
 number of electron     144.0000000 magnetization 
 augmentation part      144.0000000 magnetization 

 Free energy of the ion-electron system (eV)
  ---------------------------------------------------
  alpha Z        PSCENC =       332.24841166
  Ewald energy   TEWEN  =     -6374.53395873
  -Hartree energ DENC   =     -1695.20939011
  -exchange      EXHF   =         0.00000000
  -V(xc)+E(xc)   XCENC  =       112.97938963
  PAW double counting   =      4511.78731222    -4102.86604402
  entropy T*S    EENTRO =         0.00000000
  eigenvalues    EBANDS =     -1298.68079654
  atomic energy  EATOM  =      8418.59438694
  Solvation  Ediel_sol  =         0.00000000
  ---------------------------------------------------
  free energy    TOTEN  =       -95.68068894 eV

  energy without entropy =      -95.68068894  energy(sigma->0) =      -95.68068894


--------------------------------------------------------------------------------------------------------




--------------------------------------- Iteration      1(   4)  ---------------------------------------


     EDDAV:  cpu time    3.3514: real time    3.3608
 BZINTS: Fermi energy:  2.321577;144.000000 electrons
         Band energy:***********;  BLOECHL correction:  0.000000
       DOS:  cpu time    0.0078: real time    0.0079
    --------------------------------------------
      LOOP:  cpu time    3.3592: real time    3.3686

 eigenvalue-minimisations  : 10448
 total energy-change (2. order) :-0.4096713E+01  (-0.4085100E+01)
 number of electron     144.0000000 magnetization 
 augmentation part      144.0000000 magnetization 

 Free energy of the ion-electron system (eV)
  ---------------------------------------------------
  alpha Z        PSCENC =       332.24841166
  Ewald energy   TEWEN  =     -6374.53395873
  -Hartree energ DENC   =     -1695.20939011
  -exchange      EXHF   =         0.00000000
  -V(xc)+E(xc)   XCENC  =       112.97938963
  PAW double counting   =      4511.78731222    -4102.86604402
  entropy T*S    EENTRO =         0.00000000
  eigenvalues    EBANDS =     -1302.77750938
  atomic energy  EATOM  =      8418.59438694
  Solvation  Ediel_sol  =         0.00000000
  ---------------------------------------------------
  free energy    TOTEN  =       -99.77740178 eV

  energy without entropy =      -99.77740178  energy(sigma->0) =      -99.77740178


--------------------------------------------------------------------------------------------------------




--------------------------------------- Iteration      1(   5)  ---------------------------------------


     EDDAV:  cpu time    3.0067: real time    3.0152
 BZINTS: Fermi energy:  2.229582;144.000000 electrons
         Band energy:***********;  BLOECHL correction:  0.000000
       DOS:  cpu time    0.0077: real time    0.0077
    CHARGE:  cpu time    0.0809: real time    0.0814
    MIXING:  cpu time    0.0039: real time    0.0044
    --------------------------------------------
      LOOP:  cpu time    3.0993: real time    3.1087

 eigenvalue-minimisations  :  9120
 total energy-change (2. order) :-0.2773341E+00  (-0.2772793E+00)
 number of electron     144.0000014 magnetization 
 augmentation part        0.3900970 magnetization 

 Broyden mixing:
  rms(total) = 0.10857E+01    rms(broyden)= 0.10857E+01
  rms(prec ) = 0.16296E+01
  weight for this iteration     100.00

 Free energy of the ion-electron system (eV)
  ---------------------------------------------------
  alpha Z        PSCENC =       332.24841166
  Ewald energy   TEWEN  =     -6374.53395873
  -Hartree energ DENC   =     -1695.20939011
  -exchange      EXHF   =         0.00000000
  -V(xc)+E(xc)   XCENC  =       112.97938963
  PAW double counting   =      4511.78731222    -4102.86604402
  entropy T*S    EENTRO =         0.00000000
  eigenvalues    EBANDS =     -1303.05484348
  atomic energy  EATOM  =      8418.59438694
  Solvation  Ediel_sol  =         0.00000000
  ---------------------------------------------------
  free energy    TOTEN  =      -100.05473589 eV

  energy without entropy =     -100.05473589  energy(sigma->0) =     -100.05473589


--------------------------------------------------------------------------------------------------------




--------------------------------------- Iteration      1(   6)  ---------------------------------------


    POTLOK:  cpu time    0.9518: real time    0.9554
    SETDIJ:  cpu time    0.0647: real time    0.0649
     EDDAV:  cpu time    2.4559: real time    2.4618
 BZINTS: Fermi energy:  2.830988;144.000000 electrons
         Band energy:***********;  BLOECHL correction:  0.000000
       DOS:  cpu time    0.0077: real time    0.0077
    CHARGE:  cpu time    0.0789: real time    0.0791
    MIXING:  cpu time    0.0036: real time    0.0036
    --------------------------------------------
      LOOP:  cpu time    3.5627: real time    3.5725

 eigenvalue-minimisations  :  7128
 total energy-change (2. order) : 0.5338024E+01  (-0.1574555E+01)
 number of electron     144.0000013 magnetization 
 augmentation part        0.6028883 magnetization 

 Broyden mixing:
  rms(total) = 0.57625E+00    rms(broyden)= 0.57625E+00
  rms(prec ) = 0.72650E+00
  weight for this iteration     100.00

 eigenvalues of (default mixing * dielectric matrix)
  average eigenvalue GAMMA=   1.8242
  1.8242

 Free energy of the ion-electron system (eV)
  ---------------------------------------------------
  alpha Z        PSCENC =       332.24841166
  Ewald energy   TEWEN  =     -6374.53395873
  -Hartree energ DENC   =     -1688.15571948
  -exchange      EXHF   =         0.00000000
  -V(xc)+E(xc)   XCENC  =       114.52458050
  PAW double counting   =      4515.61834774    -4126.44722069
  entropy T*S    EENTRO =         0.00000000
  eigenvalues    EBANDS =     -1286.56553949
  atomic energy  EATOM  =      8418.59438694
  Solvation  Ediel_sol  =         0.00000000
  ---------------------------------------------------
  free energy    TOTEN  =       -94.71671154 eV

  energy without entropy =      -94.71671154  energy(sigma->0) =      -94.71671154


--------------------------------------------------------------------------------------------------------




--------------------------------------- Iteration      1(   7)  ---------------------------------------


    POTLOK:  cpu time    0.9166: real time    0.9201
    SETDIJ:  cpu time    0.1037: real time    0.1040
     EDDAV:  cpu time    2.8848: real time    2.8917
 BZINTS: Fermi energy:  3.066724;144.000000 electrons
         Band energy:***********;  BLOECHL correction:  0.000000
       DOS:  cpu time    0.0078: real time    0.0078
    CHARGE:  cpu time    0.0785: real time    0.0786
    MIXING:  cpu time    0.0031: real time    0.0033
    --------------------------------------------
      LOOP:  cpu time    3.9945: real time    4.0055

 eigenvalue-minimisations  :  8728
 total energy-change (2. order) : 0.3126329E-01  (-0.6595446E+00)
 number of electron     144.0000013 magnetization 
 augmentation part        0.5163381 magnetization 

 Broyden mixing:
  rms(total) = 0.22547E+00    rms(broyden)= 0.22547E+00
  rms(prec ) = 0.28749E+00
  weight for this iteration     100.00

 eigenvalues of (default mixing * dielectric matrix)
  average eigenvalue GAMMA=   1.7938
  1.7938  1.7938

 Free energy of the ion-electron system (eV)
  ---------------------------------------------------
  alpha Z        PSCENC =       332.24841166
  Ewald energy   TEWEN  =     -6374.53395873
  -Hartree energ DENC   =     -1673.94131480
  -exchange      EXHF   =         0.00000000
  -V(xc)+E(xc)   XCENC  =       115.32673147
  PAW double counting   =      4539.22759537    -4166.46461622
  entropy T*S    EENTRO =         0.00000000
  eigenvalues    EBANDS =     -1285.14268394
  atomic energy  EATOM  =      8418.59438694
  Solvation  Ediel_sol  =         0.00000000
  ---------------------------------------------------
  free energy    TOTEN  =       -94.68544825 eV

  energy without entropy =      -94.68544825  energy(sigma->0) =      -94.68544825


--------------------------------------------------------------------------------------------------------




--------------------------------------- Iteration      1(   8)  ---------------------------------------


    POTLOK:  cpu time    0.9124: real time    0.9160
    SETDIJ:  cpu time    0.1059: real time    0.1062
     EDDAV:  cpu time    2.6033: real time    2.6095
 BZINTS: Fermi energy:  2.942476;144.000000 electrons
         Band energy:***********;  BLOECHL correction:  0.000000
       DOS:  cpu time    0.0065: real time    0.0066
    CHARGE:  cpu time    0.0790: real time    0.0791
    MIXING:  cpu time    0.0031: real time    0.0033
    --------------------------------------------
      LOOP:  cpu time    3.7101: real time    3.7207

 eigenvalue-minimisations  :  7672
 total energy-change (2. order) :-0.7418319E-01  (-0.1990289E+00)
 number of electron     144.0000013 magnetization 
 augmentation part        0.3464184 magnetization 

 Broyden mixing:
  rms(total) = 0.85511E-01    rms(broyden)= 0.85511E-01
  rms(prec ) = 0.15553E+00
  weight for this iteration     100.00

 eigenvalues of (default mixing * dielectric matrix)
  average eigenvalue GAMMA=   1.6294
  2.4758  1.2063  1.2063

 Free energy of the ion-electron system (eV)
  ---------------------------------------------------
  alpha Z        PSCENC =       332.24841166
  Ewald energy   TEWEN  =     -6374.53395873
  -Hartree energ DENC   =     -1665.32099112
  -exchange      EXHF   =         0.00000000
  -V(xc)+E(xc)   XCENC  =       115.38831068
  PAW double counting   =      4586.72415307    -4218.73128912
  entropy T*S    EENTRO =         0.00000000
  eigenvalues    EBANDS =     -1289.12865484
  atomic energy  EATOM  =      8418.59438694
  Solvation  Ediel_sol  =         0.00000000
  ---------------------------------------------------
  free energy    TOTEN  =       -94.75963144 eV

  energy without entropy =      -94.75963144  energy(sigma->0) =      -94.75963144


--------------------------------------------------------------------------------------------------------




--------------------------------------- Iteration      1(   9)  ---------------------------------------


    POTLOK:  cpu time    0.9138: real time    0.9174
    SETDIJ:  cpu time    0.1221: real time    0.1224
     EDDAV:  cpu time    2.4315: real time    2.4373
 BZINTS: Fermi energy:  3.159848;144.000000 electrons
         Band energy:***********;  BLOECHL correction:  0.000000
       DOS:  cpu time    0.0092: real time    0.0092
    CHARGE:  cpu time    0.0809: real time    0.0811
    MIXING:  cpu time    0.0030: real time    0.0030
    --------------------------------------------
      LOOP:  cpu time    3.5604: real time    3.5703

 eigenvalue-minimisations  :  7080
 total energy-change (2. order) : 0.5450872E-01  (-0.5210382E-01)
 number of electron     144.0000013 magnetization 
 augmentation part        0.3646242 magnetization 

 Broyden mixing:
  rms(total) = 0.25207E-01    rms(broyden)= 0.25207E-01
  rms(prec ) = 0.29675E-01
  weight for this iteration     100.00

 eigenvalues of (default mixing * dielectric matrix)
  average eigenvalue GAMMA=   1.6889
  2.2198  2.2198  1.1580  1.1580

 Free energy of the ion-electron system (eV)
  ---------------------------------------------------
  alpha Z        PSCENC =       332.24841166
  Ewald energy   TEWEN  =     -6374.53395873
  -Hartree energ DENC   =     -1665.28044837
  -exchange      EXHF   =         0.00000000
  -V(xc)+E(xc)   XCENC  =       115.77460246
  PAW double counting   =      4597.68098041    -4232.17510234
  entropy T*S    EENTRO =         0.00000000
  eigenvalues    EBANDS =     -1287.01399474
  atomic energy  EATOM  =      8418.59438694
  Solvation  Ediel_sol  =         0.00000000
  ---------------------------------------------------
  free energy    TOTEN  =       -94.70512272 eV

  energy without entropy =      -94.70512272  energy(sigma->0) =      -94.70512272


--------------------------------------------------------------------------------------------------------




--------------------------------------- Iteration      1(  10)  ---------------------------------------


    POTLOK:  cpu time    0.9107: real time    0.9143
    SETDIJ:  cpu time    0.1061: real time    0.1063
     EDDAV:  cpu time    3.0546: real time    3.0618
 BZINTS: Fermi energy:  3.148327;144.000000 electrons
         Band energy:***********;  BLOECHL correction:  0.000000
       DOS:  cpu time    0.0089: real time    0.0089
    CHARGE:  cpu time    0.0788: real time    0.0790
    MIXING:  cpu time    0.0031: real time    0.0032
    --------------------------------------------
      LOOP:  cpu time    4.1622: real time    4.1735

 eigenvalue-minimisations  :  9384
 total energy-change (2. order) :-0.9181971E-02  (-0.8072725E-02)
 number of electron     144.0000013 magnetization 
 augmentation part        0.3010285 magnetization 

 Broyden mixing:
  rms(total) = 0.19286E-01    rms(broyden)= 0.19286E-01
  rms(prec ) = 0.23646E-01
  weight for this iteration     100.00

 eigenvalues of (default mixing * dielectric matrix)
  average eigenvalue GAMMA=   1.7015
  2.7681  2.7681  1.1162  1.1162  0.7388

 Free energy of the ion-electron system (eV)
  ---------------------------------------------------
  alpha Z        PSCENC =       332.24841166
  Ewald energy   TEWEN  =     -6374.53395873
  -Hartree energ DENC   =     -1666.30387675
  -exchange      EXHF   =         0.00000000
  -V(xc)+E(xc)   XCENC  =       115.76875892
  PAW double counting   =      4604.91178095    -4238.10983154
  entropy T*S    EENTRO =         0.00000000
  eigenvalues    EBANDS =     -1287.28997615
  atomic energy  EATOM  =      8418.59438694
  Solvation  Ediel_sol  =         0.00000000
  ---------------------------------------------------
  free energy    TOTEN  =       -94.71430469 eV

  energy without entropy =      -94.71430469  energy(sigma->0) =      -94.71430469


--------------------------------------------------------------------------------------------------------




--------------------------------------- Iteration      1(  11)  ---------------------------------------


    POTLOK:  cpu time    0.9471: real time    0.9508
    SETDIJ:  cpu time    0.0695: real time    0.0697
     EDDAV:  cpu time    2.7376: real time    2.7441
 BZINTS: Fermi energy:  3.141042;144.000000 electrons
         Band energy:***********;  BLOECHL correction:  0.000000
       DOS:  cpu time    0.0091: real time    0.0092
    CHARGE:  cpu time    0.0793: real time    0.0795
    MIXING:  cpu time    0.0031: real time    0.0031
    --------------------------------------------
      LOOP:  cpu time    3.8458: real time    3.8564

 eigenvalue-minimisations  :  8224
 total energy-change (2. order) :-0.1141109E-02  (-0.2753327E-03)
 number of electron     144.0000013 magnetization 
 augmentation part        0.3000383 magnetization 

 Broyden mixing:
  rms(total) = 0.95912E-02    rms(broyden)= 0.95912E-02
  rms(prec ) = 0.13665E-01
  weight for this iteration     100.00

 eigenvalues of (default mixing * dielectric matrix)
  average eigenvalue GAMMA=   1.6184
  2.8455  1.9596  1.6886  1.1136  1.1136  0.9897

 Free energy of the ion-electron system (eV)
  ---------------------------------------------------
  alpha Z        PSCENC =       332.24841166
  Ewald energy   TEWEN  =     -6374.53395873
  -Hartree energ DENC   =     -1667.44368884
  -exchange      EXHF   =         0.00000000
  -V(xc)+E(xc)   XCENC  =       115.83020149
  PAW double counting   =      4610.42972198    -4242.90213556
  entropy T*S    EENTRO =         0.00000000
  eigenvalues    EBANDS =     -1286.93838475
  atomic energy  EATOM  =      8418.59438694
  Solvation  Ediel_sol  =         0.00000000
  ---------------------------------------------------
  free energy    TOTEN  =       -94.71544580 eV

  energy without entropy =      -94.71544580  energy(sigma->0) =      -94.71544580


--------------------------------------------------------------------------------------------------------




--------------------------------------- Iteration      1(  12)  ---------------------------------------


    POTLOK:  cpu time    0.9557: real time    0.9595
    SETDIJ:  cpu time    0.0614: real time    0.0616
     EDDAV:  cpu time    2.4867: real time    2.4925
 BZINTS: Fermi energy:  3.135287;144.000000 electrons
         Band energy:***********;  BLOECHL correction:  0.000000
       DOS:  cpu time    0.0089: real time    0.0089
    CHARGE:  cpu time    0.0786: real time    0.0788
    MIXING:  cpu time    0.0032: real time    0.0032
    --------------------------------------------
      LOOP:  cpu time    3.5945: real time    3.6045

 eigenvalue-minimisations  :  7280
 total energy-change (2. order) : 0.2444046E-04  (-0.1212521E-03)
 number of electron     144.0000013 magnetization 
 augmentation part        0.2983699 magnetization 

 Broyden mixing:
  rms(total) = 0.65864E-02    rms(broyden)= 0.65864E-02
  rms(prec ) = 0.78468E-02
  weight for this iteration     100.00

 eigenvalues of (default mixing * dielectric matrix)
  average eigenvalue GAMMA=   1.6656
  3.0936  2.5906  1.7697  1.1302  1.1302  1.1375  0.8076

 Free energy of the ion-electron system (eV)
  ---------------------------------------------------
  alpha Z        PSCENC =       332.24841166
  Ewald energy   TEWEN  =     -6374.53395873
  -Hartree energ DENC   =     -1667.38880937
  -exchange      EXHF   =         0.00000000
  -V(xc)+E(xc)   XCENC  =       115.87803057
  PAW double counting   =      4611.91839988    -4244.70845432
  entropy T*S    EENTRO =         0.00000000
  eigenvalues    EBANDS =     -1286.72342799
  atomic energy  EATOM  =      8418.59438694
  Solvation  Ediel_sol  =         0.00000000
  ---------------------------------------------------
  free energy    TOTEN  =       -94.71542136 eV

  energy without entropy =      -94.71542136  energy(sigma->0) =      -94.71542136


--------------------------------------------------------------------------------------------------------




--------------------------------------- Iteration      1(  13)  ---------------------------------------


    POTLOK:  cpu time    0.9104: real time    0.9139
    SETDIJ:  cpu time    0.1084: real time    0.1086
     EDDAV:  cpu time    2.7759: real time    2.7825
 BZINTS: Fermi energy:  3.130978;144.000000 electrons
         Band energy:***********;  BLOECHL correction:  0.000000
       DOS:  cpu time    0.0092: real time    0.0093
    CHARGE:  cpu time    0.0783: real time    0.0784
    MIXING:  cpu time    0.0032: real time    0.0033
    --------------------------------------------
      LOOP:  cpu time    3.8854: real time    3.8960

 eigenvalue-minimisations  :  8384
 total energy-change (2. order) : 0.1015306E-04  (-0.4866534E-04)
 number of electron     144.0000013 magnetization 
 augmentation part        0.2999346 magnetization 

 Broyden mixing:
  rms(total) = 0.75658E-03    rms(broyden)= 0.75656E-03
  rms(prec ) = 0.96107E-03
  weight for this iteration     100.00

 eigenvalues of (default mixing * dielectric matrix)
  average eigenvalue GAMMA=   1.6256
  3.0868  2.1804  2.1804  1.1686  1.1686  1.1737  1.1737  0.8722

 Free energy of the ion-electron system (eV)
  ---------------------------------------------------
  alpha Z        PSCENC =       332.24841166
  Ewald energy   TEWEN  =     -6374.53395873
  -Hartree energ DENC   =     -1667.82878035
  -exchange      EXHF   =         0.00000000
  -V(xc)+E(xc)   XCENC  =       115.89368594
  PAW double counting   =      4612.29266192    -4244.82953922
  entropy T*S    EENTRO =         0.00000000
  eigenvalues    EBANDS =     -1286.55227937
  atomic energy  EATOM  =      8418.59438694
  Solvation  Ediel_sol  =         0.00000000
  ---------------------------------------------------
  free energy    TOTEN  =       -94.71541121 eV

  energy without entropy =      -94.71541121  energy(sigma->0) =      -94.71541121


--------------------------------------------------------------------------------------------------------




--------------------------------------- Iteration      1(  14)  ---------------------------------------


    POTLOK:  cpu time    0.9093: real time    0.9129
    SETDIJ:  cpu time    0.1075: real time    0.1077
     EDDAV:  cpu time    2.7281: real time    2.7346
 BZINTS: Fermi energy:  3.126833;144.000000 electrons
         Band energy:***********;  BLOECHL correction:  0.000000
       DOS:  cpu time    0.0089: real time    0.0089
    CHARGE:  cpu time    0.0785: real time    0.0787
    MIXING:  cpu time    0.0033: real time    0.0033
    --------------------------------------------
      LOOP:  cpu time    3.8356: real time    3.8461

 eigenvalue-minimisations  :  8088
 total energy-change (2. order) :-0.5672491E-05  (-0.4546680E-05)
 number of electron     144.0000013 magnetization 
 augmentation part        0.3012037 magnetization 

 Broyden mixing:
  rms(total) = 0.42581E-03    rms(broyden)= 0.42581E-03
  rms(prec ) = 0.55550E-03
  weight for this iteration     100.00

 eigenvalues of (default mixing * dielectric matrix)
  average eigenvalue GAMMA=   1.6803
  3.1311  2.5372  2.5372  1.7385  1.1546  1.1546  1.0674  0.9260  0.8762

 Free energy of the ion-electron system (eV)
  ---------------------------------------------------
  alpha Z        PSCENC =       332.24841166
  Ewald energy   TEWEN  =     -6374.53395873
  -Hartree energ DENC   =     -1667.83825549
  -exchange      EXHF   =         0.00000000
  -V(xc)+E(xc)   XCENC  =       115.89434843
  PAW double counting   =      4612.04556485    -4244.59490389
  entropy T*S    EENTRO =         0.00000000
  eigenvalues    EBANDS =     -1286.53101065
  atomic energy  EATOM  =      8418.59438694
  Solvation  Ediel_sol  =         0.00000000
  ---------------------------------------------------
  free energy    TOTEN  =       -94.71541688 eV

  energy without entropy =      -94.71541688  energy(sigma->0) =      -94.71541688


--------------------------------------------------------------------------------------------------------




--------------------------------------- Iteration      1(  15)  ---------------------------------------


    POTLOK:  cpu time    0.9103: real time    0.9137
    SETDIJ:  cpu time    0.1043: real time    0.1045
     EDDAV:  cpu time    2.3080: real time    2.3135
 BZINTS: Fermi energy:  3.123624;144.000000 electrons
         Band energy:***********;  BLOECHL correction:  0.000000
       DOS:  cpu time    0.0089: real time    0.0089
    --------------------------------------------
      LOOP:  cpu time    3.3315: real time    3.3407

 eigenvalue-minimisations  :  6600
 total energy-change (2. order) :-0.3404257E-06  (-0.6733168E-06)
 number of electron     144.0000013 magnetization 
 augmentation part        0.3012037 magnetization 

 Free energy of the ion-electron system (eV)
  ---------------------------------------------------
  alpha Z        PSCENC =       332.24841166
  Ewald energy   TEWEN  =     -6374.53395873
  -Hartree energ DENC   =     -1667.83573546
  -exchange      EXHF   =         0.00000000
  -V(xc)+E(xc)   XCENC  =       115.89355505
  PAW double counting   =      4611.84137505    -4244.39586331
  entropy T*S    EENTRO =         0.00000000
  eigenvalues    EBANDS =     -1286.52758842
  atomic energy  EATOM  =      8418.59438694
  Solvation  Ediel_sol  =         0.00000000
  ---------------------------------------------------
  free energy    TOTEN  =       -94.71541722 eV

  energy without entropy =      -94.71541722  energy(sigma->0) =      -94.71541722


--------------------------------------------------------------------------------------------------------




 average (electrostatic) potential at core
  the test charge radii are     1.1929  0.9892
  (the norm of the test charge is              1.0000)
       1 -39.5118       2 -39.5118       3 -39.5118       4 -39.5118       5 -39.6996
       6 -39.6996       7 -39.6995       8 -39.6995       9 -86.5475      10 -86.5475
      11 -86.5474      12 -86.5475      13 -86.5475      14 -86.5474      15 -86.5474
      16 -86.5474      17 -86.5795      18 -86.5795      19 -86.5795      20 -86.5795
      21 -86.4986      22 -86.4986      23 -86.4986      24 -86.4986
 
 
 
 E-fermi :   3.1236     XC(G=0):  -8.5247     alpha+bet : -9.2320


 k-point     1 :       0.0000    0.0000    0.0000
  band No.  band energies     occupation 
      1     -32.8282      2.00000
      2     -32.8281      2.00000
      3     -32.8276      2.00000
      4     -32.8275      2.00000
      5     -32.6537      2.00000
      6     -32.6537      2.00000
      7     -32.6526      2.00000
      8     -32.6525      2.00000
      9     -14.8884      2.00000
     10     -14.8870      2.00000
     11     -14.8836      2.00000
     12     -14.8823      2.00000
     13     -14.8625      2.00000
     14     -14.8564      2.00000
     15     -14.8510      2.00000
     16     -14.8488      2.00000
     17     -14.8463      2.00000
     18     -14.8446      2.00000
     19     -14.8348      2.00000
     20     -14.8327      2.00000
     21     -14.7223      2.00000
     22     -14.7211      2.00000
     23     -14.7016      2.00000
     24     -14.7014      2.00000
     25     -14.6919      2.00000
     26     -14.6855      2.00000
     27     -14.6772      2.00000
     28     -14.6772      2.00000
     29     -14.6764      2.00000
     30     -14.6738      2.00000
     31     -14.6705      2.00000
     32     -14.6688      2.00000
     33      -7.7901      2.00000
     34      -7.6471      2.00000
     35      -7.6368      2.00000
     36      -7.6026      2.00000
     37      -3.2252      2.00000
     38      -3.1874      2.00000
     39      -2.8630      2.00000
     40      -2.8580      2.00000
     41      -2.7483      2.00000
     42      -2.7337      2.00000
     43      -2.7220      2.00000
     44      -2.6205      2.00000
     45      -2.6136      2.00000
     46      -2.6109      2.00000
     47      -2.5878      2.00000
     48      -2.3240      2.00000
     49      -0.7197      2.00000
     50       0.3423      2.00000
     51       0.3560      2.00000
     52       0.4922      2.00000
     53       0.8256      2.00000
     54       1.0705      2.00000
     55       1.1614      2.00000
     56       1.3068      2.00000
     57       1.4727      2.00000
     58       1.5098      2.00000
     59       1.5409      2.00000
     60       1.5935      2.00000
     61       1.6851      2.00000
     62       1.6916      2.00000
     63       1.7028      2.00000
     64       1.7497      2.00000
     65       1.7521      2.00000
     66       2.0045      2.00000
     67       2.0078      2.00000
     68       2.0095      2.00000
     69       2.4696      2.00000
     70       2.5888      2.00000
     71       2.6876      2.00000
     72       2.7705      2.00000
     73       4.0855      0.00000
     74       4.1599      0.00000
     75       4.4693      0.00000
     76       4.5602      0.00000
     77       4.5701      0.00000
     78       4.7167      0.00000
     79       4.9962      0.00000
     80       5.1845      0.00000
     81       5.4737      0.00000
     82       5.5779      0.00000
     83       5.5874      0.00000
     84       5.7105      0.00000
     85       5.7502      0.00000
     86       5.7852      0.00000
     87       5.9615      0.00000
     88       6.0103      0.00000

 k-point     2 :       0.2000    0.0000    0.0000
  band No.  band energies     occupation 
      1     -32.8282      2.00000
      2     -32.8281      2.00000
      3     -32.8276      2.00000
      4     -32.8276      2.00000
      5     -32.6536      2.00000
      6     -32.6536      2.00000
      7     -32.6527      2.00000
      8     -32.6526      2.00000
      9     -14.8886      2.00000
     10     -14.8876      2.00000
     11     -14.8832      2.00000
     12     -14.8823      2.00000
     13     -14.8618      2.00000
     14     -14.8569      2.00000
     15     -14.8500      2.00000
     16     -14.8487      2.00000
     17     -14.8467      2.00000
     18     -14.8449      2.00000
     19     -14.8348      2.00000
     20     -14.8330      2.00000
     21     -14.7206      2.00000
     22     -14.7184      2.00000
     23     -14.7042      2.00000
     24     -14.7019      2.00000
     25     -14.6899      2.00000
     26     -14.6846      2.00000
     27     -14.6774      2.00000
     28     -14.6766      2.00000
     29     -14.6765      2.00000
     30     -14.6740      2.00000
     31     -14.6726      2.00000
     32     -14.6713      2.00000
     33      -7.7714      2.00000
     34      -7.6442      2.00000
     35      -7.6356      2.00000
     36      -7.6193      2.00000
     37      -3.2390      2.00000
     38      -3.1447      2.00000
     39      -3.0119      2.00000
     40      -2.8251      2.00000
     41      -2.7254      2.00000
     42      -2.7141      2.00000
     43      -2.6360      2.00000
     44      -2.6305      2.00000
     45      -2.6245      2.00000
     46      -2.6208      2.00000
     47      -2.5837      2.00000
     48      -2.4653      2.00000
     49      -0.5638      2.00000
     50       0.2923      2.00000
     51       0.3076      2.00000
     52       0.5387      2.00000
     53       0.7997      2.00000
     54       1.1103      2.00000
     55       1.2694      2.00000
     56       1.3143      2.00000
     57       1.4207      2.00000
     58       1.4280      2.00000
     59       1.4628      2.00000
     60       1.5968      2.00000
     61       1.7524      2.00000
     62       1.7704      2.00000
     63       1.7913      2.00000
     64       1.8578      2.00000
     65       1.8815      2.00000
     66       2.0210      2.00000
     67       2.0392      2.00000
     68       2.0392      2.00000
     69       2.4632      2.00000
     70       2.5802      2.00000
     71       2.5877      2.00000
     72       2.7516      2.00000
     73       4.1242      0.00000
     74       4.1637      0.00000
     75       4.4584      0.00000
     76       4.5988      0.00000
     77       4.6473      0.00000
     78       4.6528      0.00000
     79       4.6919      0.00000
     80       5.0631      0.00000
     81       5.1270      0.00000
     82       5.3655      0.00000
     83       5.4448      0.00000
     84       5.5885      0.00000
     85       5.7848      0.00000
     86       5.9296      0.00000
     87       5.9984      0.00000
     88       6.1598      0.00000

 k-point     3 :       0.4000    0.0000    0.0000
  band No.  band energies     occupation 
      1     -32.8282      2.00000
      2     -32.8281      2.00000
      3     -32.8276      2.00000
      4     -32.8276      2.00000
      5     -32.6533      2.00000
      6     -32.6533      2.00000
      7     -32.6530      2.00000
      8     -32.6529      2.00000
      9     -14.8887      2.00000
     10     -14.8884      2.00000
     11     -14.8826      2.00000
     12     -14.8823      2.00000
     13     -14.8601      2.00000
     14     -14.8582      2.00000
     15     -14.8482      2.00000
     16     -14.8477      2.00000
     17     -14.8475      2.00000
     18     -14.8459      2.00000
     19     -14.8345      2.00000
     20     -14.8338      2.00000
     21     -14.7157      2.00000
     22     -14.7122      2.00000
     23     -14.7094      2.00000
     24     -14.7057      2.00000
     25     -14.6845      2.00000
     26     -14.6818      2.00000
     27     -14.6777      2.00000
     28     -14.6772      2.00000
     29     -14.6770      2.00000
     30     -14.6769      2.00000
     31     -14.6757      2.00000
     32     -14.6748      2.00000
     33      -7.7231      2.00000
     34      -7.6653      2.00000
     35      -7.6376      2.00000
     36      -7.6347      2.00000
     37      -3.2383      2.00000
     38      -3.1659      2.00000
     39      -3.0090      2.00000
     40      -2.8140      2.00000
     41      -2.7049      2.00000
     42      -2.6974      2.00000
     43      -2.6805      2.00000
     44      -2.6573      2.00000
     45      -2.6507      2.00000
     46      -2.6438      2.00000
     47      -2.5703      2.00000
     48      -2.5703      2.00000
     49      -0.2388      2.00000
     50       0.0894      2.00000
     51       0.3153      2.00000
     52       0.4489      2.00000
     53       0.9393      2.00000
     54       1.0870      2.00000
     55       1.3266      2.00000
     56       1.3392      2.00000
     57       1.3623      2.00000
     58       1.3653      2.00000
     59       1.4932      2.00000
     60       1.5924      2.00000
     61       1.8395      2.00000
     62       1.8622      2.00000
     63       1.9402      2.00000
     64       1.9980      2.00000
     65       2.0581      2.00000
     66       2.0980      2.00000
     67       2.1642      2.00000
     68       2.2593      2.00000
     69       2.4191      2.00000
     70       2.4368      2.00000
     71       2.4370      2.00000
     72       2.6078      2.00000
     73       4.1740      0.00000
     74       4.2511      0.00000
     75       4.2648      0.00000
     76       4.5182      0.00000
     77       4.5331      0.00000
     78       4.5674      0.00000
     79       4.6028      0.00000
     80       4.7442      0.00000
     81       5.1290      0.00000
     82       5.2112      0.00000
     83       5.3435      0.00000
     84       5.5041      0.00000
     85       5.5170      0.00000
     86       5.7270      0.00000
     87       5.9049      0.00000
     88       6.0912      0.00000

 k-point     4 :       0.0000    0.1667    0.0000
  band No.  band energies     occupation 
      1     -32.8282      2.00000
      2     -32.8281      2.00000
      3     -32.8276      2.00000
      4     -32.8276      2.00000
      5     -32.6537      2.00000
      6     -32.6537      2.00000
      7     -32.6526      2.00000
      8     -32.6525      2.00000
      9     -14.8886      2.00000
     10     -14.8870      2.00000
     11     -14.8838      2.00000
     12     -14.8833      2.00000
     13     -14.8613      2.00000
     14     -14.8584      2.00000
     15     -14.8527      2.00000
     16     -14.8524      2.00000
     17     -14.8455      2.00000
     18     -14.8410      2.00000
     19     -14.8342      2.00000
     20     -14.8336      2.00000
     21     -14.7223      2.00000
     22     -14.7212      2.00000
     23     -14.7014      2.00000
     24     -14.7014      2.00000
     25     -14.6903      2.00000
     26     -14.6850      2.00000
     27     -14.6781      2.00000
     28     -14.6778      2.00000
     29     -14.6759      2.00000
     30     -14.6737      2.00000
     31     -14.6705      2.00000
     32     -14.6690      2.00000
     33      -7.7706      2.00000
     34      -7.6409      2.00000
     35      -7.6373      2.00000
     36      -7.6023      2.00000
     37      -3.2116      2.00000
     38      -3.1429      2.00000
     39      -2.8558      2.00000
     40      -2.8436      2.00000
     41      -2.7897      2.00000
     42      -2.7866      2.00000
     43      -2.7369      2.00000
     44      -2.7350      2.00000
     45      -2.6664      2.00000
     46      -2.6082      2.00000
     47      -2.5839      2.00000
     48      -2.3409      2.00000
     49      -0.4803      2.00000
     50       0.4737      2.00000
     51       0.4859      2.00000
     52       0.6615      2.00000
     53       0.7972      2.00000
     54       0.8445      2.00000
     55       1.0801      2.00000
     56       1.3515      2.00000
     57       1.4666      2.00000
     58       1.5125      2.00000
     59       1.5185      2.00000
     60       1.5753      2.00000
     61       1.5994      2.00000
     62       1.6817      2.00000
     63       1.7800      2.00000
     64       1.7944      2.00000
     65       1.8373      2.00000
     66       1.8790      2.00000
[...]
     17     -13.4422      2.00000
     18     -13.4422      2.00000
     19     -13.4394      2.00000
     20     -13.4394      2.00000
     21     -13.2768      2.00000
     22     -13.2768      2.00000
     23     -13.2374      2.00000
     24     -13.2374      2.00000
     25     -13.2313      2.00000
     26     -13.2313      2.00000
     27     -13.2185      2.00000
     28     -13.2185      2.00000
     29     -13.2158      2.00000
     30     -13.2158      2.00000
     31     -13.2015      2.00000
     32     -13.2015      2.00000
     33      -6.8532      2.00000
     34      -6.8532      2.00000
     35      -6.8000      2.00000
     36      -6.8000      2.00000
     37      -2.6778      2.00000
     38      -2.6778      2.00000
     39      -2.3096      2.00000
     40      -2.3096      2.00000
     41      -2.0602      2.00000
     42      -2.0602      2.00000
     43      -1.9774      2.00000
     44      -1.9774      2.00000
     45      -1.7677      2.00000
     46      -1.7677      2.00000
     47      -1.6413      2.00000
     48      -1.6413      2.00000
     49       0.9587      2.00000
     50       0.9587      2.00000
     51       1.1852      2.00000
     52       1.1852      2.00000
     53       1.7975      2.00000
     54       1.7975      2.00000
     55       1.8158      2.00000
     56       1.8158      2.00000
     57       2.2496      2.00000
     58       2.2496      2.00000
     59       2.2737      2.00000
     60       2.2737      2.00000
     61       2.7167      2.00000
     62       2.7167      2.00000
     63       2.7450      2.00000
     64       2.7450      2.00000
     65       2.9557      2.00000
     66       2.9557      2.00000
     67       3.0617      2.00000
     68       3.0617      2.00000
     69       3.3944      2.00000
     70       3.3944      2.00000
     71       3.6286      2.00000
     72       3.6286      2.00000
     73       4.6863      0.00000
     74       4.6864      0.00000
     75       4.9391      0.00000
     76       4.9391      0.00000
     77       5.3260      0.00000
     78       5.3260      0.00000
     79       5.5178      0.00000
     80       5.5178      0.00000
     81       6.0250      0.00000
     82       6.0250      0.00000
     83       6.0327      0.00000
     84       6.0327      0.00000
     85       6.6198      0.00000
     86       6.6198      0.00000
     87       7.0131      0.00000
     88       7.0131      0.00000

 k-point    36 :       0.4000    0.5000    0.5000
  band No.  band energies     occupation 
      1     -31.3739      2.00000
      2     -31.3739      2.00000
      3     -31.3739      2.00000
      4     -31.3739      2.00000
      5     -31.1231      2.00000
      6     -31.1231      2.00000
      7     -31.1222      2.00000
      8     -31.1222      2.00000
      9     -13.5023      2.00000
     10     -13.5023      2.00000
     11     -13.5006      2.00000
     12     -13.5006      2.00000
     13     -13.4864      2.00000
     14     -13.4864      2.00000
     15     -13.4858      2.00000
     16     -13.4858      2.00000
     17     -13.4409      2.00000
     18     -13.4409      2.00000
     19     -13.4396      2.00000
     20     -13.4396      2.00000
     21     -13.2620      2.00000
     22     -13.2620      2.00000
     23     -13.2466      2.00000
     24     -13.2465      2.00000
     25     -13.2251      2.00000
     26     -13.2251      2.00000
     27     -13.2181      2.00000
     28     -13.2181      2.00000
     29     -13.2171      2.00000
     30     -13.2171      2.00000
     31     -13.2121      2.00000
     32     -13.2121      2.00000
     33      -6.8298      2.00000
     34      -6.8298      2.00000
     35      -6.8093      2.00000
     36      -6.8093      2.00000
     37      -2.6435      2.00000
     38      -2.6435      2.00000
     39      -2.5188      2.00000
     40      -2.5188      2.00000
     41      -1.9580      2.00000
     42      -1.9580      2.00000
     43      -1.9351      2.00000
     44      -1.9351      2.00000
     45      -1.7858      2.00000
     46      -1.7858      2.00000
     47      -1.7089      2.00000
     48      -1.7089      2.00000
     49       1.0699      2.00000
     50       1.0699      2.00000
     51       1.2648      2.00000
     52       1.2648      2.00000
     53       1.7630      2.00000
     54       1.7630      2.00000
     55       1.9533      2.00000
     56       1.9533      2.00000
     57       2.3314      2.00000
     58       2.3314      2.00000
     59       2.4270      2.00000
     60       2.4270      2.00000
     61       2.5639      2.00000
     62       2.5639      2.00000
     63       2.6559      2.00000
     64       2.6559      2.00000
     65       2.9973      2.00000
     66       2.9973      2.00000
     67       3.0368      2.00000
     68       3.0368      2.00000
     69       3.5045      2.00000
     70       3.5045      2.00000
     71       3.5126      2.00000
     72       3.5126      2.00000
     73       4.7995      0.00000
     74       4.7995      0.00000
     75       5.0065      0.00000
     76       5.0065      0.00000
     77       5.1597      0.00000
     78       5.1597      0.00000
     79       5.3148      0.00000
     80       5.3148      0.00000
     81       5.9955      0.00000
     82       5.9955      0.00000
     83       6.2385      0.00000
     84       6.2385      0.00000
     85       6.5447      0.00000
     86       6.5447      0.00000
     87       6.7478      0.00000
     88       6.7478      0.00000


--------------------------------------------------------------------------------------------------------


 soft charge-density along one line, spin component           1
         0         1         2         3         4         5         6         7         8         9
 total charge-density along one line
 
 pseudopotential strength for first ion, spin component:           1
-11.373  -7.659   0.000   0.001   0.000  -0.000  -0.000   0.000
 -7.659  -5.765   0.000  -0.002  -0.001  -0.000   0.000   0.000
  0.000   0.000 -15.147   0.000   0.000   0.118  -0.000  -0.000
  0.001  -0.002   0.000 -15.148   0.002  -0.000   0.118  -0.000
  0.000  -0.001   0.000   0.002 -15.147  -0.000  -0.000   0.118
 -0.000  -0.000   0.118  -0.000  -0.000   0.035  -0.000  -0.000
 -0.000   0.000  -0.000   0.118  -0.000  -0.000   0.035  -0.000
  0.000   0.000  -0.000  -0.000   0.118  -0.000  -0.000   0.035
  0.000   0.000  -0.001   0.000   0.000   0.000  -0.000  -0.000
  0.000   0.000  -0.000   0.000   0.000   0.000  -0.000  -0.000
 -0.000  -0.000  -0.000   0.000   0.000   0.000   0.000  -0.000
  0.001   0.001   0.000   0.000   0.000  -0.000   0.000   0.000
 -0.000  -0.000  -0.000   0.000   0.000   0.000  -0.000   0.000
  0.000   0.000  -0.000   0.000   0.000   0.000   0.000   0.000
  0.000   0.000  -0.000   0.000   0.000  -0.000   0.000   0.000
 -0.000  -0.000  -0.000  -0.000   0.000  -0.000  -0.000  -0.000
  0.000   0.000   0.000  -0.000  -0.000   0.000  -0.000  -0.000
 -0.000  -0.000  -0.000   0.000  -0.000  -0.000   0.000  -0.000
 total augmentation occupancy for first ion, spin component:           1
  2.163  -0.354   0.000  -0.006  -0.003   0.000   0.021   0.008  -0.000   0.000   0.001  -0.011  -0.001   0.000  -0.000  -0.002
 -0.354   0.720   0.000   0.015   0.007  -0.000  -0.042  -0.008   0.000  -0.000  -0.002   0.021   0.004  -0.000  -0.000   0.008
  0.000   0.000   2.013   0.000  -0.000   0.024  -0.000   0.000  -0.009  -0.001   0.000  -0.000  -0.000   0.022   0.009  -0.000
 -0.006   0.015   0.000   2.012   0.002   0.000   0.027  -0.008  -0.000   0.000   0.003   0.017   0.004  -0.000   0.000   0.007
 -0.003   0.007  -0.000   0.002   2.013   0.000  -0.008   0.024   0.000  -0.000   0.009   0.007   0.011   0.000  -0.000  -0.023
  0.000   0.000   0.024  -0.000   0.000   0.316   0.000   0.000   0.032   0.015   0.000  -0.000  -0.000  -0.092  -0.049   0.000
  0.021  -0.042   0.000   0.027  -0.008   0.000   0.314   0.016   0.000   0.000  -0.003  -0.042  -0.017   0.000   0.000   0.009
  0.008  -0.008   0.000  -0.008   0.024   0.000   0.016   0.323  -0.000   0.000  -0.029  -0.018  -0.026   0.000   0.000   0.089
 -0.000   0.000  -0.009   0.000   0.000   0.032   0.000   0.000   0.119  -0.044   0.000  -0.000  -0.000  -0.367   0.134  -0.000
 -0.000   0.000  -0.001   0.000  -0.000   0.015  -0.000   0.000  -0.044   0.078  -0.000  -0.000   0.000   0.134  -0.236  -0.000
  0.001  -0.002   0.000   0.003   0.009   0.000  -0.003  -0.029   0.000  -0.000   0.102   0.033   0.012  -0.000   0.000  -0.316
 -0.011   0.021  -0.000   0.017   0.007   0.000  -0.042  -0.018  -0.000   0.000   0.033   0.113   0.028   0.000  -0.000  -0.103
 -0.001   0.004   0.000   0.004   0.011   0.000  -0.017  -0.026  -0.000   0.000   0.012   0.028   0.082   0.000   0.000  -0.031
  0.000   0.000   0.022   0.000   0.000  -0.092  -0.000   0.000  -0.367   0.134  -0.000   0.000   0.000   1.195  -0.439   0.000
  0.000   0.000   0.009   0.000   0.000  -0.049   0.000  -0.000   0.134  -0.236  -0.000  -0.000   0.000  -0.439   0.750   0.000
 -0.002   0.008   0.000   0.007  -0.023   0.000   0.009   0.089  -0.000  -0.000  -0.316  -0.103  -0.031   0.000  -0.000   1.026
  0.019  -0.049   0.000  -0.039  -0.003   0.000   0.125   0.041  -0.000   0.000  -0.103  -0.345  -0.084   0.000   0.000   0.351
  0.011  -0.027   0.000  -0.005  -0.022   0.000   0.043   0.067   0.000   0.000  -0.031  -0.084  -0.248  -0.000  -0.000   0.089


------------------------ aborting loop because EDIFF is reached ----------------------------------------


    CHARGE:  cpu time    0.0846: real time    0.0848
    FORLOC:  cpu time    0.0040: real time    0.0041
    FORNL :  cpu time    0.4377: real time    0.4388
    STRESS:  cpu time    1.3173: real time    1.3205
    FORCOR:  cpu time    0.8919: real time    0.8940
    FORHAR:  cpu time    0.0082: real time    0.0082
    MIXING:  cpu time    0.0029: real time    0.0029
    OFIELD:  cpu time    0.0000: real time    0.0000

  FORCE on cell =-STRESS in cart. coord.  units (eV):
  Direction    XX          YY          ZZ          XY          YZ          ZX
  --------------------------------------------------------------------------------------
  Alpha Z   384.53085   384.53085   384.53085
  Ewald   -2259.61801 -2239.16713 -2236.44043    -0.00000    -0.00000    -0.00013
  Hartree   496.23371   514.29645   509.92415    -0.00000    -0.00000    -0.00000
  E(xc)    -505.73954  -505.60732  -505.59859    -0.00000    -0.00000    -0.00000
  Local     176.32801   144.56468   147.63152     0.00000     0.00000     0.00010
  n-local   235.01562   230.82233   231.28628    -0.12680    -0.15205    -0.13681
  augment   -73.45439   -72.23699   -72.48211    -0.00000    -0.00000    -0.00000
  Kinetic  1547.61435  1543.88736  1542.33239     1.13421    -1.20252     0.21046
  Fock        0.00000     0.00000     0.00000     0.00000     0.00000     0.00000
  -------------------------------------------------------------------------------------
  Total       0.91059     1.09022     1.18405     0.00000     0.00000     0.00000
  in kB       2.38327     2.85341     3.09898     0.00000     0.00000     0.00000
  external pressure =        2.78 kB  Pullay stress =        0.00 kB


 VOLUME and BASIS-vectors are now :
 -----------------------------------------------------------------------------
  energy-cutoff  :      500.00
  volume of cell :      612.15
      direct lattice vectors                 reciprocal lattice vectors
     8.573533920 -0.000000000  0.000000000     0.116638018  0.000000000  0.000000000
    -0.000000000  6.463685710  0.000000000     0.000000000  0.154710493  0.000000000
     0.000000000  0.000000000 11.046404362     0.000000000  0.000000000  0.090527195

  length of vectors
     8.573533920  6.463685710 11.046404362     0.116638018  0.154710493  0.090527195


 FORCES acting on ions
    electron-ion (+dipol)            ewald-force                    non-local-force                 convergence-correction
 -----------------------------------------------------------------------------------------------
   0.386E+01 0.966E-04 0.637E+01   -.427E+01 0.152E-04 -.685E+01   0.369E+00 0.424E-18 0.508E+00   0.112E-03 -.244E-08 0.470E-03
   -.386E+01 0.130E-04 -.637E+01   0.427E+01 -.216E-04 0.685E+01   -.369E+00 -.416E-18 -.508E+00   -.112E-03 -.217E-09 -.470E-03
   -.386E+01 0.732E-05 0.637E+01   0.427E+01 -.216E-04 -.685E+01   -.369E+00 -.500E-18 0.508E+00   -.112E-03 -.330E-09 0.470E-03
   0.386E+01 0.910E-04 -.637E+01   -.427E+01 0.152E-04 0.685E+01   0.369E+00 0.468E-18 -.508E+00   0.112E-03 -.255E-08 -.470E-03
   -.226E+02 0.110E-04 -.371E+01   0.219E+02 -.197E-04 0.395E+01   0.721E+00 0.158E-17 -.256E+00   -.230E-04 0.268E-08 0.674E-04
   0.226E+02 0.935E-04 0.371E+01   -.219E+02 0.188E-04 -.395E+01   -.721E+00 0.167E-17 0.256E+00   0.230E-04 -.125E-09 -.674E-04
   0.226E+02 0.925E-04 -.371E+01   -.219E+02 0.188E-04 0.395E+01   -.721E+00 -.444E-19 -.256E+00   0.230E-04 -.534E-09 0.673E-04
   -.226E+02 0.997E-05 0.371E+01   0.219E+02 -.197E-04 -.395E+01   0.721E+00 -.128E-18 0.256E+00   -.230E-04 0.227E-08 -.673E-04
   0.841E+01 0.239E+02 -.141E+02   -.898E+01 -.256E+02 0.151E+02   0.523E+00 0.161E+01 -.887E+00   -.447E-04 -.120E-03 0.379E-04
   -.841E+01 -.239E+02 0.141E+02   0.898E+01 0.256E+02 -.151E+02   -.523E+00 -.161E+01 0.887E+00   0.447E-04 0.120E-03 -.379E-04
   -.841E+01 -.239E+02 -.141E+02   0.898E+01 0.256E+02 0.151E+02   -.523E+00 -.161E+01 -.887E+00   0.447E-04 0.120E-03 0.380E-04
   0.841E+01 0.239E+02 0.141E+02   -.898E+01 -.256E+02 -.151E+02   0.523E+00 0.161E+01 0.887E+00   -.447E-04 -.120E-03 -.380E-04
   -.841E+01 0.239E+02 0.141E+02   0.898E+01 -.256E+02 -.151E+02   -.523E+00 0.161E+01 0.887E+00   0.447E-04 -.120E-03 -.379E-04
   0.841E+01 -.239E+02 -.141E+02   -.898E+01 0.256E+02 0.151E+02   0.523E+00 -.161E+01 -.887E+00   -.447E-04 0.120E-03 0.379E-04
   0.841E+01 -.239E+02 0.141E+02   -.898E+01 0.256E+02 -.151E+02   0.523E+00 -.161E+01 0.887E+00   -.447E-04 0.120E-03 -.380E-04
   -.841E+01 0.239E+02 -.141E+02   0.898E+01 -.256E+02 0.151E+02   -.523E+00 0.161E+01 -.887E+00   0.447E-04 -.120E-03 0.380E-04
   0.379E+02 -.106E-04 0.109E+01   -.403E+02 -.871E-05 -.188E+01   0.223E+01 -.318E-17 0.696E+00   -.380E-04 0.114E-09 0.442E-04
   -.379E+02 -.243E-05 -.109E+01   0.403E+02 0.885E-05 0.188E+01   -.223E+01 0.667E-18 -.696E+00   0.380E-04 -.118E-09 -.442E-04
   -.379E+02 0.863E-05 0.109E+01   0.403E+02 0.885E-05 -.188E+01   -.223E+01 -.107E-16 0.696E+00   0.380E-04 -.151E-09 0.442E-04
   0.379E+02 0.418E-06 -.109E+01   -.403E+02 -.871E-05 0.188E+01   0.223E+01 0.258E-17 -.696E+00   -.380E-04 0.803E-10 -.442E-04
   0.493E+01 -.473E-05 0.274E+02   -.501E+01 0.955E-05 -.293E+02   0.147E+00 0.614E-19 0.188E+01   -.952E-04 -.679E-09 -.108E-03
   -.493E+01 -.118E-04 -.274E+02   0.501E+01 -.101E-04 0.293E+02   -.147E+00 -.452E-19 -.188E+01   0.952E-04 0.313E-10 0.108E-03
   -.493E+01 0.154E-06 0.274E+02   0.501E+01 -.101E-04 -.293E+02   -.147E+00 0.660E-17 0.188E+01   0.952E-04 0.288E-09 -.108E-03
   0.493E+01 0.724E-05 -.274E+02   -.501E+01 0.955E-05 0.293E+02   0.147E+00 -.507E-17 -.188E+01   -.952E-04 -.423E-09 0.108E-03
 -----------------------------------------------------------------------------------------------
   -.336E-03 0.469E-03 0.525E-04   0.222E-13 0.424E-13 0.213E-13   0.000E+00 0.435E-15 0.222E-15   0.422E-08 -.865E-09 0.280E-10
 
 
 POSITION                                       TOTAL-FORCE (eV/Angst)
 -----------------------------------------------------------------------------------
      0.13960      1.61592      7.66678        -0.042612     -0.000000      0.034472
      8.43393      4.84776      3.37962         0.042612     -0.000000     -0.034472
      4.14716      4.84776      2.14358         0.042612     -0.000000      0.034472
      4.42637      1.61592      8.90282        -0.042612     -0.000000     -0.034472
      1.35679      4.84776     10.01881         0.010407      0.000000     -0.014941
      7.21675      1.61592      1.02759        -0.010407     -0.000000      0.014941
      2.92998      1.61592      4.49561        -0.010407      0.000000     -0.014941
      5.64355      4.84776      6.55079         0.010407     -0.000000      0.014941
      1.66766      0.41097      1.62669        -0.054306     -0.091456      0.047841
      6.90588      6.05271      9.41972         0.054306      0.091456     -0.047841
      2.61911      6.05271      7.14989         0.054306      0.091456      0.047841
      5.95443      0.41097      3.89652        -0.054306     -0.091456     -0.047841
      6.90588      3.64281      9.41972         0.054306     -0.091456     -0.047841
      1.66766      2.82087      1.62669        -0.054306      0.091456      0.047841
      5.95443      2.82087      3.89652        -0.054306      0.091456     -0.047841
      2.61911      3.64281      7.14989         0.054306     -0.091456      0.047841
      0.62393      4.84776      6.52846        -0.164578      0.000000     -0.095570
      7.94961      1.61592      4.51794         0.164578     -0.000000      0.095570
      3.66284      1.61592      1.00526         0.164578     -0.000000     -0.095570
      4.91069      4.84776     10.04114        -0.164578      0.000000      0.095570
      1.68276      1.61592     10.59362         0.066766     -0.000000     -0.117464
      6.89077      4.84776      0.45278        -0.066766      0.000000      0.117464
      2.60400      4.84776      5.07042        -0.066766      0.000000     -0.117464
      5.96953      1.61592      5.97598         0.066766     -0.000000      0.117464
 -----------------------------------------------------------------------------------
    total drift:                               -0.000336      0.000469      0.000053


--------------------------------------------------------------------------------------------------------



  FREE ENERGIE OF THE ION-ELECTRON SYSTEM (eV)
  ---------------------------------------------------
  free  energy   TOTEN  =       -96.27009207 eV

  energy  without entropy=      -96.27009207  energy(sigma->0) =      -96.27009207
 
 d Force = 0.4311031E-02[-0.200E-02, 0.106E-01]  d Energy = 0.3196528E-02 0.111E-02
 d Force =-0.1101733E+01[-0.115E+01,-0.105E+01]  d Ewald  = 0.9808630E+01-0.109E+02


--------------------------------------------------------------------------------------------------------


    POTLOK:  cpu time    1.0025: real time    1.0049


--------------------------------------------------------------------------------------------------------




--------------------------------------------------------------------------------------------------------


  
 reached required accuracy - stopping structural energy minimisation
 writing wavefunctions
     LOOP+:  cpu time   39.5873: real time   40.1362
    4ORBIT:  cpu time    0.0000: real time    0.0000
 BZINTS: Fermi energy:  4.107851;144.000000 electrons
         Band energy:***********;  BLOECHL correction:  0.000000

 total amount of memory used by VASP MPI-rank0    67935. kBytes
=======================================================================

   base      :      30000. kBytes
   nonlr-proj:       2743. kBytes
   fftplans  :       2347. kBytes
   grid      :       3658. kBytes
   one-center:         93. kBytes
   wavefun   :      29094. kBytes
 
  
  
 General timing and accounting informations for this job:
 ========================================================
  
                  Total CPU time used (sec):      385.400
                            User time (sec):      382.602
                          System time (sec):        2.799
                         Elapsed time (sec):      389.777
  
                   Maximum memory used (kb):      263824.
                   Average memory used (kb):           0.
  
                          Minor page faults:       112822
                          Major page faults:          220
                 Voluntary context switches:        17080
