 vasp.5.4.4.18Apr17-6-g9f103f2a35 (build Nov 21 2017 15:30:27) complex          
  
 executed on             LinuxIFC date 2020.08.19  02:27:23
 running on  320 total cores
 distrk:  each k-point on  160 cores,    2 groups
 distr:  one band on NCORES_PER_BAND=  20 cores,    8 groups


--------------------------------------------------------------------------------------------------------


 INCAR:
 POTCAR:   PAW_PBE Ba_sv 06Sep2000                
 POTCAR:   PAW_PBE Si 05Jan2001                   

 ----------------------------------------------------------------------------- 
|                                                                             |
|           W    W    AA    RRRRR   N    N  II  N    N   GGGG   !!!           |
|           W    W   A  A   R    R  NN   N  II  NN   N  G    G  !!!           |
|           W    W  A    A  R    R  N N  N  II  N N  N  G       !!!           |
|           W WW W  AAAAAA  RRRRR   N  N N  II  N  N N  G  GGG   !            |
|           WW  WW  A    A  R   R   N   NN  II  N   NN  G    G                |
|           W    W  A    A  R    R  N    N  II  N    N   GGGG   !!!           |
|                                                                             |
|      You have enabled k-point parallelism (KPAR>1).                         |
|      This developmental code was originally  written by Paul Kent at ORNL,  |
|      and carefully double checked in Vienna.                                |
|      GW as well as linear response parallelism added by Martijn Marsman     |
|      and Georg Kresse.                                                      |
|      Carefully verify results versus KPAR=1.                                |
|      Report problems to Paul Kent and Vienna.                               |
|                                                                             |
 ----------------------------------------------------------------------------- 

 POTCAR:   PAW_PBE Ba_sv 06Sep2000                
   VRHFIN =Ba: 5s5p6s                                                           
   LEXCH  = PE                                                                  
   EATOM  =   700.2255 eV,   51.4651 Ry                                         
                                                                                
   TITEL  = PAW_PBE Ba_sv 06Sep2000                                             
   LULTRA =        F    use ultrasoft PP ?                                      
   IUNSCR =        1    unscreen: 0-lin 1-nonlin 2-no                           
   RPACOR =    2.400    partial core radius                                     
   POMASS =  137.327; ZVAL   =   10.000    mass and valenz                      
   RCORE  =    2.800    outmost cutoff radius                                   
   RWIGS  =    3.740; RWIGS  =    1.979    wigner-seitz radius (au A)           
   ENMAX  =  187.210; ENMIN  =  140.408 eV                                      
   RCLOC  =    2.516    cutoff for local pot                                    
   LCOR   =        T    correct aug charges                                     
   LPAW   =        T    paw PP                                                  
   EAUG   =  351.165                                                            
   DEXC   =     .000                                                            
   RMAX   =    3.370    core radius for proj-oper                               
   RAUG   =    1.300    factor for augmentation sphere                          
   RDEP   =    2.976    radius for radial grids                                 
   QCUT   =   -3.709; QGAM   =    7.419    optimization parameters              
                                                                                
   Description                                                                  
     l     E      TYP  RCUT    TYP  RCUT                                        
     0   .000     23  2.800                                                     
     0   .000     23  2.800                                                     
     1   .000     23  2.700                                                     
     1  2.000     23  2.700                                                     
     2   .000     23  2.700                                                     
     2   .000     23  2.700                                                     
  local pseudopotential read in
  partial core-charges read in
  atomic valenz-charges read in
  non local Contribution for L=           0  read in
    real space projection operators read in
  non local Contribution for L=           0  read in
    real space projection operators read in
  non local Contribution for L=           1  read in
    real space projection operators read in
  non local Contribution for L=           1  read in
    real space projection operators read in
  non local Contribution for L=           2  read in
    real space projection operators read in
  non local Contribution for L=           2  read in
    real space projection operators read in
    PAW grid and wavefunctions read in
 
   number of l-projection  operators is LMAX  =           6
   number of lm-projection operators is LMMAX =          18
 
 POTCAR:   PAW_PBE Si 05Jan2001                   
   VRHFIN =Si: s2p2                                                             
   LEXCH  = PE                                                                  
   EATOM  =   103.0669 eV,    7.5752 Ry                                         
                                                                                
   TITEL  = PAW_PBE Si 05Jan2001                                                
   LULTRA =        F    use ultrasoft PP ?                                      
   IUNSCR =        1    unscreen: 0-lin 1-nonlin 2-no                           
   RPACOR =    1.500    partial core radius                                     
   POMASS =   28.085; ZVAL   =    4.000    mass and valenz                      
   RCORE  =    1.900    outmost cutoff radius                                   
   RWIGS  =    2.480; RWIGS  =    1.312    wigner-seitz radius (au A)           
   ENMAX  =  245.345; ENMIN  =  184.009 eV                                      
   ICORE  =        2    local potential                                         
   LCOR   =        T    correct aug charges                                     
   LPAW   =        T    paw PP                                                  
   EAUG   =  322.069                                                            
   DEXC   =    -.007                                                            
   RMAX   =    2.944    core radius for proj-oper                               
   RAUG   =    1.300    factor for augmentation sphere                          
   RDEP   =    1.993    radius for radial grids                                 
   QCUT   =   -4.246; QGAM   =    8.493    optimization parameters              
                                                                                
   Description                                                                  
     l     E      TYP  RCUT    TYP  RCUT                                        
     0   .000     23  1.900                                                     
     0   .000     23  1.900                                                     
     1   .000     23  1.900                                                     
     1   .000     23  1.900                                                     
     2   .000      7  1.900                                                     
  local pseudopotential read in
  partial core-charges read in
  atomic valenz-charges read in
  non local Contribution for L=           0  read in
    real space projection operators read in
  non local Contribution for L=           0  read in
    real space projection operators read in
  non local Contribution for L=           1  read in
    real space projection operators read in
  non local Contribution for L=           1  read in
    real space projection operators read in
    PAW grid and wavefunctions read in
 
   number of l-projection  operators is LMAX  =           4
   number of lm-projection operators is LMMAX =           8
 
 Optimization of the real space projectors (new method)

 maximal supplied QI-value         = 13.42
 optimisation between [QCUT,QGAM] = [ 11.40, 22.81] = [ 36.42,145.68] Ry 
 Optimized for a Real-space Cutoff    1.56 Angstroem

   l    n(q)    QCUT    max X(q) W(low)/X(q) W(high)/X(q)  e(spline) 
   0     11    11.404     7.198    0.14E-04    0.26E-04    0.99E-07
   0     11    11.404    15.603    0.29E-04    0.72E-04    0.44E-06
   1     10    11.404     3.746    0.20E-04    0.24E-04    0.43E-07
   1     10    11.404     4.362    0.22E-03    0.97E-04    0.22E-06
   2     10    11.404     5.782    0.83E-04    0.62E-05    0.27E-06
   2     10    11.404    65.505    0.42E-03    0.31E-04    0.12E-05
 Optimization of the real space projectors (new method)

 maximal supplied QI-value         = 19.84
 optimisation between [QCUT,QGAM] = [ 11.31, 22.82] = [ 35.82,145.81] Ry 
 Optimized for a Real-space Cutoff    1.16 Angstroem

   l    n(q)    QCUT    max X(q) W(low)/X(q) W(high)/X(q)  e(spline) 
   0      8    11.310     8.708    0.14E-04    0.11E-04    0.43E-08
   0      8    11.310   106.241    0.27E-03    0.30E-03    0.38E-07
   1      7    11.310     5.901    0.82E-05    0.48E-04    0.19E-07
   1      7    11.310    73.241    0.27E-03    0.27E-03    0.74E-07
 PAW_PBE Ba_sv 06Sep2000                :
 energy of atom  1       EATOM= -700.2255
 kinetic energy error for atom=    0.0005 (will be added to EATOM!!)
 PAW_PBE Si 05Jan2001                   :
 energy of atom  2       EATOM= -103.0669
 kinetic energy error for atom=    0.0006 (will be added to EATOM!!)
 
 
 POSCAR: ba8 si16                                
  positions in direct lattice
  velocities in cartesian coordinates
 exchange correlation table for  LEXCH =        8
   RHO(1)=    0.500       N(1)  =     2000
   RHO(2)=  100.500       N(2)  =     4000
 


--------------------------------------------------------------------------------------------------------


 ion  position               nearest neighbor table
   1  0.015  0.250  0.692-  24 3.36  18 3.37  13 3.40  10 3.40  16 3.42  11 3.42  21 3.55  17 3.60
                            17 3.60   5 4.37   5 4.37   7 4.38   4 4.66   4 4.66
   2  0.985  0.750  0.308-  23 3.36  17 3.37   9 3.40  14 3.40  12 3.42  15 3.42  22 3.55  18 3.60
                            18 3.60   6 4.37   6 4.37   8 4.38   3 4.66   3 4.66
   3  0.485  0.750  0.192-  22 3.36  20 3.37  12 3.40  15 3.40   9 3.42  14 3.42  23 3.55  19 3.60
                            19 3.60   7 4.37   7 4.37   5 4.38   2 4.66   2 4.66
   4  0.515  0.250  0.808-  21 3.36  19 3.37  16 3.40  11 3.40  13 3.42  10 3.42  24 3.55  20 3.60
                            20 3.60   8 4.37   8 4.37   6 4.38   1 4.66   1 4.66
   5  0.159  0.750  0.907-  10 3.43  13 3.43  21 3.44  21 3.44  11 3.48  16 3.48  22 3.50   9 3.52
                            14 3.52  17 3.69  20 3.77   1 4.37   1 4.37   3 4.38
   6  0.841  0.250  0.093-  14 3.43   9 3.43  22 3.44  22 3.44  15 3.48  12 3.48  21 3.50  13 3.52
                            10 3.52  18 3.69  19 3.77   2 4.37   2 4.37   4 4.38
   7  0.341  0.250  0.407-  15 3.43  12 3.43  23 3.44  23 3.44  14 3.48   9 3.48  24 3.50  16 3.52
                            11 3.52  19 3.69  18 3.77   3 4.37   3 4.37   1 4.38
   8  0.659  0.750  0.593-  11 3.43  16 3.43  24 3.44  24 3.44  10 3.48  13 3.48  23 3.50  12 3.52
                            15 3.52  20 3.69  17 3.77   4 4.37   4 4.37   2 4.38
   9  0.194  0.071  0.147-  14 2.41  21 2.41  19 2.42   2 3.40   3 3.42   6 3.43   7 3.48   5 3.52

  10  0.806  0.929  0.853-  13 2.41  22 2.41  20 2.42   1 3.40   4 3.42   5 3.43   8 3.48   6 3.52

  11  0.306  0.929  0.647-  16 2.41  23 2.41  17 2.42   4 3.40   1 3.42   8 3.43   5 3.48   7 3.52

  12  0.694  0.071  0.353-  15 2.41  24 2.41  18 2.42   3 3.40   2 3.42   7 3.43   6 3.48   8 3.52

  13  0.806  0.571  0.853-  10 2.41  22 2.41  20 2.42   1 3.40   4 3.42   5 3.43   8 3.48   6 3.52

  14  0.194  0.429  0.147-   9 2.41  21 2.41  19 2.42   2 3.40   3 3.42   6 3.43   7 3.48   5 3.52

  15  0.694  0.429  0.353-  12 2.41  24 2.41  18 2.42   3 3.40   2 3.42   7 3.43   6 3.48   8 3.52

  16  0.306  0.571  0.647-  11 2.41  23 2.41  17 2.42   4 3.40   1 3.42   8 3.43   5 3.48   7 3.52

  17  0.082  0.750  0.592-  11 2.42  16 2.42  23 2.45   2 3.37   1 3.60   1 3.60   5 3.69   8 3.77

  18  0.918  0.250  0.408-  15 2.42  12 2.42  24 2.45   1 3.37   2 3.60   2 3.60   6 3.69   7 3.77

  19  0.418  0.250  0.092-  14 2.42   9 2.42  21 2.45   4 3.37   3 3.60   3 3.60   7 3.69   6 3.77

  20  0.582  0.750  0.908-  10 2.42  13 2.42  22 2.45   3 3.37   4 3.60   4 3.60   8 3.69   5 3.77

  21  0.197  0.250  0.966-  14 2.41   9 2.41  19 2.45   4 3.36   5 3.44   5 3.44   6 3.50   1 3.55

  22  0.803  0.750  0.034-  10 2.41  13 2.41  20 2.45   3 3.36   6 3.44   6 3.44   5 3.50   2 3.55

  23  0.303  0.750  0.466-  11 2.41  16 2.41  17 2.45   2 3.36   7 3.44   7 3.44   8 3.50   3 3.55

  24  0.697  0.250  0.534-  15 2.41  12 2.41  18 2.45   1 3.36   8 3.44   8 3.44   7 3.50   4 3.55

 
  LATTYP: Found a simple orthorhombic cell.
 ALAT       =     6.7201943514
 B/A-ratio  =     1.3282452928
 C/A-ratio  =     1.7117340960
  
  Lattice vectors:
  
 A1 = (   0.0000000000,  -6.7201943514,   0.0000000000)
 A2 = (  -8.9260665141,   0.0000000000,   0.0000000000)
 A3 = (   0.0000000000,   0.0000000000, -11.5031858029)


Analysis of symmetry for initial positions (statically):
=====================================================================
 Subroutine PRICEL returns:
 Original cell was already a primitive cell.
 

 Routine SETGRP: Setting up the symmetry group for a 
 simple orthorhombic supercell.


 Subroutine GETGRP returns: Found  8 space group operations
 (whereof  2 operations were pure point group operations)
 out of a pool of  8 trial point group operations.


The static configuration has the point symmetry S_2 .
 The point group associated with its full space group is D_2h.


Analysis of symmetry for dynamics (positions and initial velocities):
=====================================================================
 Subroutine PRICEL returns:
 Original cell was already a primitive cell.
 

 Routine SETGRP: Setting up the symmetry group for a 
 simple orthorhombic supercell.


 Subroutine GETGRP returns: Found  8 space group operations
 (whereof  2 operations were pure point group operations)
 out of a pool of  8 trial point group operations.


The dynamic configuration has the point symmetry S_2 .
 The point group associated with its full space group is D_2h.


 Subroutine INISYM returns: Found  8 space group operations
 (whereof  2 operations are pure point group operations),
 and found     1 'primitive' translations

 
 
 KPOINTS: Automatically generated mesh            
  k-points in reciprocal lattice
Space group operators:
 irot       det(A)        alpha          n_x          n_y          n_z        tau_x        tau_y        tau_z
    1     1.000000     0.000000     1.000000     0.000000     0.000000     0.000000     0.000000     0.000000
    2    -1.000000     0.000000     1.000000     0.000000     0.000000     0.000000     0.000000     0.000000
    3     1.000000   180.000000     0.000000     0.000000     1.000000    -0.500000     0.000000    -0.500000
    4    -1.000000   180.000000     0.000000     0.000000     1.000000    -0.500000     0.000000    -0.500000
    5     1.000000   180.000000     1.000000     0.000000     0.000000    -0.500000    -0.500000    -0.500000
    6    -1.000000   180.000000     1.000000     0.000000     0.000000    -0.500000    -0.500000    -0.500000
    7     1.000000   180.000000     0.000000     1.000000     0.000000    -0.000000    -0.500000    -0.000000
    8    -1.000000   180.000000     0.000000     1.000000     0.000000     0.000000    -0.500000     0.000000

 ----------------------------------------------------------------------------- 
|                                                                             |
|           W    W    AA    RRRRR   N    N  II  N    N   GGGG   !!!           |
|           W    W   A  A   R    R  NN   N  II  NN   N  G    G  !!!           |
|           W    W  A    A  R    R  N N  N  II  N N  N  G       !!!           |
|           W WW W  AAAAAA  RRRRR   N  N N  II  N  N N  G  GGG   !            |
|           WW  WW  A    A  R   R   N   NN  II  N   NN  G    G                |
|           W    W  A    A  R    R  N    N  II  N    N   GGGG   !!!           |
|                                                                             |
|      Your generating k-point grid is not commensurate to the symmetry       |
|      of the lattice.  This can cause   slow convergence with respect        |
|      to k-points for HF type calculations                                   |
|      suggested SOLUTIONS:                                                   |
|       ) if not already the case, use automatic k-point generation           |
|       ) shift your grid to Gamma (G) (e.g. required for hex or fcc lattice) |
|                                                                             |
 ----------------------------------------------------------------------------- 

 
 Subroutine IBZKPT_HF returns following result:
 ==============================================
 
 Found     48 k-points in 1st BZ
 the following     48 k-points will be used (e.g. in the exchange kernel)
 Following reciprocal coordinates:   # in IRBZ
  0.000000  0.000000  0.000000    0.02083333   1 t-inv F
  0.166667  0.000000  0.000000    0.02083333   2 t-inv F
  0.333333  0.000000  0.000000    0.02083333   3 t-inv F
  0.500000  0.000000  0.000000    0.02083333   4 t-inv F
  0.000000  0.125000  0.000000    0.02083333   5 t-inv F
  0.166667  0.125000  0.000000    0.02083333   6 t-inv F
  0.333333  0.125000  0.000000    0.02083333   7 t-inv F
  0.500000  0.125000  0.000000    0.02083333   8 t-inv F
  0.000000  0.250000  0.000000    0.02083333   9 t-inv F
  0.166667  0.250000  0.000000    0.02083333  10 t-inv F
  0.333333  0.250000  0.000000    0.02083333  11 t-inv F
  0.500000  0.250000  0.000000    0.02083333  12 t-inv F
  0.000000  0.375000  0.000000    0.02083333  13 t-inv F
  0.166667  0.375000  0.000000    0.02083333  14 t-inv F
  0.333333  0.375000  0.000000    0.02083333  15 t-inv F
  0.500000  0.375000  0.000000    0.02083333  16 t-inv F
  0.000000  0.500000  0.000000    0.02083333  17 t-inv F
  0.166667  0.500000  0.000000    0.02083333  18 t-inv F
  0.333333  0.500000  0.000000    0.02083333  19 t-inv F
  0.500000  0.500000  0.000000    0.02083333  20 t-inv F
 -0.166667  0.000000  0.000000    0.02083333   2 t-inv F
 -0.333333  0.000000  0.000000    0.02083333   3 t-inv F
  0.000000 -0.125000  0.000000    0.02083333   5 t-inv F
 -0.166667 -0.125000  0.000000    0.02083333   6 t-inv F
  0.166667 -0.125000  0.000000    0.02083333   6 t-inv F
 -0.166667  0.125000  0.000000    0.02083333   6 t-inv F
 -0.333333 -0.125000  0.000000    0.02083333   7 t-inv F
  0.333333 -0.125000  0.000000    0.02083333   7 t-inv F
 -0.333333  0.125000  0.000000    0.02083333   7 t-inv F
 -0.500000 -0.125000  0.000000    0.02083333   8 t-inv F
  0.000000 -0.250000  0.000000    0.02083333   9 t-inv F
 -0.166667 -0.250000  0.000000    0.02083333  10 t-inv F
  0.166667 -0.250000  0.000000    0.02083333  10 t-inv F
 -0.166667  0.250000  0.000000    0.02083333  10 t-inv F
 -0.333333 -0.250000  0.000000    0.02083333  11 t-inv F
  0.333333 -0.250000  0.000000    0.02083333  11 t-inv F
 -0.333333  0.250000  0.000000    0.02083333  11 t-inv F
 -0.500000 -0.250000  0.000000    0.02083333  12 t-inv F
  0.000000 -0.375000  0.000000    0.02083333  13 t-inv F
 -0.166667 -0.375000  0.000000    0.02083333  14 t-inv F
  0.166667 -0.375000  0.000000    0.02083333  14 t-inv F
 -0.166667  0.375000  0.000000    0.02083333  14 t-inv F
 -0.333333 -0.375000  0.000000    0.02083333  15 t-inv F
  0.333333 -0.375000  0.000000    0.02083333  15 t-inv F
 -0.333333  0.375000  0.000000    0.02083333  15 t-inv F
 -0.500000 -0.375000  0.000000    0.02083333  16 t-inv F
 -0.166667 -0.500000  0.000000    0.02083333  18 t-inv F
 -0.333333 -0.500000  0.000000    0.02083333  19 t-inv F


--------------------------------------------------------------------------------------------------------




 Dimension of arrays:
   k-points           NKPTS =     20   k-points in BZ     NKDIM =     48   number of bands    NBANDS=     88
   number of dos      NEDOS =   2801   number of ions     NIONS =     24
   non local maximal  LDIM  =      6   non local SUM 2l+1 LMDIM =     18
   total plane-waves  NPLWV = 128000
   max r-space proj   IRMAX =   3023   max aug-charges    IRDMAX=  11810
   dimension x,y,z NGX =    50 NGY =   40 NGZ =   64
   dimension x,y,z NGXF=   100 NGYF=   80 NGZF=  128
   support grid    NGXF=   100 NGYF=   80 NGZF=  128
   ions per type =               8  16
   NGX,Y,Z   is equivalent  to a cutoff of   9.31,  9.90,  9.25 a.u.
   NGXF,Y,Z  is equivalent  to a cutoff of  18.62, 19.79, 18.50 a.u.

 SYSTEM =  unknown system                          
 POSCAR =  ba8 si16                                

 Startparameter for this run:
   NWRITE =      2    write-flag & timer
   PREC   = normal    normal or accurate (medium, high low for compatibility)
   ISTART =      1    job   : 0-new  1-cont  2-samecut
   ICHARG =      0    charge: 1-file 2-atom 10-const
   ISPIN  =      1    spin polarized calculation?
   LNONCOLLINEAR =      F non collinear calculations
   LSORBIT =      F    spin-orbit coupling
   INIWAV =      1    electr: 0-lowe 1-rand  2-diag
   LASPH  =      F    aspherical Exc in radial PAW
   METAGGA=      F    non-selfconsistent MetaGGA calc.

 Electronic Relaxation 1
   ENCUT  =  500.0 eV  36.75 Ry    6.06 a.u.  16.27 12.25 20.97*2*pi/ulx,y,z
   ENINI  =  500.0     initial cutoff
   ENAUG  =  351.2 eV  augmentation charge cutoff
   NELM   =    300;   NELMIN=  4; NELMDL=  0     # of ELM steps 
   EDIFF  = 0.1E-05   stopping-criterion for ELM
   LREAL  =      T    real-space projection
   NLSPLINE    = F    spline interpolate recip. space projectors
   LCOMPAT=      F    compatible to vasp.4.4
   GGA_COMPAT  = T    GGA compatible to vasp.4.4-vasp.4.6
   LMAXPAW     = -100 max onsite density
   LMAXMIX     =    2 max onsite mixed and CHGCAR
   VOSKOWN=      0    Vosko Wilk Nusair interpolation
   ROPT   =   -0.00050  -0.00050
 Ionic relaxation
   EDIFFG = 0.1E-04   stopping-criterion for IOM
   NSW    =      0    number of steps for IOM
   NBLOCK =      1;   KBLOCK =      1    inner block; outer block 
   IBRION =     -1    ionic relax: 0-MD 1-quasi-New 2-CG
   NFREE  =      0    steps in history (QN), initial steepest desc. (CG)
   ISIF   =      0    stress and relaxation
   IWAVPR =     10    prediction:  0-non 1-charg 2-wave 3-comb
   ISYM   =      3    0-nonsym 1-usesym 2-fastsym
   LCORR  =      T    Harris-Foulkes like correction to forces

   POTIM  = 0.5000    time-step for ionic-motion
   TEIN   =    0.0    initial temperature
   TEBEG  =    0.0;   TEEND  =   0.0 temperature during run
   SMASS  =  -3.00    Nose mass-parameter (am)
   estimated Nose-frequenzy (Omega)   =  0.10E-29 period in steps =****** mass=  -0.182E-26a.u.
   SCALEE = 1.0000    scale energy and forces
   NPACO  =    256;   APACO  = 16.0  distance and # of slots for P.C.
   PSTRESS=    0.0 pullay stress

  Mass of Ions in am
   POMASS = 137.33 28.09
  Ionic Valenz
   ZVAL   =  10.00  4.00
  Atomic Wigner-Seitz radii
   RWIGS  =  -1.00 -1.00
  virtual crystal weights 
   VCA    =   1.00  1.00
   NELECT =     144.0000    total number of electrons
   NUPDOWN=      -1.0000    fix difference up-down

 DOS related values:
   EMIN   = -10.00;   EMAX   = 18.00  energy-range for DOS
   EFERMI =   0.00
   ISMEAR =     0;   SIGMA  =   0.01  broadening in eV -4-tet -1-fermi 0-gaus

 Electronic relaxation 2 (details)
   IALGO  =     53    algorithm
   LDIAG  =      T    sub-space diagonalisation (order eigenvalues)
   LSUBROT=      F    optimize rotation matrix (better conditioning)
   TURBO    =      0    0=normal 1=particle mesh
   IRESTART =      0    0=no restart 2=restart with 2 vectors
   NREBOOT  =      0    no. of reboots
   NMIN     =      0    reboot dimension
   EREF     =   0.00    reference energy to select bands
   IMIX   =      4    mixing-type and parameters
     AMIX     =   0.40;   BMIX     =  1.00
     AMIX_MAG =   1.60;   BMIX_MAG =  1.00
     AMIN     =   0.10
     WC   =   100.;   INIMIX=   1;  MIXPRE=   1;  MAXMIX= -45

 Intra band minimization:
   WEIMIN = 0.0000     energy-eigenvalue tresh-hold
   EBREAK =  0.28E-08  absolut break condition
   DEPER  =   0.30     relativ break condition  

   TIME   =   0.40     timestep for ELM

  volume/ion in A,a.u.               =      28.75       194.02
  Fermi-wavevector in a.u.,A,eV,Ry     =   0.971052  1.835021 12.829494  0.942941
  Thomas-Fermi vector in A             =   2.101237
 
 Write flags
   LWAVE        =      F    write WAVECAR
   LDOWNSAMPLE  =      F    k-point downsampling of WAVECAR
   LCHARG       =      T    write CHGCAR
   LVTOT        =      F    write LOCPOT, total local potential
   LVHAR        =      F    write LOCPOT, Hartree potential only
   LELF         =      F    write electronic localiz. function (ELF)
   LORBIT       =     11    0 simple, 1 ext, 2 COOP (PROOUT), +10 PAW based schemes


 Dipole corrections
   LMONO  =      F    monopole corrections only (constant potential shift)
   LDIPOL =      F    correct potential (dipole corrections)
   IDIPOL =      0    1-x, 2-y, 3-z, 4-all directions 
   EPSILON=  1.0000000 bulk dielectric constant

 Exchange correlation treatment:
   GGA     =    --    GGA type
   LEXCH   =     8    internal setting for exchange type
   VOSKOWN=      0    Vosko Wilk Nusair interpolation
   EXXOEP  =     0    0=HF, 1=EXX-LHF (local Hartree Fock) 2=EXX OEP
   LHFCALC =     T    Hartree Fock is set to
   LSYMGRAD=     F    symmetrize gradient (conserves proper symmetry)
   PRECFOCK=normal    Normal, Fast or Accurate (Low or Medium for compatibility)
   LRHFCALC=     F    long range Hartree Fock
   LRSCOR  =     F    long range correlation only (use DFT for short range part)
   LTHOMAS =     F    Thomas Fermi screening in HF
   LMODELHF=     F    short range full HF, long range fraction AEXX
   ENCUT4O =  -1.0   cutoff for four orbital integrals eV
   LMAXFOCK=     4    L truncation for augmentation on plane wave grid
   LMAXFOCKAE=  -1    L truncation for all-electron charge restoration on plane wave grid
   NMAXFOCKAE=   1    number of basis functions for all-electron charge restoration
   LFOCKAEDFT=     F  apply the AE augmentation even for DFT
   NKREDX  =     1    reduce k-point grid by
   NKREDY  =     1    reduce k-point grid by
   NKREDZ  =     1    reduce k-point grid by
   SHIFTRED=     F    shift reduced grid of Gamma
   HFKIDENT=     F    idential grid for each k-point
   ODDONLY =     F    use only odd q-grid points
   EVENONLY=     F    use only even q-grid points
   HFALPHA =   -1.0000 decay constant for conv. correction
   MCALPHA =    0.0000 extent of test-charge in conv. correction in multipole expansion
   AEXX    =    0.2500 exact exchange contribution
   HFSCREEN=    0.2000 screening length (either q_TF or 0.3 A-1)
   HFSCREENC=   0.2000 screening length for correlation (either q_TF or 0.3 A-1)
   HFRCUT  =    0.0000 spherical cutoff for potential kernel
   ALDAX   =    0.7500 LDA exchange part
   AGGAX   =    0.7500 GGA exchange part
   ALDAC   =    1.0000 LDA correlation
   AGGAC   =    1.0000 GGA correlation
   ENCUTFOCK=  -1.0 apply spherical cutoff to Coloumb kernel
   NBANDSGWLOW=     1    first orbital included in HF term
   NBLOCK_FOCK=    64    blocking factor in FOCK_ACC
 Linear response parameters
   LEPSILON=     F    determine dielectric tensor
   LRPA    =     F    only Hartree local field effects (RPA)
   LNABLA  =     F    use nabla operator in PAW spheres
   LVEL    =     F    velocity operator in full k-point grid
   LINTERFAST=   F  fast interpolation
   KINTER  =     0    interpolate to denser k-point grid
   CSHIFT  =0.1000    complex shift for real part using Kramers Kronig
   OMEGAMAX=  -1.0    maximum frequency
   DEG_THRESHOLD= 0.2000000E-02 threshold for treating states as degnerate
   RTIME   =   -0.100 relaxation time in fs
  (WPLASMAI=    0.000 imaginary part of plasma frequency in eV, 0.658/RTIME)
   DFIELD  = 0.0000000 0.0000000 0.0000000 field for delta impulse in time
 
 Orbital magnetization related:
   ORBITALMAG=     F  switch on orbital magnetization
   LCHIMAG   =     F  perturbation theory with respect to B field
   DQ        =  0.001000  dq finite difference perturbation B field
   LLRAUG    =     F  two centre corrections for induced B field



--------------------------------------------------------------------------------------------------------


 Static calculation
 charge density and potential will be updated during run
 non-spin polarized calculation
 Conjugate gradient for all bands (Freysoldt, et al. PRB 79, 241103 (2009))
 perform sub-space diagonalisation
    before iterative eigenvector-optimisation
 modified Broyden-mixing scheme, WC =      100.0
 initial mixing is a Kerker type mixing with AMIX =  0.4000 and BMIX =      1.0000
 Hartree-type preconditioning will be used
 using additional bands           16
 real space projection scheme for non local part
 use partial core corrections
 no Harris-corrections to forces 
 use gradient corrections 
 use of overlap-Matrix (Vanderbilt PP)
 Gauss-broadening in eV      SIGMA  =   0.01


--------------------------------------------------------------------------------------------------------


  energy-cutoff  :      500.00
  volume of cell :      690.02
      direct lattice vectors                 reciprocal lattice vectors
     8.926066514  0.000000000  0.000000000     0.112031430  0.000000000  0.000000000
     0.000000000  6.720194351  0.000000000     0.000000000  0.148805220  0.000000000
     0.000000000  0.000000000 11.503185803     0.000000000  0.000000000  0.086932439

  length of vectors
     8.926066514  6.720194351 11.503185803     0.112031430  0.148805220  0.086932439


 
 old parameters found on file WAVECAR:
  energy-cutoff  :      500.00
  volume of cell :      690.02
      direct lattice vectors                 reciprocal lattice vectors
     8.926066514  0.000000000  0.000000000     0.112031430  0.000000000  0.000000000
     0.000000000  6.720194351  0.000000000     0.000000000  0.148805220  0.000000000
     0.000000000  0.000000000 11.503185803     0.000000000  0.000000000  0.086932439

  length of vectors

 
 k-points in units of 2pi/SCALE and weight: Automatically generated mesh            
   0.00000000  0.00000000  0.00000000       0.021
   0.01867191  0.00000000  0.00000000       0.042
   0.03734381  0.00000000  0.00000000       0.042
   0.05601572  0.00000000  0.00000000       0.021
   0.00000000  0.01860065  0.00000000       0.042
   0.01867191  0.01860065  0.00000000       0.083
   0.03734381  0.01860065  0.00000000       0.083
   0.05601572  0.01860065  0.00000000       0.042
   0.00000000  0.03720131  0.00000000       0.042
   0.01867191  0.03720131  0.00000000       0.083
   0.03734381  0.03720131  0.00000000       0.083
   0.05601572  0.03720131  0.00000000       0.042
   0.00000000  0.05580196  0.00000000       0.042
   0.01867191  0.05580196  0.00000000       0.083
   0.03734381  0.05580196  0.00000000       0.083
   0.05601572  0.05580196  0.00000000       0.042
   0.00000000  0.07440261  0.00000000       0.021
   0.01867191  0.07440261  0.00000000       0.042
   0.03734381  0.07440261  0.00000000       0.042
   0.05601572  0.07440261  0.00000000       0.021
 
 k-points in reciprocal lattice and weights: Automatically generated mesh            
   0.00000000  0.00000000  0.00000000       0.021
   0.16666667  0.00000000  0.00000000       0.042
   0.33333333  0.00000000  0.00000000       0.042
   0.50000000  0.00000000  0.00000000       0.021
   0.00000000  0.12500000  0.00000000       0.042
   0.16666667  0.12500000  0.00000000       0.083
   0.33333333  0.12500000  0.00000000       0.083
   0.50000000  0.12500000  0.00000000       0.042
   0.00000000  0.25000000  0.00000000       0.042
   0.16666667  0.25000000  0.00000000       0.083
   0.33333333  0.25000000  0.00000000       0.083
   0.50000000  0.25000000  0.00000000       0.042
   0.00000000  0.37500000  0.00000000       0.042
   0.16666667  0.37500000  0.00000000       0.083
   0.33333333  0.37500000  0.00000000       0.083
   0.50000000  0.37500000  0.00000000       0.042
   0.00000000  0.50000000  0.00000000       0.021
   0.16666667  0.50000000  0.00000000       0.042
   0.33333333  0.50000000  0.00000000       0.042
   0.50000000  0.50000000  0.00000000       0.021
 
 position of ions in fractional coordinates (direct lattice) 
   0.01505989  0.25000000  0.69154351
   0.98494011  0.75000002  0.30845649
   0.48494011  0.75000002  0.19154345
   0.51505989  0.25000000  0.80845653
   0.15920310  0.75000002  0.90663414
   0.84079690  0.25000000  0.09336584
   0.34079690  0.25000000  0.40663422
   0.65920310  0.75000002  0.59336582
   0.19364339  0.07064910  0.14723491
   0.80635661  0.92935089  0.85276507
   0.30635661  0.92935089  0.64723493
   0.69364339  0.07064910  0.35276507
   0.80635661  0.57064911  0.85276507
   0.19364339  0.42935089  0.14723491
   0.69364339  0.42935089  0.35276507
   0.30635661  0.57064911  0.64723493
   0.08171422  0.75000002  0.59179202
   0.91828576  0.25000000  0.40820798
   0.41828579  0.25000000  0.09179195
   0.58171424  0.75000002  0.90820803
   0.19714533  0.25000000  0.96557192
   0.80285466  0.75000002  0.03442810
   0.30285466  0.75000002  0.46557184
   0.69714534  0.25000000  0.53442808
 
 position of ions in cartesian coordinates  (Angst):
   0.13442558  1.68004859  7.95495350
   8.79164096  5.04014588  3.54823230
   4.32860770  5.04014588  2.20335989
   4.59745881  1.68004859  9.29982568
   1.42105749  5.04014588 10.42918099
   7.50500903  1.68004859  1.07400458
   3.04197577  1.68004859  4.67758903
   5.88409075  5.04014588  6.82559724
   1.72847380  0.47477568  1.69367051
   7.19759271  6.24541861  9.80951506
   2.73455945  6.24541861  7.44526364
   6.19150706  0.47477568  4.05792216
   7.19759271  3.83487292  9.80951506
   1.72847380  2.88532143  1.69367051
   6.19150706  2.88532143  4.05792216
   2.73455945  3.83487292  7.44526364
   0.72938655  5.04014588  6.80749351
   8.19667979  1.68004859  4.69569229
   3.73364677  1.68004859  1.05589990
   5.19241998  5.04014588 10.44728566
   1.75973229  1.68004859 11.10715319
   7.16633410  5.04014588  0.39603279
   2.70330085  5.04014588  5.35555935
   6.22276567  1.68004859  6.14762551
 


--------------------------------------------------------------------------------------------------------


 k-point  1 :   0.0000 0.0000 0.0000  plane waves:   17565
 k-point  2 :   0.1667 0.0000 0.0000  plane waves:   17513
 k-point  3 :   0.3333 0.0000 0.0000  plane waves:   17520
 k-point  4 :   0.5000 0.0000 0.0000  plane waves:   17512
 k-point  5 :   0.0000 0.1250 0.0000  plane waves:   17541
 k-point  6 :   0.1667 0.1250 0.0000  plane waves:   17506
 k-point  7 :   0.3333 0.1250 0.0000  plane waves:   17508
 k-point  8 :   0.5000 0.1250 0.0000  plane waves:   17506
 k-point  9 :   0.0000 0.2500 0.0000  plane waves:   17501
 k-point 10 :   0.1667 0.2500 0.0000  plane waves:   17506
 k-point 11 :   0.3333 0.2500 0.0000  plane waves:   17493
 k-point 12 :   0.5000 0.2500 0.0000  plane waves:   17488
 k-point 13 :   0.0000 0.3750 0.0000  plane waves:   17486
 k-point 14 :   0.1667 0.3750 0.0000  plane waves:   17515
 k-point 15 :   0.3333 0.3750 0.0000  plane waves:   17511
 k-point 16 :   0.5000 0.3750 0.0000  plane waves:   17514
 k-point 17 :   0.0000 0.5000 0.0000  plane waves:   17500
 k-point 18 :   0.1667 0.5000 0.0000  plane waves:   17524
 k-point 19 :   0.3333 0.5000 0.0000  plane waves:   17508
 k-point 20 :   0.5000 0.5000 0.0000  plane waves:   17508

 maximum and minimum number of plane-waves per node :       897      838

 maximum number of plane-waves:     17565
 maximum index in each direction: 
   IXMAX=   16   IYMAX=   12   IZMAX=   20
   IXMIN=  -16   IYMIN=  -12   IZMIN=  -20


 real space projection operators:
  total allocation   :       4441.25 KBytes
  max/ min on nodes  :        283.66        160.19


 parallel 3D FFT for wavefunctions:
    minimum data exchange during FFTs selected (reduces bandwidth)
 parallel 3D FFT for charge:
    minimum data exchange during FFTs selected (reduces bandwidth)

 
 Radii for the augmentation spheres in the non-local exchange
 for species   1 augmentation radius   1.524 (default was   1.219)
       energy cutoff for augmentation   2000.0
 for species   2 augmentation radius   1.055 (default was   0.989)
       energy cutoff for augmentation   2000.0

 real space projection operators:
  total allocation   :       5323.75 KBytes
  max/ min on nodes  :        352.81        178.03

 Maximum index for augmentation-charges in exchange          262
  SETUP_FOCK is finished

 total amount of memory used by VASP MPI-rank0    44964. kBytes
=======================================================================

   base      :      30000. kBytes
   nonlr-proj:       3113. kBytes
   fftplans  :        837. kBytes
   grid      :        888. kBytes
   one-center:         31. kBytes
   HF        :        129. kBytes
   wavefun   :       9966. kBytes
 
     INWAV:  cpu time    2.3534: real time    2.4751
 Broyden mixing: mesh for mixing (old mesh)
   NGX = 33   NGY = 25   NGZ = 41
  (NGX  =100   NGY  = 80   NGZ  =128)
  gives a total of  33825 points

 charge density for first step will be calculated from the start-wavefunctions


--------------------------------------------------------------------------------------------------------


 Maximum index for non-local projection operator          270
 Maximum index for augmentation-charges          613 (set IRDMAX)


--------------------------------------------------------------------------------------------------------


 initial charge from wavefunction
 First call to EWALD:  gamma=   0.201
 Maximum number of real-space cells 3x 3x 2
 Maximum number of reciprocal cells 3x 2x 3

    FEWALD:  cpu time    0.0030: real time    0.0030


--------------------------------------- Iteration      1(   1)  ---------------------------------------


    POTLOK:  cpu time    0.0268: real time    0.0269
    SETDIJ:  cpu time    0.0773: real time    0.0774
    TRIAL :  cpu time  238.8569: real time  239.0381
    CORREC:  cpu time    0.0007: real time    0.0007
    CHARGE:  cpu time    0.0904: real time    0.0904
    --------------------------------------------
      LOOP:  cpu time  239.0552: real time  239.2789

 eigenvalue-minimisations  :     0
 total energy-change (2. order) :-0.8408206E+02  (-0.2999082E+02)
 number of electron     143.9999995 magnetization 
 augmentation part      -17.4533599 magnetization 

 Free energy of the ion-electron system (eV)
  ---------------------------------------------------
  alpha Z        PSCENC =       466.41095114
  Ewald energy   TEWEN  =     -6439.99361400
  -Hartree energ DENC   =      -905.02706850
  -exchange      EXHF   =       236.36695607
  -V(xc)+E(xc)   XCENC  =        36.55171229
  PAW double counting   =      3859.04504884    -3629.20979371
  entropy T*S    EENTRO =        -0.00000000
  eigenvalues    EBANDS =      -926.56726070
  atomic energy  EATOM  =      7218.34100571
  ---------------------------------------------------
  free energy    TOTEN  =       -84.08206287 eV

  energy without entropy =      -84.08206287  energy(sigma->0) =      -84.08206287
  exchange ACFDT corr.  =        -0.00000000  see jH, gK, PRB 81, 115126


--------------------------------------------------------------------------------------------------------




--------------------------------------- Iteration      1(   2)  ---------------------------------------


    POTLOK:  cpu time    0.0250: real time    0.0250
    SETDIJ:  cpu time    0.1150: real time    0.1150
    TRIAL :  cpu time  239.2137: real time  239.2162
    CORREC:  cpu time    0.0007: real time    0.0007
    CHARGE:  cpu time    0.0901: real time    0.0901
    --------------------------------------------
      LOOP:  cpu time  239.4473: real time  239.4516

 eigenvalue-minimisations  :     0
 total energy-change (2. order) :-0.2331092E+02  (-0.1820072E+02)
 number of electron     143.9999995 magnetization 
 augmentation part      -17.3477353 magnetization 

 Free energy of the ion-electron system (eV)
  ---------------------------------------------------
  alpha Z        PSCENC =       466.41095114
  Ewald energy   TEWEN  =     -6439.99361400
  -Hartree energ DENC   =      -894.06239773
  -exchange      EXHF   =       238.11690816
  -V(xc)+E(xc)   XCENC  =        36.25338886
  PAW double counting   =      3841.50898400    -3612.57079392
  entropy T*S    EENTRO =        -0.00000000
  eigenvalues    EBANDS =      -961.39741705
  atomic energy  EATOM  =      7218.34100571
  ---------------------------------------------------
  free energy    TOTEN  =      -107.39298483 eV

  energy without entropy =     -107.39298483  energy(sigma->0) =     -107.39298483
  exchange ACFDT corr.  =        -0.00000000  see jH, gK, PRB 81, 115126


--------------------------------------------------------------------------------------------------------




--------------------------------------- Iteration      1(   3)  ---------------------------------------


    POTLOK:  cpu time    0.0249: real time    0.0249
    SETDIJ:  cpu time    0.1158: real time    0.1158
    TRIAL :  cpu time  239.2936: real time  239.3141
    CORREC:  cpu time    0.0009: real time    0.0009
    CHARGE:  cpu time    0.0901: real time    0.0901
    --------------------------------------------
      LOOP:  cpu time  239.5268: real time  239.5504

 eigenvalue-minimisations  :     0
 total energy-change (2. order) :-0.1330033E+02  (-0.8212481E+01)
 number of electron     143.9999995 magnetization 
 augmentation part      -17.2796690 magnetization 

 Free energy of the ion-electron system (eV)
  ---------------------------------------------------
  alpha Z        PSCENC =       466.41095114
  Ewald energy   TEWEN  =     -6439.99361400
  -Hartree energ DENC   =      -890.48435369
  -exchange      EXHF   =       239.46568542
  -V(xc)+E(xc)   XCENC  =        36.18263283
  PAW double counting   =      3837.42532173    -3608.65917518
  entropy T*S    EENTRO =        -0.00000000
  eigenvalues    EBANDS =      -979.38177010
  atomic energy  EATOM  =      7218.34100571
  ---------------------------------------------------
  free energy    TOTEN  =      -120.69331614 eV

  energy without entropy =     -120.69331614  energy(sigma->0) =     -120.69331614
  exchange ACFDT corr.  =        -0.00000000  see jH, gK, PRB 81, 115126


--------------------------------------------------------------------------------------------------------




--------------------------------------- Iteration      1(   4)  ---------------------------------------


    POTLOK:  cpu time    0.0248: real time    0.0248
    SETDIJ:  cpu time    0.1153: real time    0.1155
    TRIAL :  cpu time  239.2529: real time  239.3146
    CORREC:  cpu time    0.0006: real time    0.0006
    CHARGE:  cpu time    0.0904: real time    0.0905
    --------------------------------------------
      LOOP:  cpu time  239.4862: real time  239.5512

 eigenvalue-minimisations  :     0
 total energy-change (2. order) :-0.6118511E+01  (-0.3779292E+01)
 number of electron     143.9999995 magnetization 
 augmentation part      -17.2473347 magnetization 

 Free energy of the ion-electron system (eV)
  ---------------------------------------------------
  alpha Z        PSCENC =       466.41095114
  Ewald energy   TEWEN  =     -6439.99361400
  -Hartree energ DENC   =      -896.00714772
  -exchange      EXHF   =       240.56708405
  -V(xc)+E(xc)   XCENC  =        36.45581068
  PAW double counting   =      3850.18111204    -3621.16313456
  entropy T*S    EENTRO =        -0.00000000
  eigenvalues    EBANDS =      -981.60389460
  atomic energy  EATOM  =      7218.34100571
  ---------------------------------------------------
  free energy    TOTEN  =      -126.81182726 eV

  energy without entropy =     -126.81182726  energy(sigma->0) =     -126.81182726
  exchange ACFDT corr.  =        -0.00000000  see jH, gK, PRB 81, 115126


--------------------------------------------------------------------------------------------------------




--------------------------------------- Iteration      1(   5)  ---------------------------------------


    POTLOK:  cpu time    0.0253: real time    0.0254
    SETDIJ:  cpu time    0.1154: real time    0.1155
    TRIAL :  cpu time  241.0869: real time  241.1491
    CORREC:  cpu time    0.0005: real time    0.0005
    CHARGE:  cpu time    0.0901: real time    0.0901
    --------------------------------------------
      LOOP:  cpu time  241.3193: real time  241.3830

 eigenvalue-minimisations  :     0
 total energy-change (2. order) :-0.2870161E+01  (-0.1724011E+01)
 number of electron     143.9999995 magnetization 
 augmentation part      -17.2392588 magnetization 

 Free energy of the ion-electron system (eV)
  ---------------------------------------------------
  alpha Z        PSCENC =       466.41095114
  Ewald energy   TEWEN  =     -6439.99361400
  -Hartree energ DENC   =      -900.08265859
  -exchange      EXHF   =       241.17557799
  -V(xc)+E(xc)   XCENC  =        36.66852437
  PAW double counting   =      3857.93040832    -3628.75980730
  entropy T*S    EENTRO =        -0.00000000
  eigenvalues    EBANDS =      -981.37237633
  atomic energy  EATOM  =      7218.34100571
  ---------------------------------------------------
  free energy    TOTEN  =      -129.68198868 eV

  energy without entropy =     -129.68198868  energy(sigma->0) =     -129.68198868
  exchange ACFDT corr.  =        -0.00000000  see jH, gK, PRB 81, 115126


--------------------------------------------------------------------------------------------------------




--------------------------------------- Iteration      1(   6)  ---------------------------------------


    POTLOK:  cpu time    0.0252: real time    0.0252
    SETDIJ:  cpu time    0.1160: real time    0.1160
    TRIAL :  cpu time  239.3995: real time  239.4615
    CORREC:  cpu time    0.0005: real time    0.0006
    CHARGE:  cpu time    0.0927: real time    0.0927
    --------------------------------------------
      LOOP:  cpu time  239.6349: real time  239.6969

 eigenvalue-minimisations  :     0
 total energy-change (2. order) :-0.1321746E+01  (-0.7696836E+00)
 number of electron     143.9999995 magnetization 
 augmentation part      -17.2457314 magnetization 

 Free energy of the ion-electron system (eV)
  ---------------------------------------------------
  alpha Z        PSCENC =       466.41095114
  Ewald energy   TEWEN  =     -6439.99361400
  -Hartree energ DENC   =      -899.43264078
  -exchange      EXHF   =       241.28141791
  -V(xc)+E(xc)   XCENC  =        36.66607187
  PAW double counting   =      3856.09816501    -3626.95772484
  entropy T*S    EENTRO =        -0.00000000
  eigenvalues    EBANDS =      -983.41736664
  atomic energy  EATOM  =      7218.34100571
  ---------------------------------------------------
  free energy    TOTEN  =      -131.00373462 eV

  energy without entropy =     -131.00373462  energy(sigma->0) =     -131.00373462
  exchange ACFDT corr.  =        -0.00000000  see jH, gK, PRB 81, 115126


--------------------------------------------------------------------------------------------------------




--------------------------------------- Iteration      1(   7)  ---------------------------------------


    POTLOK:  cpu time    0.0250: real time    0.0250
    SETDIJ:  cpu time    0.1156: real time    0.1156
    TRIAL :  cpu time  239.2385: real time  239.2995
    CORREC:  cpu time    0.0006: real time    0.0006
    CHARGE:  cpu time    0.0903: real time    0.0903
    --------------------------------------------
      LOOP:  cpu time  239.4710: real time  239.5320

 eigenvalue-minimisations  :     0
 total energy-change (2. order) :-0.5912794E+00  (-0.3314168E+00)
 number of electron     143.9999995 magnetization 
 augmentation part      -17.2548498 magnetization 

 Free energy of the ion-electron system (eV)
  ---------------------------------------------------
  alpha Z        PSCENC =       466.41095114
  Ewald energy   TEWEN  =     -6439.99361400
  -Hartree energ DENC   =      -897.47755466
  -exchange      EXHF   =       241.20054243
  -V(xc)+E(xc)   XCENC  =        36.58122828
  PAW double counting   =      3852.46194906    -3623.37606901
  entropy T*S    EENTRO =        -0.00000000
  eigenvalues    EBANDS =      -985.74345295
  atomic energy  EATOM  =      7218.34100571
  ---------------------------------------------------
  free energy    TOTEN  =      -131.59501400 eV

  energy without entropy =     -131.59501400  energy(sigma->0) =     -131.59501400
  exchange ACFDT corr.  =        -0.00000000  see jH, gK, PRB 81, 115126


--------------------------------------------------------------------------------------------------------




--------------------------------------- Iteration      1(   8)  ---------------------------------------


    POTLOK:  cpu time    0.0247: real time    0.0247
    SETDIJ:  cpu time    0.1150: real time    0.1150
    TRIAL :  cpu time  239.0235: real time  239.0851
    CORREC:  cpu time    0.0005: real time    0.0005
    CHARGE:  cpu time    0.0904: real time    0.0904
    --------------------------------------------
      LOOP:  cpu time  239.2551: real time  239.3167

 eigenvalue-minimisations  :     0
 total energy-change (2. order) :-0.2572653E+00  (-0.1425677E+00)
 number of electron     143.9999995 magnetization 
 augmentation part      -17.2611963 magnetization 

 Free energy of the ion-electron system (eV)
  ---------------------------------------------------
  alpha Z        PSCENC =       466.41095114
  Ewald energy   TEWEN  =     -6439.99361400
  -Hartree energ DENC   =      -896.94558224
  -exchange      EXHF   =       241.16834351
  -V(xc)+E(xc)   XCENC  =        36.54212585
  PAW double counting   =      3851.66756078    -3622.57538069
  entropy T*S    EENTRO =        -0.00000000
  eigenvalues    EBANDS =      -986.46768941
  atomic energy  EATOM  =      7218.34100571
  ---------------------------------------------------
  free energy    TOTEN  =      -131.85227935 eV

  energy without entropy =     -131.85227935  energy(sigma->0) =     -131.85227935
  exchange ACFDT corr.  =        -0.00000000  see jH, gK, PRB 81, 115126


--------------------------------------------------------------------------------------------------------




--------------------------------------- Iteration      1(   9)  ---------------------------------------


    POTLOK:  cpu time    0.0248: real time    0.0248
    SETDIJ:  cpu time    0.1158: real time    0.1158
    TRIAL :  cpu time  239.2530: real time  239.3138
    CORREC:  cpu time    0.0006: real time    0.0006
    CHARGE:  cpu time    0.0912: real time    0.0912
    --------------------------------------------
      LOOP:  cpu time  239.4863: real time  239.5472

 eigenvalue-minimisations  :     0
 total energy-change (2. order) :-0.1122080E+00  (-0.6222365E-01)
 number of electron     143.9999995 magnetization 
 augmentation part      -17.2639336 magnetization 

 Free energy of the ion-electron system (eV)
  ---------------------------------------------------
  alpha Z        PSCENC =       466.41095114
  Ewald energy   TEWEN  =     -6439.99361400
  -Hartree energ DENC   =      -897.29056335
  -exchange      EXHF   =       241.18693338
  -V(xc)+E(xc)   XCENC  =        36.54510415
  PAW double counting   =      3852.07299117    -3622.95332847
  entropy T*S    EENTRO =        -0.00000000
  eigenvalues    EBANDS =      -986.28396710
  atomic energy  EATOM  =      7218.34100571
  ---------------------------------------------------
  free energy    TOTEN  =      -131.96448737 eV

  energy without entropy =     -131.96448737  energy(sigma->0) =     -131.96448737
  exchange ACFDT corr.  =        -0.00000000  see jH, gK, PRB 81, 115126


--------------------------------------------------------------------------------------------------------




--------------------------------------- Iteration      1(  10)  ---------------------------------------


    POTLOK:  cpu time    0.0248: real time    0.0248
    SETDIJ:  cpu time    0.1151: real time    0.1151
    TRIAL :  cpu time  239.0991: real time  239.1598
    CORREC:  cpu time    0.0005: real time    0.0005
    CHARGE:  cpu time    0.0933: real time    0.0935
    --------------------------------------------
      LOOP:  cpu time  239.3336: real time  239.3955

 eigenvalue-minimisations  :     0
 total energy-change (2. order) :-0.4971727E-01  (-0.2831536E-01)
 number of electron     143.9999995 magnetization 
 augmentation part      -17.2648733 magnetization 

 Free energy of the ion-electron system (eV)
  ---------------------------------------------------
  alpha Z        PSCENC =       466.41095114
  Ewald energy   TEWEN  =     -6439.99361400
  -Hartree energ DENC   =      -897.51839534
  -exchange      EXHF   =       241.20275353
  -V(xc)+E(xc)   XCENC  =        36.55167098
  PAW double counting   =      3852.10809275    -3622.97109236
  entropy T*S    EENTRO =        -0.00000000
  eigenvalues    EBANDS =      -986.14557704
  atomic energy  EATOM  =      7218.34100571
  ---------------------------------------------------
  free energy    TOTEN  =      -132.01420464 eV

  energy without entropy =     -132.01420464  energy(sigma->0) =     -132.01420464
  exchange ACFDT corr.  =        -0.00000000  see jH, gK, PRB 81, 115126


--------------------------------------------------------------------------------------------------------




--------------------------------------- Iteration      1(  11)  ---------------------------------------


    POTLOK:  cpu time    0.0250: real time    0.0250
    SETDIJ:  cpu time    0.1150: real time    0.1150
    TRIAL :  cpu time  239.4595: real time  239.5215
    CORREC:  cpu time    0.0005: real time    0.0005
    CHARGE:  cpu time    0.0899: real time    0.0901
    --------------------------------------------
      LOOP:  cpu time  239.6909: real time  239.7531

 eigenvalue-minimisations  :     0
 total energy-change (2. order) :-0.2274361E-01  (-0.1292464E-01)
 number of electron     143.9999995 magnetization 
 augmentation part      -17.2654164 magnetization 

 Free energy of the ion-electron system (eV)
  ---------------------------------------------------
  alpha Z        PSCENC =       466.41095114
  Ewald energy   TEWEN  =     -6439.99361400
  -Hartree energ DENC   =      -897.43403734
  -exchange      EXHF   =       241.19996227
  -V(xc)+E(xc)   XCENC  =        36.54849364
  PAW double counting   =      3851.72279031    -3622.57989301
  entropy T*S    EENTRO =        -0.00000000
  eigenvalues    EBANDS =      -986.25260697
  atomic energy  EATOM  =      7218.34100571
  ---------------------------------------------------
  free energy    TOTEN  =      -132.03694825 eV

  energy without entropy =     -132.03694825  energy(sigma->0) =     -132.03694825
  exchange ACFDT corr.  =        -0.00000000  see jH, gK, PRB 81, 115126


--------------------------------------------------------------------------------------------------------




--------------------------------------- Iteration      1(  12)  ---------------------------------------


    POTLOK:  cpu time    0.0248: real time    0.0248
    SETDIJ:  cpu time    0.1159: real time    0.1159
    TRIAL :  cpu time  239.5888: real time  239.6553
    CORREC:  cpu time    0.0005: real time    0.0005
    CHARGE:  cpu time    0.0901: real time    0.0901
    --------------------------------------------
      LOOP:  cpu time  239.8212: real time  239.8877

 eigenvalue-minimisations  :     0
 total energy-change (2. order) :-0.1034951E-01  (-0.5804773E-02)
 number of electron     143.9999995 magnetization 
 augmentation part      -17.2658023 magnetization 

 Free energy of the ion-electron system (eV)
  ---------------------------------------------------
  alpha Z        PSCENC =       466.41095114
  Ewald energy   TEWEN  =     -6439.99361400
  -Hartree energ DENC   =      -897.29325212
  -exchange      EXHF   =       241.19204486
  -V(xc)+E(xc)   XCENC  =        36.54292119
  PAW double counting   =      3851.39252204    -3622.24776085
  entropy T*S    EENTRO =        -0.00000000
  eigenvalues    EBANDS =      -986.39211573
  atomic energy  EATOM  =      7218.34100571
  ---------------------------------------------------
  free energy    TOTEN  =      -132.04729776 eV

  energy without entropy =     -132.04729776  energy(sigma->0) =     -132.04729776
  exchange ACFDT corr.  =        -0.00000000  see jH, gK, PRB 81, 115126


--------------------------------------------------------------------------------------------------------




--------------------------------------- Iteration      1(  13)  ---------------------------------------


    POTLOK:  cpu time    0.0245: real time    0.0245
    SETDIJ:  cpu time    0.1160: real time    0.1160
    TRIAL :  cpu time  240.5820: real time  240.6431
    CORREC:  cpu time    0.0005: real time    0.0005
    CHARGE:  cpu time    0.0902: real time    0.0902
    --------------------------------------------
      LOOP:  cpu time  240.8137: real time  240.8762

 eigenvalue-minimisations  :     0
 total energy-change (2. order) :-0.4664892E-02  (-0.2639092E-02)
 number of electron     143.9999995 magnetization 
 augmentation part      -17.2659720 magnetization 

 Free energy of the ion-electron system (eV)
  ---------------------------------------------------
  alpha Z        PSCENC =       466.41095114
  Ewald energy   TEWEN  =     -6439.99361400
  -Hartree energ DENC   =      -897.26393220
  -exchange      EXHF   =       241.18996978
  -V(xc)+E(xc)   XCENC  =        36.54151691
  PAW double counting   =      3851.31866290    -3622.17200394
  entropy T*S    EENTRO =        -0.00000000
  eigenvalues    EBANDS =      -986.42451895
  atomic energy  EATOM  =      7218.34100571
  ---------------------------------------------------
  free energy    TOTEN  =      -132.05196265 eV

  energy without entropy =     -132.05196265  energy(sigma->0) =     -132.05196265
  exchange ACFDT corr.  =        -0.00000000  see jH, gK, PRB 81, 115126


--------------------------------------------------------------------------------------------------------




--------------------------------------- Iteration      1(  14)  ---------------------------------------


    POTLOK:  cpu time    0.0249: real time    0.0249
    SETDIJ:  cpu time    0.1152: real time    0.1152
    TRIAL :  cpu time  240.0005: real time  240.0616
    CORREC:  cpu time    0.0006: real time    0.0008
    CHARGE:  cpu time    0.0927: real time    0.0927
    --------------------------------------------
      LOOP:  cpu time  240.2352: real time  240.2964

 eigenvalue-minimisations  :     0
 total energy-change (2. order) :-0.2130305E-02  (-0.1227356E-02)
 number of electron     143.9999995 magnetization 
 augmentation part      -17.2659383 magnetization 

 Free energy of the ion-electron system (eV)
  ---------------------------------------------------
  alpha Z        PSCENC =       466.41095114
  Ewald energy   TEWEN  =     -6439.99361400
  -Hartree energ DENC   =      -897.28839744
  -exchange      EXHF   =       241.19127117
  -V(xc)+E(xc)   XCENC  =        36.54226949
  PAW double counting   =      3851.34738827    -3622.19936958
  entropy T*S    EENTRO =        -0.00000000
  eigenvalues    EBANDS =      -986.40559772
  atomic energy  EATOM  =      7218.34100571
  ---------------------------------------------------
  free energy    TOTEN  =      -132.05409296 eV

  energy without entropy =     -132.05409296  energy(sigma->0) =     -132.05409296
  exchange ACFDT corr.  =        -0.00000000  see jH, gK, PRB 81, 115126


--------------------------------------------------------------------------------------------------------




--------------------------------------- Iteration      1(  15)  ---------------------------------------


    POTLOK:  cpu time    0.0247: real time    0.0248
    SETDIJ:  cpu time    0.1185: real time    0.1185
    TRIAL :  cpu time  239.4822: real time  239.5428
    CORREC:  cpu time    0.0005: real time    0.0005
    CHARGE:  cpu time    0.0902: real time    0.0902
    --------------------------------------------
      LOOP:  cpu time  239.7172: real time  239.7786

 eigenvalue-minimisations  :     0
 total energy-change (2. order) :-0.9951541E-03  (-0.5996281E-03)
 number of electron     143.9999995 magnetization 
 augmentation part      -17.2658398 magnetization 

 Free energy of the ion-electron system (eV)
  ---------------------------------------------------
  alpha Z        PSCENC =       466.41095114
  Ewald energy   TEWEN  =     -6439.99361400
  -Hartree energ DENC   =      -897.29847108
  -exchange      EXHF   =       241.19204908
  -V(xc)+E(xc)   XCENC  =        36.54250623
  PAW double counting   =      3851.35286475    -3622.20455819
  entropy T*S    EENTRO =        -0.00000000
  eigenvalues    EBANDS =      -986.39782175
  atomic energy  EATOM  =      7218.34100571
  ---------------------------------------------------
  free energy    TOTEN  =      -132.05508811 eV

  energy without entropy =     -132.05508811  energy(sigma->0) =     -132.05508811
  exchange ACFDT corr.  =        -0.00000000  see jH, gK, PRB 81, 115126


--------------------------------------------------------------------------------------------------------




--------------------------------------- Iteration      1(  16)  ---------------------------------------


    POTLOK:  cpu time    0.0246: real time    0.0246
    SETDIJ:  cpu time    0.1154: real time    0.1154
    TRIAL :  cpu time  239.5418: real time  239.6022
    CORREC:  cpu time    0.0006: real time    0.0006
    CHARGE:  cpu time    0.0899: real time    0.0899
    --------------------------------------------
      LOOP:  cpu time  239.7739: real time  239.8342

 eigenvalue-minimisations  :     0
 total energy-change (2. order) :-0.4885598E-03  (-0.3112837E-03)
 number of electron     143.9999995 magnetization 
 augmentation part      -17.2657629 magnetization 

 Free energy of the ion-electron system (eV)
  ---------------------------------------------------
  alpha Z        PSCENC =       466.41095114
  Ewald energy   TEWEN  =     -6439.99361400
  -Hartree energ DENC   =      -897.29007952
  -exchange      EXHF   =       241.19184626
  -V(xc)+E(xc)   XCENC  =        36.54206705
  PAW double counting   =      3851.32554094    -3622.17762118
  entropy T*S    EENTRO =        -0.00000000
  eigenvalues    EBANDS =      -986.40567306
  atomic energy  EATOM  =      7218.34100571
  ---------------------------------------------------
  free energy    TOTEN  =      -132.05557667 eV

  energy without entropy =     -132.05557667  energy(sigma->0) =     -132.05557667
  exchange ACFDT corr.  =        -0.00000000  see jH, gK, PRB 81, 115126


--------------------------------------------------------------------------------------------------------




--------------------------------------- Iteration      1(  17)  ---------------------------------------


    POTLOK:  cpu time    0.0246: real time    0.0246
    SETDIJ:  cpu time    0.1166: real time    0.1166
    TRIAL :  cpu time  240.2771: real time  240.8040
    CORREC:  cpu time    0.0006: real time    0.0006
    CHARGE:  cpu time    0.1029: real time    0.1035
    --------------------------------------------
      LOOP:  cpu time  240.5227: real time  241.0502

 eigenvalue-minimisations  :     0
 total energy-change (2. order) :-0.2553822E-03  (-0.1716895E-03)
 number of electron     143.9999995 magnetization 
 augmentation part      -17.2657052 magnetization 

 Free energy of the ion-electron system (eV)
  ---------------------------------------------------
  alpha Z        PSCENC =       466.41095114
  Ewald energy   TEWEN  =     -6439.99361400
  -Hartree energ DENC   =      -897.28226253
  -exchange      EXHF   =       241.19162924
  -V(xc)+E(xc)   XCENC  =        36.54171890
  PAW double counting   =      3851.29924700    -3622.15179048
  entropy T*S    EENTRO =        -0.00000000
  eigenvalues    EBANDS =      -986.41271703
  atomic energy  EATOM  =      7218.34100571
  ---------------------------------------------------
  free energy    TOTEN  =      -132.05583205 eV

  energy without entropy =     -132.05583205  energy(sigma->0) =     -132.05583205
  exchange ACFDT corr.  =        -0.00000000  see jH, gK, PRB 81, 115126


--------------------------------------------------------------------------------------------------------




--------------------------------------- Iteration      1(  18)  ---------------------------------------


    POTLOK:  cpu time    0.0267: real time    0.0268
    SETDIJ:  cpu time    0.1192: real time    0.1200
    TRIAL :  cpu time  239.3182: real time  239.3786
    CORREC:  cpu time    0.0005: real time    0.0005
    CHARGE:  cpu time    0.0908: real time    0.0908
    --------------------------------------------
      LOOP:  cpu time  239.5998: real time  239.6609

 eigenvalue-minimisations  :     0
 total energy-change (2. order) :-0.1421551E-03  (-0.9980678E-04)
 number of electron     143.9999995 magnetization 
 augmentation part      -17.2656551 magnetization 

 Free energy of the ion-electron system (eV)
  ---------------------------------------------------
  alpha Z        PSCENC =       466.41095114
  Ewald energy   TEWEN  =     -6439.99361400
  -Hartree energ DENC   =      -897.28127209
  -exchange      EXHF   =       241.19174652
  -V(xc)+E(xc)   XCENC  =        36.54168201
  PAW double counting   =      3851.28945403    -3622.14224816
  entropy T*S    EENTRO =        -0.00000000
  eigenvalues    EBANDS =      -986.41367937
  atomic energy  EATOM  =      7218.34100571
  ---------------------------------------------------
  free energy    TOTEN  =      -132.05597421 eV

  energy without entropy =     -132.05597421  energy(sigma->0) =     -132.05597421
  exchange ACFDT corr.  =        -0.00000000  see jH, gK, PRB 81, 115126


--------------------------------------------------------------------------------------------------------




--------------------------------------- Iteration      1(  19)  ---------------------------------------


    POTLOK:  cpu time    0.0246: real time    0.0246
    SETDIJ:  cpu time    0.1160: real time    0.1160
    TRIAL :  cpu time  239.7600: real time  239.8212
    CORREC:  cpu time    0.0006: real time    0.0006
    CHARGE:  cpu time    0.0902: real time    0.0903
    --------------------------------------------
      LOOP:  cpu time  239.9924: real time  240.0538

 eigenvalue-minimisations  :     0
 total energy-change (2. order) :-0.8354791E-04  (-0.6121617E-04)
 number of electron     143.9999995 magnetization 
 augmentation part      -17.2656154 magnetization 

 Free energy of the ion-electron system (eV)
  ---------------------------------------------------
  alpha Z        PSCENC =       466.41095114
  Ewald energy   TEWEN  =     -6439.99361400
  -Hartree energ DENC   =      -897.28259689
  -exchange      EXHF   =       241.19195384
  -V(xc)+E(xc)   XCENC  =        36.54175311
  PAW double counting   =      3851.28833439    -3622.14125092
  entropy T*S    EENTRO =        -0.00000000
  eigenvalues    EBANDS =      -986.41259412
  atomic energy  EATOM  =      7218.34100571
  ---------------------------------------------------
  free energy    TOTEN  =      -132.05605776 eV

  energy without entropy =     -132.05605776  energy(sigma->0) =     -132.05605776
  exchange ACFDT corr.  =        -0.00000000  see jH, gK, PRB 81, 115126


--------------------------------------------------------------------------------------------------------




--------------------------------------- Iteration      1(  20)  ---------------------------------------


    POTLOK:  cpu time    0.0253: real time    0.0253
    SETDIJ:  cpu time    0.1151: real time    0.1151
    TRIAL :  cpu time  240.8705: real time  240.9319
    CORREC:  cpu time    0.0005: real time    0.0005
    CHARGE:  cpu time    0.0909: real time    0.0909
    --------------------------------------------
      LOOP:  cpu time  241.1034: real time  241.1690

 eigenvalue-minimisations  :     0
 total energy-change (2. order) :-0.5183627E-04  (-0.3929162E-04)
 number of electron     143.9999995 magnetization 
 augmentation part      -17.2655901 magnetization 

 Free energy of the ion-electron system (eV)
  ---------------------------------------------------
  alpha Z        PSCENC =       466.41095114
  Ewald energy   TEWEN  =     -6439.99361400
  -Hartree energ DENC   =      -897.28318784
  -exchange      EXHF   =       241.19209080
  -V(xc)+E(xc)   XCENC  =        36.54180365
  PAW double counting   =      3851.28739737    -3622.14042414
  entropy T*S    EENTRO =        -0.00000000
  eigenvalues    EBANDS =      -986.41213229
  atomic energy  EATOM  =      7218.34100571
  ---------------------------------------------------
  free energy    TOTEN  =      -132.05610959 eV

  energy without entropy =     -132.05610959  energy(sigma->0) =     -132.05610959
  exchange ACFDT corr.  =        -0.00000000  see jH, gK, PRB 81, 115126


--------------------------------------------------------------------------------------------------------




--------------------------------------- Iteration      1(  21)  ---------------------------------------


    POTLOK:  cpu time    0.0259: real time    0.0259
    SETDIJ:  cpu time    0.1136: real time    0.1136
    TRIAL :  cpu time  238.6464: real time  238.7074
    CORREC:  cpu time    0.0005: real time    0.0005
    CHARGE:  cpu time    0.0897: real time    0.0897
    --------------------------------------------
      LOOP:  cpu time  238.8768: real time  238.9382

 eigenvalue-minimisations  :     0
 total energy-change (2. order) :-0.3366756E-04  (-0.2623380E-04)
 number of electron     143.9999995 magnetization 
 augmentation part      -17.2655761 magnetization 

 Free energy of the ion-electron system (eV)
  ---------------------------------------------------
  alpha Z        PSCENC =       466.41095114
  Ewald energy   TEWEN  =     -6439.99361400
  -Hartree energ DENC   =      -897.28315518
  -exchange      EXHF   =       241.19216323
  -V(xc)+E(xc)   XCENC  =        36.54182790
  PAW double counting   =      3851.28549523    -3622.13862542
  entropy T*S    EENTRO =        -0.00000000
  eigenvalues    EBANDS =      -986.41219188
  atomic energy  EATOM  =      7218.34100571
  ---------------------------------------------------
  free energy    TOTEN  =      -132.05614326 eV

  energy without entropy =     -132.05614326  energy(sigma->0) =     -132.05614326
  exchange ACFDT corr.  =        -0.00000000  see jH, gK, PRB 81, 115126


--------------------------------------------------------------------------------------------------------




--------------------------------------- Iteration      1(  22)  ---------------------------------------


    POTLOK:  cpu time    0.0249: real time    0.0249
    SETDIJ:  cpu time    0.1149: real time    0.1149
    TRIAL :  cpu time  239.3128: real time  239.3730
    CORREC:  cpu time    0.0006: real time    0.0006
    CHARGE:  cpu time    0.0923: real time    0.0923
    --------------------------------------------
      LOOP:  cpu time  239.5465: real time  239.6067

 eigenvalue-minimisations  :     0
 total energy-change (2. order) :-0.2273358E-04  (-0.1804177E-04)
 number of electron     143.9999995 magnetization 
 augmentation part      -17.2655701 magnetization 

 Free energy of the ion-electron system (eV)
  ---------------------------------------------------
  alpha Z        PSCENC =       466.41095114
  Ewald energy   TEWEN  =     -6439.99361400
  -Hartree energ DENC   =      -897.28318808
  -exchange      EXHF   =       241.19221250
  -V(xc)+E(xc)   XCENC  =        36.54184535
  PAW double counting   =      3851.28426156    -3622.13745638
  entropy T*S    EENTRO =        -0.00000000
  eigenvalues    EBANDS =      -986.41218378
  atomic energy  EATOM  =      7218.34100571
  ---------------------------------------------------
  free energy    TOTEN  =      -132.05616599 eV

  energy without entropy =     -132.05616599  energy(sigma->0) =     -132.05616599
  exchange ACFDT corr.  =        -0.00000000  see jH, gK, PRB 81, 115126


--------------------------------------------------------------------------------------------------------




--------------------------------------- Iteration      1(  23)  ---------------------------------------


    POTLOK:  cpu time    0.0246: real time    0.0246
    SETDIJ:  cpu time    0.1156: real time    0.1156
    TRIAL :  cpu time  239.6084: real time  239.6694
    CORREC:  cpu time    0.0005: real time    0.0005
    CHARGE:  cpu time    0.0902: real time    0.0902
    --------------------------------------------
      LOOP:  cpu time  239.8405: real time  239.9017

 eigenvalue-minimisations  :     0
 total energy-change (2. order) :-0.1578425E-04  (-0.1272007E-04)
 number of electron     143.9999995 magnetization 
 augmentation part      -17.2655696 magnetization 

 Free energy of the ion-electron system (eV)
  ---------------------------------------------------
  alpha Z        PSCENC =       466.41095114
  Ewald energy   TEWEN  =     -6439.99361400
  -Hartree energ DENC   =      -897.28335895
  -exchange      EXHF   =       241.19225121
  -V(xc)+E(xc)   XCENC  =        36.54186025
  PAW double counting   =      3851.28384701    -3622.13706928
  entropy T*S    EENTRO =        -0.00000000
  eigenvalues    EBANDS =      -986.41205487
  atomic energy  EATOM  =      7218.34100571
  ---------------------------------------------------
  free energy    TOTEN  =      -132.05618178 eV

  energy without entropy =     -132.05618178  energy(sigma->0) =     -132.05618178
  exchange ACFDT corr.  =        -0.00000000  see jH, gK, PRB 81, 115126


--------------------------------------------------------------------------------------------------------




--------------------------------------- Iteration      1(  24)  ---------------------------------------


    POTLOK:  cpu time    0.0246: real time    0.0246
    SETDIJ:  cpu time    0.1150: real time    0.1150
    TRIAL :  cpu time  239.8550: real time  239.8956
    CORREC:  cpu time    0.0016: real time    0.0016
    CHARGE:  cpu time    0.0941: real time    0.0941
    --------------------------------------------
      LOOP:  cpu time  240.0911: real time  240.1322

 eigenvalue-minimisations  :     0
 total energy-change (2. order) :-0.1121000E-04  (-0.9169210E-05)
 number of electron     143.9999995 magnetization 
 augmentation part      -17.2655728 magnetization 

 Free energy of the ion-electron system (eV)
  ---------------------------------------------------
  alpha Z        PSCENC =       466.41095114
  Ewald energy   TEWEN  =     -6439.99361400
  -Hartree energ DENC   =      -897.28354870
  -exchange      EXHF   =       241.19228078
  -V(xc)+E(xc)   XCENC  =        36.54187233
  PAW double counting   =      3851.28375413    -3622.13698350
  entropy T*S    EENTRO =        -0.00000000
  eigenvalues    EBANDS =      -986.41191088
  atomic energy  EATOM  =      7218.34100571
  ---------------------------------------------------
  free energy    TOTEN  =      -132.05619299 eV

  energy without entropy =     -132.05619299  energy(sigma->0) =     -132.05619299
  exchange ACFDT corr.  =        -0.00000000  see jH, gK, PRB 81, 115126


--------------------------------------------------------------------------------------------------------




--------------------------------------- Iteration      1(  25)  ---------------------------------------


    POTLOK:  cpu time    0.0245: real time    0.0245
    SETDIJ:  cpu time    0.1156: real time    0.1157
    TRIAL :  cpu time  239.6514: real time  239.6538
    CORREC:  cpu time    0.0005: real time    0.0005
    CHARGE:  cpu time    0.0919: real time    0.0919
    --------------------------------------------
      LOOP:  cpu time  239.8851: real time  239.8885

 eigenvalue-minimisations  :     0
 total energy-change (2. order) :-0.8128053E-05  (-0.6748501E-05)
 number of electron     143.9999995 magnetization 
 augmentation part      -17.2655786 magnetization 

 Free energy of the ion-electron system (eV)
  ---------------------------------------------------
  alpha Z        PSCENC =       466.41095114
  Ewald energy   TEWEN  =     -6439.99361400
  -Hartree energ DENC   =      -897.28369417
  -exchange      EXHF   =       241.19230060
  -V(xc)+E(xc)   XCENC  =        36.54187996
  PAW double counting   =      3851.28377964    -3622.13700307
  entropy T*S    EENTRO =        -0.00000000
  eigenvalues    EBANDS =      -986.41180693
  atomic energy  EATOM  =      7218.34100571
  ---------------------------------------------------
  free energy    TOTEN  =      -132.05620112 eV

  energy without entropy =     -132.05620112  energy(sigma->0) =     -132.05620112
  exchange ACFDT corr.  =        -0.00000000  see jH, gK, PRB 81, 115126


--------------------------------------------------------------------------------------------------------




--------------------------------------- Iteration      1(  26)  ---------------------------------------


    POTLOK:  cpu time    0.0247: real time    0.0247
    SETDIJ:  cpu time    0.1149: real time    0.1149
    TRIAL :  cpu time  239.4048: real time  239.4527
    CORREC:  cpu time    0.0005: real time    0.0005
    CHARGE:  cpu time    0.0900: real time    0.0901
    --------------------------------------------
      LOOP:  cpu time  239.6356: real time  239.6839

 eigenvalue-minimisations  :     0
 total energy-change (2. order) :-0.6008310E-05  (-0.5097552E-05)
 number of electron     143.9999995 magnetization 
 augmentation part      -17.2655862 magnetization 

 Free energy of the ion-electron system (eV)
  ---------------------------------------------------
  alpha Z        PSCENC =       466.41095114
  Ewald energy   TEWEN  =     -6439.99361400
  -Hartree energ DENC   =      -897.28380117
  -exchange      EXHF   =       241.19231285
  -V(xc)+E(xc)   XCENC  =        36.54188365
  PAW double counting   =      3851.28389177    -3622.13709960
  entropy T*S    EENTRO =        -0.00000000
  eigenvalues    EBANDS =      -986.41173746
  atomic energy  EATOM  =      7218.34100571
  ---------------------------------------------------
  free energy    TOTEN  =      -132.05620712 eV

  energy without entropy =     -132.05620712  energy(sigma->0) =     -132.05620712
  exchange ACFDT corr.  =        -0.00000000  see jH, gK, PRB 81, 115126


--------------------------------------------------------------------------------------------------------




--------------------------------------- Iteration      1(  27)  ---------------------------------------


    POTLOK:  cpu time    0.0271: real time    0.0271
    SETDIJ:  cpu time    0.1129: real time    0.1129
    TRIAL :  cpu time  239.3519: real time  239.4130
    CORREC:  cpu time    0.0006: real time    0.0006
    CHARGE:  cpu time    0.0901: real time    0.0901
    --------------------------------------------
      LOOP:  cpu time  239.5836: real time  239.6448

 eigenvalue-minimisations  :     0
[...]
     10     -10.9238      2.00000
     11     -10.9121      2.00000
     12     -10.9121      2.00000
     13     -10.7979      2.00000
     14     -10.7979      2.00000
     15     -10.7366      2.00000
     16     -10.7366      2.00000
     17     -10.6114      2.00000
     18     -10.6114      2.00000
     19     -10.6066      2.00000
     20     -10.6066      2.00000
     21     -10.5560      2.00000
     22     -10.5560      2.00000
     23     -10.5076      2.00000
     24     -10.5076      2.00000
     25     -10.4560      2.00000
     26     -10.4560      2.00000
     27     -10.4467      2.00000
     28     -10.4467      2.00000
     29     -10.4127      2.00000
     30     -10.4127      2.00000
     31     -10.4056      2.00000
     32     -10.4056      2.00000
     33      -8.3373      2.00000
     34      -8.3373      2.00000
     35      -8.3129      2.00000
     36      -8.3129      2.00000
     37      -3.4346      2.00000
     38      -3.4346      2.00000
     39      -3.3537      2.00000
     40      -3.3537      2.00000
     41      -3.1085      2.00000
     42      -3.1085      2.00000
     43      -2.9965      2.00000
     44      -2.9965      2.00000
     45      -2.9550      2.00000
     46      -2.9549      2.00000
     47      -2.8859      2.00000
     48      -2.8859      2.00000
     49       0.7470      2.00000
     50       0.7470      2.00000
     51       0.8993      2.00000
     52       0.8993      2.00000
     53       1.2385      2.00000
     54       1.2385      2.00000
     55       1.2751      2.00000
     56       1.2751      2.00000
     57       1.5805      2.00000
     58       1.5805      2.00000
     59       1.6985      2.00000
     60       1.6985      2.00000
     61       1.7352      2.00000
     62       1.7352      2.00000
     63       2.0797      2.00000
     64       2.0797      2.00000
     65       2.3185      2.00000
     66       2.3186      2.00000
     67       2.3441      2.00000
     68       2.3441      2.00000
     69       2.6557      2.00000
     70       2.6557      2.00000
     71       2.9500      2.00000
     72       2.9500      2.00000
     73       4.7530      0.00000
     74       4.7530      0.00000
     75       4.9443      0.00000
     76       4.9443      0.00000
     77       5.3069      0.00000
     78       5.3069      0.00000
     79       5.5285      0.00000
     80       5.5285      0.00000
     81       5.6730      0.00000
     82       5.6730      0.00000
     83       6.0775      0.00000
     84       6.0776      0.00000
     85       6.3031      0.00000
     86       6.3032      0.00000
     87       6.4178      0.00000
     88       6.4183      0.00000

 k-point    20 :       0.5000    0.5000    0.0000
  band No.  band energies     occupation 
      1     -26.2994      2.00000
      2     -26.2994      2.00000
      3     -26.2994      2.00000
      4     -26.2994      2.00000
      5     -26.1830      2.00000
      6     -26.1830      2.00000
      7     -26.1830      2.00000
      8     -26.1830      2.00000
      9     -10.9285      2.00000
     10     -10.9285      2.00000
     11     -10.9285      2.00000
     12     -10.9285      2.00000
     13     -10.7624      2.00000
     14     -10.7624      2.00000
     15     -10.7624      2.00000
     16     -10.7624      2.00000
     17     -10.6005      2.00000
     18     -10.6005      2.00000
     19     -10.6005      2.00000
     20     -10.6005      2.00000
     21     -10.5298      2.00000
     22     -10.5298      2.00000
     23     -10.5298      2.00000
     24     -10.5298      2.00000
     25     -10.4584      2.00000
     26     -10.4584      2.00000
     27     -10.4584      2.00000
     28     -10.4584      2.00000
     29     -10.4080      2.00000
     30     -10.4080      2.00000
     31     -10.4080      2.00000
     32     -10.4080      2.00000
     33      -8.3183      2.00000
     34      -8.3183      2.00000
     35      -8.3183      2.00000
     36      -8.3183      2.00000
     37      -3.4105      2.00000
     38      -3.4105      2.00000
     39      -3.4105      2.00000
     40      -3.4105      2.00000
     41      -3.0713      2.00000
     42      -3.0713      2.00000
     43      -3.0713      2.00000
     44      -3.0713      2.00000
     45      -2.9303      2.00000
     46      -2.9303      2.00000
     47      -2.9303      2.00000
     48      -2.9302      2.00000
     49       0.8621      2.00000
     50       0.8621      2.00000
     51       0.8621      2.00000
     52       0.8621      2.00000
     53       1.3405      2.00000
     54       1.3405      2.00000
     55       1.3405      2.00000
     56       1.3405      2.00000
     57       1.6438      2.00000
     58       1.6438      2.00000
     59       1.6438      2.00000
     60       1.6438      2.00000
     61       1.8864      2.00000
     62       1.8864      2.00000
     63       1.8864      2.00000
     64       1.8864      2.00000
     65       2.3487      2.00000
     66       2.3487      2.00000
     67       2.3487      2.00000
     68       2.3487      2.00000
     69       2.7938      2.00000
     70       2.7938      2.00000
     71       2.7938      2.00000
     72       2.7938      2.00000
     73       4.8630      0.00000
     74       4.8630      0.00000
     75       4.8630      0.00000
     76       4.8630      0.00000
     77       5.4323      0.00000
     78       5.4323      0.00000
     79       5.4323      0.00000
     80       5.4323      0.00000
     81       5.7401      0.00000
     82       5.7401      0.00000
     83       5.7451      0.00000
     84       5.7451      0.00000
     85       6.2591      0.00000
     86       6.2592      0.00000
     87       6.2786      0.00000
     88       6.2790      0.00000


--------------------------------------------------------------------------------------------------------


 soft charge-density along one line, spin component           1
         0         1         2         3         4         5         6         7         8         9
 total charge-density along one line
 
 pseudopotential strength for first ion, spin component:           1
  0.975  -3.961   0.000   0.004   0.003  -0.000   0.001   0.001
 -3.961  -2.817  -0.000  -0.001  -0.000   0.000   0.001   0.000
  0.000  -0.000  -7.862   0.000  -0.000   0.531   0.000  -0.000
  0.004  -0.001   0.000  -7.861  -0.001   0.000   0.533  -0.001
  0.003  -0.000  -0.000  -0.001  -7.861  -0.000  -0.001   0.532
 -0.000   0.000   0.531   0.000  -0.000   7.719  -0.000  -0.000
  0.001   0.001   0.000   0.533  -0.001  -0.000   7.719  -0.000
  0.001   0.000  -0.000  -0.001   0.532  -0.000  -0.000   7.719
 -0.000   0.000   0.001  -0.000   0.000   0.001  -0.000  -0.000
  0.000  -0.000   0.001   0.000  -0.000   0.001  -0.000  -0.000
  0.000  -0.000  -0.000   0.001  -0.001   0.000   0.001  -0.000
 -0.001   0.000  -0.000   0.001   0.001  -0.000   0.001   0.000
  0.000  -0.000  -0.000  -0.000   0.001   0.000  -0.000   0.000
  0.000   0.000  -0.000   0.000   0.000   0.000   0.000   0.000
 -0.000  -0.000  -0.000   0.000   0.000  -0.000   0.000   0.000
 -0.000  -0.000   0.000  -0.000   0.000  -0.000  -0.000  -0.000
  0.000   0.000   0.000  -0.000  -0.000   0.000  -0.000  -0.000
 -0.000  -0.000  -0.000   0.000  -0.000  -0.000   0.000  -0.000
 total augmentation occupancy for first ion, spin component:           1
  2.073  -0.193  -0.000  -0.006  -0.005   0.000   0.003   0.002  -0.000   0.000   0.004  -0.010  -0.001   0.000   0.000  -0.005
 -0.193   0.552   0.000   0.016   0.012  -0.000  -0.007  -0.003   0.000  -0.000  -0.007   0.020   0.003  -0.000  -0.000   0.013
 -0.000   0.000   2.018  -0.000  -0.000  -0.013   0.000   0.000  -0.015  -0.002   0.000   0.000   0.000   0.018   0.004   0.000
 -0.006   0.016  -0.000   2.015   0.002   0.000  -0.011  -0.002   0.000  -0.000   0.005   0.028   0.006   0.000  -0.000   0.004
 -0.005   0.012  -0.000   0.002   2.016   0.000  -0.002  -0.013   0.000   0.000   0.016   0.010   0.016   0.000   0.000  -0.020
  0.000  -0.000  -0.013   0.000   0.000   0.010  -0.000  -0.000   0.006   0.003  -0.000   0.000  -0.000  -0.013  -0.006  -0.000
  0.003  -0.007   0.000  -0.011  -0.002  -0.000   0.010   0.001  -0.000   0.000  -0.002  -0.009  -0.003  -0.000   0.000   0.004
  0.002  -0.003   0.000  -0.002  -0.013  -0.000   0.001   0.011  -0.000  -0.000  -0.006  -0.004  -0.005   0.000  -0.000   0.013
 -0.000   0.000  -0.015   0.000   0.000   0.006  -0.000  -0.000   0.109  -0.039  -0.000   0.000  -0.000  -0.237   0.085   0.000
  0.000  -0.000  -0.002  -0.000   0.000   0.003   0.000  -0.000  -0.039   0.068  -0.000   0.000   0.000   0.086  -0.148   0.000
  0.004  -0.007   0.000   0.005   0.016  -0.000  -0.002  -0.006  -0.000  -0.000   0.096   0.026   0.009   0.000  -0.000  -0.207
 -0.010   0.020   0.000   0.028   0.010   0.000  -0.009  -0.004   0.000   0.000   0.026   0.104   0.028   0.000  -0.000  -0.059
 -0.001   0.003   0.000   0.006   0.016  -0.000  -0.003  -0.005  -0.000   0.000   0.009   0.028   0.076   0.000   0.000  -0.018
  0.000  -0.000   0.018   0.000   0.000  -0.013  -0.000   0.000  -0.237   0.086   0.000   0.000   0.000   0.545  -0.201   0.000
  0.000  -0.000   0.004  -0.000   0.000  -0.006   0.000  -0.000   0.085  -0.148  -0.000  -0.000   0.000  -0.201   0.335  -0.000
 -0.005   0.013   0.000   0.004  -0.020  -0.000   0.004   0.013   0.000   0.000  -0.207  -0.059  -0.018   0.000  -0.000   0.472
  0.011  -0.032   0.000  -0.035  -0.001  -0.000   0.020   0.007  -0.000  -0.000  -0.059  -0.220  -0.059  -0.000   0.000   0.148
  0.003  -0.014   0.000  -0.001  -0.020  -0.000   0.006   0.010  -0.000  -0.000  -0.018  -0.060  -0.162   0.000  -0.000   0.039


------------------------ aborting loop because EDIFF is reached ----------------------------------------


 


 total charge     
 
# of ion       s       p       d       tot
------------------------------------------
    1        2.011   5.604   0.292   7.908
    2        2.011   5.604   0.292   7.908
    3        2.011   5.604   0.292   7.908
    4        2.011   5.604   0.292   7.908
    5        2.005   5.597   0.285   7.887
    6        2.005   5.597   0.285   7.887
    7        2.005   5.597   0.285   7.887
    8        2.005   5.597   0.285   7.887
    9        0.808   0.876   0.000   1.684
   10        0.808   0.876   0.000   1.684
   11        0.808   0.876   0.000   1.684
   12        0.808   0.876   0.000   1.684
   13        0.808   0.875   0.000   1.683
   14        0.808   0.875   0.000   1.683
   15        0.808   0.875   0.000   1.683
   16        0.808   0.875   0.000   1.683
   17        0.822   0.826   0.000   1.648
   18        0.822   0.826   0.000   1.648
   19        0.822   0.826   0.000   1.648
   20        0.822   0.826   0.000   1.648
   21        0.806   0.873   0.000   1.678
   22        0.806   0.873   0.000   1.678
   23        0.806   0.873   0.000   1.678
   24        0.806   0.873   0.000   1.678
--------------------------------------------------
tot         29.038  58.600   2.309  89.948
 
    FORLOC:  cpu time    0.0023: real time    0.0023
    FORHF :  cpu time  257.7962: real time  257.7984
    FORNL :  cpu time    0.0718: real time    0.0718
    FORCOR:  cpu time    0.1463: real time    0.1466
    OFIELD:  cpu time    0.0001: real time    0.0001

 VOLUME and BASIS-vectors are now :
 -----------------------------------------------------------------------------
  energy-cutoff  :      500.00
  volume of cell :      690.02
      direct lattice vectors                 reciprocal lattice vectors
     8.926066514  0.000000000  0.000000000     0.112031430  0.000000000  0.000000000
     0.000000000  6.720194351  0.000000000     0.000000000  0.148805220  0.000000000
     0.000000000  0.000000000 11.503185803     0.000000000  0.000000000  0.086932439

  length of vectors
     8.926066514  6.720194351 11.503185803     0.112031430  0.148805220  0.086932439


 FORCES acting on ions:
    Electron-Ion                     Ewald-Force                    Non-Local-Force
 -----------------------------------------------------------------------------------------------
   0.270E+01 0.277E-04 0.182E+01   -.306E+01 0.141E-04 -.213E+01   0.301E+00 -.171E-18 0.255E+00
   -.270E+01 -.379E-04 -.182E+01   0.306E+01 -.201E-04 0.213E+01   -.301E+00 -.162E-18 -.255E+00
   -.270E+01 0.230E-04 0.182E+01   0.306E+01 -.201E-04 -.213E+01   -.301E+00 -.273E-19 0.255E+00
   0.270E+01 -.331E-04 -.182E+01   -.306E+01 0.141E-04 0.213E+01   0.301E+00 0.160E-18 -.255E+00
   -.225E+02 0.135E-04 -.620E+01   0.215E+02 -.178E-04 0.619E+01   0.699E+00 -.820E-19 -.459E-01
   0.225E+02 -.251E-04 0.620E+01   -.215E+02 0.172E-04 -.619E+01   -.699E+00 -.747E-18 0.459E-01
   0.225E+02 -.138E-04 -.620E+01   -.215E+02 0.172E-04 0.619E+01   -.699E+00 0.631E-18 -.459E-01
   -.225E+02 0.429E-06 0.620E+01   0.215E+02 -.178E-04 -.619E+01   0.699E+00 -.500E-18 0.459E-01
   0.103E+02 0.304E+02 -.166E+02   -.108E+02 -.319E+02 0.174E+02   0.605E+00 0.172E+01 -.976E+00
   -.103E+02 -.304E+02 0.166E+02   0.108E+02 0.319E+02 -.174E+02   -.605E+00 -.172E+01 0.976E+00
   -.103E+02 -.304E+02 -.166E+02   0.108E+02 0.319E+02 0.174E+02   -.605E+00 -.172E+01 -.976E+00
   0.103E+02 0.304E+02 0.166E+02   -.108E+02 -.319E+02 -.174E+02   0.605E+00 0.172E+01 0.976E+00
   -.103E+02 0.304E+02 0.166E+02   0.108E+02 -.319E+02 -.174E+02   -.605E+00 0.172E+01 0.976E+00
   0.103E+02 -.304E+02 -.166E+02   -.108E+02 0.319E+02 0.174E+02   0.605E+00 -.172E+01 -.976E+00
   0.103E+02 -.304E+02 0.166E+02   -.108E+02 0.319E+02 -.174E+02   0.605E+00 -.172E+01 0.976E+00
   -.103E+02 0.304E+02 -.166E+02   0.108E+02 -.319E+02 0.174E+02   -.605E+00 0.172E+01 -.976E+00
   0.432E+02 -.456E-06 0.830E+00   -.452E+02 -.786E-05 -.175E+01   0.232E+01 -.688E-17 0.936E+00
   -.432E+02 0.121E-04 -.830E+00   0.452E+02 0.815E-05 0.175E+01   -.232E+01 -.706E-17 -.936E+00
   -.432E+02 -.374E-04 0.830E+00   0.452E+02 0.815E-05 -.175E+01   -.232E+01 0.750E-17 0.936E+00
   0.432E+02 0.263E-04 -.830E+00   -.452E+02 -.786E-05 0.175E+01   0.232E+01 -.649E-17 -.936E+00
   0.767E+01 -.317E-04 0.347E+02   -.781E+01 0.872E-05 -.365E+02   0.161E+00 -.237E-18 0.207E+01
   -.767E+01 0.265E-04 -.347E+02   0.781E+01 -.910E-05 0.365E+02   -.161E+00 -.298E-19 -.207E+01
   -.767E+01 -.189E-04 0.347E+02   0.781E+01 -.910E-05 -.365E+02   -.161E+00 0.372E-18 0.207E+01
   0.767E+01 0.237E-04 -.347E+02   -.781E+01 0.872E-05 0.365E+02   0.161E+00 0.103E-18 -.207E+01
 -----------------------------------------------------------------------------------------------
   0.173E-05 -.325E-04 -.702E-03   -.888E-15 0.205E-13 -.213E-13   -.444E-15 -.235E-15 -.444E-15
 
 
 POSITION                                       TOTAL-FORCE (eV/Angst)
 -----------------------------------------------------------------------------------
      0.13443      1.68005      7.95495         0.016081      0.000000      0.054718
      8.79164      5.04015      3.54823        -0.016081      0.000000     -0.054718
      4.32861      5.04015      2.20336        -0.016081      0.000000      0.054718
      4.59746      1.68005      9.29983         0.016081     -0.000000     -0.054718
      1.42106      5.04015     10.42918        -0.061445      0.000000     -0.052325
      7.50501      1.68005      1.07400         0.061445     -0.000000      0.052325
      3.04198      1.68005      4.67759         0.061445     -0.000000     -0.052325
      5.88409      5.04015      6.82560        -0.061445     -0.000000      0.052325
      1.72847      0.47478      1.69367         0.155366      0.375442     -0.255736
      7.19759      6.24542      9.80952        -0.155366     -0.375442      0.255736
      2.73456      6.24542      7.44526        -0.155366     -0.375442     -0.255736
      6.19151      0.47478      4.05792         0.155366      0.375442      0.255736
      7.19759      3.83487      9.80952        -0.155366      0.375442      0.255736
      1.72847      2.88532      1.69367         0.155366     -0.375442     -0.255736
      6.19151      2.88532      4.05792         0.155366     -0.375442      0.255736
      2.73456      3.83487      7.44526        -0.155366      0.375442     -0.255736
      0.72939      5.04015      6.80749         0.473654      0.000000      0.014805
      8.19668      1.68005      4.69569        -0.473654     -0.000000     -0.014805
      3.73365      1.68005      1.05590        -0.473654     -0.000000      0.014805
      5.19242      5.04015     10.44729         0.473654      0.000000     -0.014805
      1.75973      1.68005     11.10715         0.075511     -0.000000      0.422534
      7.16633      5.04015      0.39603        -0.075511      0.000000     -0.422534
      2.70330      5.04015      5.35556        -0.075511      0.000000      0.422534
      6.22277      1.68005      6.14763         0.075511     -0.000000     -0.422534
 -----------------------------------------------------------------------------------
    total drift:                                0.000002     -0.000032     -0.000702


--------------------------------------------------------------------------------------------------------



  FREE ENERGIE OF THE ION-ELECTRON SYSTEM (eV)
  ---------------------------------------------------
  free  energy   TOTEN  =      -132.05623400 eV

  energy  without entropy=     -132.05623400  energy(sigma->0) =     -132.05623400
 


--------------------------------------------------------------------------------------------------------


    POTLOK:  cpu time    0.1478: real time    0.1478


--------------------------------------------------------------------------------------------------------


     LOOP+:  cpu time10098.2309: real time10102.1481
    4ORBIT:  cpu time    0.0000: real time    0.0000
 


 total charge     
 
# of ion       s       p       d       tot
------------------------------------------
    1        2.011   5.604   0.292   7.908
    2        2.011   5.604   0.292   7.908
    3        2.011   5.604   0.292   7.908
    4        2.011   5.604   0.292   7.908
    5        2.005   5.597   0.285   7.887
    6        2.005   5.597   0.285   7.887
    7        2.005   5.597   0.285   7.887
    8        2.005   5.597   0.285   7.887
    9        0.808   0.876   0.000   1.684
   10        0.808   0.876   0.000   1.684
   11        0.808   0.876   0.000   1.684
   12        0.808   0.876   0.000   1.684
   13        0.808   0.875   0.000   1.683
   14        0.808   0.875   0.000   1.683
   15        0.808   0.875   0.000   1.683
   16        0.808   0.875   0.000   1.683
   17        0.822   0.826   0.000   1.648
   18        0.822   0.826   0.000   1.648
   19        0.822   0.826   0.000   1.648
   20        0.822   0.826   0.000   1.648
   21        0.806   0.873   0.000   1.678
   22        0.806   0.873   0.000   1.678
   23        0.806   0.873   0.000   1.678
   24        0.806   0.873   0.000   1.678
--------------------------------------------------
tot         29.038  58.600   2.309  89.948
 

 total amount of memory used by VASP MPI-rank0    48456. kBytes
=======================================================================

   base      :      30000. kBytes
   nonlr-proj:       6605. kBytes
   fftplans  :        837. kBytes
   grid      :        888. kBytes
   one-center:         31. kBytes
   HF        :        129. kBytes
   wavefun   :       9966. kBytes
 
  
  
 General timing and accounting informations for this job:
 ========================================================
  
                  Total CPU time used (sec):    10118.705
                            User time (sec):    10086.740
                          System time (sec):       31.964
                         Elapsed time (sec):    10124.393
  
                   Maximum memory used (kb):      234648.
                   Average memory used (kb):           0.
  
                          Minor page faults:       438519
                          Major page faults:            9
                 Voluntary context switches:         8314
