 vasp.5.4.4.18Apr17-6-g9f103f2a35 (build Nov 21 2017 15:30:27) complex          
  
 executed on             LinuxIFC date 2020.12.16  18:11:25
 running on   64 total cores
 distrk:  each k-point on   32 cores,    2 groups
 distr:  one band on NCORES_PER_BAND=   4 cores,    8 groups


--------------------------------------------------------------------------------------------------------


 INCAR:
 POTCAR:   PAW_PBE Ba_sv 06Sep2000                
 POTCAR:   PAW_PBE Si 05Jan2001                   

 ----------------------------------------------------------------------------- 
|                                                                             |
|           W    W    AA    RRRRR   N    N  II  N    N   GGGG   !!!           |
|           W    W   A  A   R    R  NN   N  II  NN   N  G    G  !!!           |
|           W    W  A    A  R    R  N N  N  II  N N  N  G       !!!           |
|           W WW W  AAAAAA  RRRRR   N  N N  II  N  N N  G  GGG   !            |
|           WW  WW  A    A  R   R   N   NN  II  N   NN  G    G                |
|           W    W  A    A  R    R  N    N  II  N    N   GGGG   !!!           |
|                                                                             |
|      You have enabled k-point parallelism (KPAR>1).                         |
|      This developmental code was originally  written by Paul Kent at ORNL,  |
|      and carefully double checked in Vienna.                                |
|      GW as well as linear response parallelism added by Martijn Marsman     |
|      and Georg Kresse.                                                      |
|      Carefully verify results versus KPAR=1.                                |
|      Report problems to Paul Kent and Vienna.                               |
|                                                                             |
 ----------------------------------------------------------------------------- 


 ----------------------------------------------------------------------------- 
|                                                                             |
|  ADVICE TO THIS USER RUNNING 'VASP/VAMP'   (HEAR YOUR MASTER'S VOICE ...):  |
|                                                                             |
|      You have switched on vdW-DFT.                                          |
|      This routine was written and supplied by Jiri Klimes.                  |
|      We recommed that you carefully read and cite the following             |
|      publication                                                            |
|      J. Klimes, D.R. Bowler, A. Michelides                                  |
|        J. Phys.: Cond Matt. 22 022201 (2010)                                |
|      J. Klimes, D.R. Bowler, A. Michelides                                  |
|        Phys. Rev. B. 83, 195131 (2011)                                      |
|      and references therein.                                                |
|                                                                             |
 ----------------------------------------------------------------------------- 

 POTCAR:   PAW_PBE Ba_sv 06Sep2000                
   VRHFIN =Ba: 5s5p6s                                                           
   LEXCH  = PE                                                                  
   EATOM  =   700.2255 eV,   51.4651 Ry                                         
                                                                                
   TITEL  = PAW_PBE Ba_sv 06Sep2000                                             
   LULTRA =        F    use ultrasoft PP ?                                      
   IUNSCR =        1    unscreen: 0-lin 1-nonlin 2-no                           
   RPACOR =    2.400    partial core radius                                     
   POMASS =  137.327; ZVAL   =   10.000    mass and valenz                      
   RCORE  =    2.800    outmost cutoff radius                                   
   RWIGS  =    3.740; RWIGS  =    1.979    wigner-seitz radius (au A)           
   ENMAX  =  187.210; ENMIN  =  140.408 eV                                      
   RCLOC  =    2.516    cutoff for local pot                                    
   LCOR   =        T    correct aug charges                                     
   LPAW   =        T    paw PP                                                  
   EAUG   =  351.165                                                            
   DEXC   =     .000                                                            
   RMAX   =    3.370    core radius for proj-oper                               
   RAUG   =    1.300    factor for augmentation sphere                          
   RDEP   =    2.976    radius for radial grids                                 
   QCUT   =   -3.709; QGAM   =    7.419    optimization parameters              
                                                                                
   Description                                                                  
     l     E      TYP  RCUT    TYP  RCUT                                        
     0   .000     23  2.800                                                     
     0   .000     23  2.800                                                     
     1   .000     23  2.700                                                     
     1  2.000     23  2.700                                                     
     2   .000     23  2.700                                                     
     2   .000     23  2.700                                                     
  local pseudopotential read in
  partial core-charges read in
  atomic valenz-charges read in
  non local Contribution for L=           0  read in
    real space projection operators read in
  non local Contribution for L=           0  read in
    real space projection operators read in
  non local Contribution for L=           1  read in
    real space projection operators read in
  non local Contribution for L=           1  read in
    real space projection operators read in
  non local Contribution for L=           2  read in
    real space projection operators read in
  non local Contribution for L=           2  read in
    real space projection operators read in
    PAW grid and wavefunctions read in
 
   number of l-projection  operators is LMAX  =           6
   number of lm-projection operators is LMMAX =          18
 
 POTCAR:   PAW_PBE Si 05Jan2001                   
   VRHFIN =Si: s2p2                                                             
   LEXCH  = PE                                                                  
   EATOM  =   103.0669 eV,    7.5752 Ry                                         
                                                                                
   TITEL  = PAW_PBE Si 05Jan2001                                                
   LULTRA =        F    use ultrasoft PP ?                                      
   IUNSCR =        1    unscreen: 0-lin 1-nonlin 2-no                           
   RPACOR =    1.500    partial core radius                                     
   POMASS =   28.085; ZVAL   =    4.000    mass and valenz                      
   RCORE  =    1.900    outmost cutoff radius                                   
   RWIGS  =    2.480; RWIGS  =    1.312    wigner-seitz radius (au A)           
   ENMAX  =  245.345; ENMIN  =  184.009 eV                                      
   ICORE  =        2    local potential                                         
   LCOR   =        T    correct aug charges                                     
   LPAW   =        T    paw PP                                                  
   EAUG   =  322.069                                                            
   DEXC   =    -.007                                                            
   RMAX   =    2.944    core radius for proj-oper                               
   RAUG   =    1.300    factor for augmentation sphere                          
   RDEP   =    1.993    radius for radial grids                                 
   QCUT   =   -4.246; QGAM   =    8.493    optimization parameters              
                                                                                
   Description                                                                  
     l     E      TYP  RCUT    TYP  RCUT                                        
     0   .000     23  1.900                                                     
     0   .000     23  1.900                                                     
     1   .000     23  1.900                                                     
     1   .000     23  1.900                                                     
     2   .000      7  1.900                                                     
  local pseudopotential read in
  partial core-charges read in
  atomic valenz-charges read in
  non local Contribution for L=           0  read in
    real space projection operators read in
  non local Contribution for L=           0  read in
    real space projection operators read in
  non local Contribution for L=           1  read in
    real space projection operators read in
  non local Contribution for L=           1  read in
    real space projection operators read in
    PAW grid and wavefunctions read in
 
   number of l-projection  operators is LMAX  =           4
   number of lm-projection operators is LMMAX =           8
 
 Optimization of the real space projectors (new method)

 maximal supplied QI-value         = 13.42
 optimisation between [QCUT,QGAM] = [ 11.40, 22.81] = [ 36.42,145.68] Ry 
 Optimized for a Real-space Cutoff    1.56 Angstroem

   l    n(q)    QCUT    max X(q) W(low)/X(q) W(high)/X(q)  e(spline) 
   0     11    11.404     7.198    0.14E-04    0.26E-04    0.99E-07
   0     11    11.404    15.603    0.29E-04    0.72E-04    0.44E-06
   1     10    11.404     3.746    0.20E-04    0.24E-04    0.43E-07
   1     10    11.404     4.362    0.22E-03    0.97E-04    0.22E-06
   2     10    11.404     5.782    0.83E-04    0.62E-05    0.27E-06
   2     10    11.404    65.505    0.42E-03    0.31E-04    0.12E-05
 Optimization of the real space projectors (new method)

 maximal supplied QI-value         = 19.84
 optimisation between [QCUT,QGAM] = [ 11.31, 22.82] = [ 35.82,145.81] Ry 
 Optimized for a Real-space Cutoff    1.16 Angstroem

   l    n(q)    QCUT    max X(q) W(low)/X(q) W(high)/X(q)  e(spline) 
   0      8    11.310     8.708    0.14E-04    0.11E-04    0.43E-08
   0      8    11.310   106.241    0.27E-03    0.30E-03    0.38E-07
   1      7    11.310     5.901    0.82E-05    0.48E-04    0.19E-07
   1      7    11.310    73.241    0.27E-03    0.27E-03    0.74E-07

 ----------------------------------------------------------------------------- 
|                                                                             |
|  ADVICE TO THIS USER RUNNING 'VASP/VAMP'   (HEAR YOUR MASTER'S VOICE ...):  |
|                                                                             |
|      You enforced a specific xc-type in the INCAR file,                     |
|      a different type was found on the POTCAR file                          |
|          I HOPE YOU KNOW, WHAT YOU ARE  DOING                               |
|                                                                             |
 ----------------------------------------------------------------------------- 

 PAW_PBE Ba_sv 06Sep2000                :
 energy of atom  1       EATOM= -700.2255
 kinetic energy error for atom=    0.0005 (will be added to EATOM!!)
 PAW_PBE Si 05Jan2001                   :
 energy of atom  2       EATOM= -103.0669
 kinetic energy error for atom=    0.0006 (will be added to EATOM!!)
 
 
 POSCAR: ba8 si16                                
  positions in cartesian coordinates
  No initial velocities read in
 exchange correlation table for  LEXCH =       42
   RHO(1)=    0.500       N(1)  =     2000
   RHO(2)=  100.500       N(2)  =     4000
 


--------------------------------------------------------------------------------------------------------


 ion  position               nearest neighbor table
   1  0.015  0.250  0.691-  24 3.40  18 3.40  13 3.45  10 3.45  16 3.45  11 3.45  21 3.60  17 3.63
                            17 3.63   5 4.41   5 4.41   7 4.42   4 4.71   4 4.71
   2  0.985  0.750  0.309-  23 3.40  17 3.40   9 3.45  14 3.45  12 3.45  15 3.45  22 3.60  18 3.63
                            18 3.63   6 4.41   6 4.41   8 4.42   3 4.71   3 4.71
   3  0.485  0.750  0.191-  22 3.40  20 3.40  12 3.45  15 3.45   9 3.45  14 3.45  23 3.60  19 3.63
                            19 3.63   7 4.41   7 4.41   5 4.42   2 4.71   2 4.71
   4  0.515  0.250  0.809-  21 3.40  19 3.40  16 3.45  11 3.45  13 3.45  10 3.45  24 3.60  20 3.63
                            20 3.63   8 4.41   8 4.41   6 4.42   1 4.71   1 4.71
   5  0.159  0.750  0.907-  10 3.46  13 3.46  21 3.48  21 3.48  11 3.50  16 3.50  22 3.54   9 3.55
                            14 3.55  17 3.71  20 3.82   1 4.41   1 4.41   3 4.42
   6  0.841  0.250  0.093-  14 3.46   9 3.46  22 3.48  22 3.48  15 3.50  12 3.50  21 3.54  13 3.55
                            10 3.55  18 3.71  19 3.82   2 4.41   2 4.41   4 4.42
   7  0.341  0.250  0.407-  15 3.46  12 3.46  23 3.48  23 3.48  14 3.50   9 3.50  24 3.54  16 3.55
                            11 3.55  19 3.71  18 3.82   3 4.41   3 4.41   1 4.42
   8  0.659  0.750  0.593-  11 3.46  16 3.46  24 3.48  24 3.48  10 3.50  13 3.50  23 3.54  12 3.55
                            15 3.55  20 3.71  17 3.82   4 4.41   4 4.41   2 4.42
   9  0.194  0.073  0.147-  14 2.41  21 2.41  19 2.42   2 3.45   3 3.45   6 3.46   7 3.50   5 3.55

  10  0.806  0.927  0.853-  13 2.41  22 2.41  20 2.42   1 3.45   4 3.45   5 3.46   8 3.50   6 3.55

  11  0.306  0.927  0.647-  16 2.41  23 2.41  17 2.42   4 3.45   1 3.45   8 3.46   5 3.50   7 3.55

  12  0.694  0.073  0.353-  15 2.41  24 2.41  18 2.42   3 3.45   2 3.45   7 3.46   6 3.50   8 3.55

  13  0.806  0.573  0.853-  10 2.41  22 2.41  20 2.42   1 3.45   4 3.45   5 3.46   8 3.50   6 3.55

  14  0.194  0.427  0.147-   9 2.41  21 2.41  19 2.42   2 3.45   3 3.45   6 3.46   7 3.50   5 3.55

  15  0.694  0.427  0.353-  12 2.41  24 2.41  18 2.42   3 3.45   2 3.45   7 3.46   6 3.50   8 3.55

  16  0.306  0.573  0.647-  11 2.41  23 2.41  17 2.42   4 3.45   1 3.45   8 3.46   5 3.50   7 3.55

  17  0.083  0.750  0.592-  11 2.42  16 2.42  23 2.45   2 3.40   1 3.63   1 3.63   5 3.71   8 3.82

  18  0.917  0.250  0.408-  15 2.42  12 2.42  24 2.45   1 3.40   2 3.63   2 3.63   6 3.71   7 3.82

  19  0.417  0.250  0.092-  14 2.42   9 2.42  21 2.45   4 3.40   3 3.63   3 3.63   7 3.71   6 3.82

  20  0.583  0.750  0.908-  10 2.42  13 2.42  22 2.45   3 3.40   4 3.63   4 3.63   8 3.71   5 3.82

  21  0.198  0.250  0.967-  14 2.41   9 2.41  19 2.45   4 3.40   5 3.48   5 3.48   6 3.54   1 3.60

  22  0.802  0.750  0.033-  10 2.41  13 2.41  20 2.45   3 3.40   6 3.48   6 3.48   5 3.54   2 3.60

  23  0.302  0.750  0.467-  11 2.41  16 2.41  17 2.45   2 3.40   7 3.48   7 3.48   8 3.54   3 3.60

  24  0.698  0.250  0.533-  15 2.41  12 2.41  18 2.45   1 3.40   8 3.48   8 3.48   7 3.54   4 3.60

 
  LATTYP: Found a simple orthorhombic cell.
 ALAT       =     6.7778496742
 B/A-ratio  =     1.3292516818
 C/A-ratio  =     1.7117734747
  
  Lattice vectors:
  
 A1 = (   0.0000000000,  -6.7778496742,   0.0000000000)
 A2 = (  -9.0094680786,   0.0000000000,   0.0000000000)
 A3 = (   0.0000000000,   0.0000000000, -11.6021432877)


Analysis of symmetry for initial positions (statically):
=====================================================================
 Subroutine PRICEL returns:
 Original cell was already a primitive cell.
 

 Routine SETGRP: Setting up the symmetry group for a 
 simple orthorhombic supercell.


 Subroutine GETGRP returns: Found  8 space group operations
 (whereof  2 operations were pure point group operations)
 out of a pool of  8 trial point group operations.


The static configuration has the point symmetry S_2 .
 The point group associated with its full space group is D_2h.


Analysis of symmetry for dynamics (positions and initial velocities):
=====================================================================
 Subroutine PRICEL returns:
 Original cell was already a primitive cell.
 

 Routine SETGRP: Setting up the symmetry group for a 
 simple orthorhombic supercell.


 Subroutine GETGRP returns: Found  8 space group operations
 (whereof  2 operations were pure point group operations)
 out of a pool of  8 trial point group operations.


The dynamic configuration has the point symmetry S_2 .
 The point group associated with its full space group is D_2h.


 Subroutine INISYM returns: Found  8 space group operations
 (whereof  2 operations are pure point group operations),
 and found     1 'primitive' translations

 
 
 KPOINTS: k-density: 6.0                          

Automatic generation of k-mesh.
Space group operators:
 irot       det(A)        alpha          n_x          n_y          n_z        tau_x        tau_y        tau_z
    1     1.000000     0.000000     1.000000     0.000000     0.000000     0.000000     0.000000     0.000000
    2    -1.000000     0.000000     1.000000     0.000000     0.000000     0.000000     0.000000     0.000000
    3     1.000000   180.000000     0.000000     0.000000     1.000000    -0.500000     0.000000    -0.500000
    4    -1.000000   180.000000     0.000000     0.000000     1.000000    -0.500000     0.000000    -0.500000
    5     1.000000   180.000000     1.000000     0.000000     0.000000    -0.500000    -0.500000    -0.500000
    6    -1.000000   180.000000     1.000000     0.000000     0.000000    -0.500000    -0.500000    -0.500000
    7     1.000000   180.000000     0.000000     1.000000     0.000000    -0.000000    -0.500000    -0.000000
    8    -1.000000   180.000000     0.000000     1.000000     0.000000     0.000000    -0.500000     0.000000
 
 Subroutine IBZKPT returns following result:
 ===========================================
 
 Found     36 irreducible k-points:
 
 Following reciprocal coordinates:
            Coordinates               Weight
  0.000000  0.000000  0.000000      1.000000
  0.200000  0.000000  0.000000      2.000000
  0.400000  0.000000  0.000000      2.000000
  0.000000  0.166667  0.000000      2.000000
  0.200000  0.166667  0.000000      4.000000
  0.400000  0.166667  0.000000      4.000000
  0.000000  0.333333  0.000000      2.000000
  0.200000  0.333333  0.000000      4.000000
  0.400000  0.333333  0.000000      4.000000
  0.000000  0.500000  0.000000      1.000000
  0.200000  0.500000  0.000000      2.000000
  0.400000  0.500000  0.000000      2.000000
  0.000000  0.000000  0.250000      2.000000
  0.200000  0.000000  0.250000      4.000000
  0.400000  0.000000  0.250000      4.000000
  0.000000  0.166667  0.250000      4.000000
  0.200000  0.166667  0.250000      8.000000
  0.400000  0.166667  0.250000      8.000000
  0.000000  0.333333  0.250000      4.000000
  0.200000  0.333333  0.250000      8.000000
  0.400000  0.333333  0.250000      8.000000
  0.000000  0.500000  0.250000      2.000000
  0.200000  0.500000  0.250000      4.000000
  0.400000  0.500000  0.250000      4.000000
  0.000000  0.000000  0.500000      1.000000
  0.200000  0.000000  0.500000      2.000000
  0.400000  0.000000  0.500000      2.000000
  0.000000  0.166667  0.500000      2.000000
  0.200000  0.166667  0.500000      4.000000
  0.400000  0.166667  0.500000      4.000000
  0.000000  0.333333  0.500000      2.000000
  0.200000  0.333333  0.500000      4.000000
  0.400000  0.333333  0.500000      4.000000
  0.000000  0.500000  0.500000      1.000000
  0.200000  0.500000  0.500000      2.000000
  0.400000  0.500000  0.500000      2.000000
 
 Following cartesian coordinates:
            Coordinates               Weight
  0.000000  0.000000  0.000000      1.000000
  0.022199  0.000000  0.000000      2.000000
  0.044398  0.000000  0.000000      2.000000
  0.000000  0.024590  0.000000      2.000000
  0.022199  0.024590  0.000000      4.000000
  0.044398  0.024590  0.000000      4.000000
  0.000000  0.049180  0.000000      2.000000
  0.022199  0.049180  0.000000      4.000000
  0.044398  0.049180  0.000000      4.000000
  0.000000  0.073770  0.000000      1.000000
  0.022199  0.073770  0.000000      2.000000
  0.044398  0.073770  0.000000      2.000000
  0.000000  0.000000  0.021548      2.000000
  0.022199  0.000000  0.021548      4.000000
  0.044398  0.000000  0.021548      4.000000
  0.000000  0.024590  0.021548      4.000000
  0.022199  0.024590  0.021548      8.000000
  0.044398  0.024590  0.021548      8.000000
  0.000000  0.049180  0.021548      4.000000
  0.022199  0.049180  0.021548      8.000000
  0.044398  0.049180  0.021548      8.000000
  0.000000  0.073770  0.021548      2.000000
  0.022199  0.073770  0.021548      4.000000
  0.044398  0.073770  0.021548      4.000000
  0.000000  0.000000  0.043095      1.000000
  0.022199  0.000000  0.043095      2.000000
  0.044398  0.000000  0.043095      2.000000
  0.000000  0.024590  0.043095      2.000000
  0.022199  0.024590  0.043095      4.000000
  0.044398  0.024590  0.043095      4.000000
  0.000000  0.049180  0.043095      2.000000
  0.022199  0.049180  0.043095      4.000000
  0.044398  0.049180  0.043095      4.000000
  0.000000  0.073770  0.043095      1.000000
  0.022199  0.073770  0.043095      2.000000
  0.044398  0.073770  0.043095      2.000000
 
 TETIRR: Found    360 inequivalent tetrahedra from      720


--------------------------------------------------------------------------------------------------------




 Dimension of arrays:
   k-points           NKPTS =     36   k-points in BZ     NKDIM =     36   number of bands    NBANDS=     88
   number of dos      NEDOS =    301   number of ions     NIONS =     24
   non local maximal  LDIM  =      6   non local SUM 2l+1 LMDIM =     18
   total plane-waves  NPLWV = 128000
   max r-space proj   IRMAX =   2946   max aug-charges    IRDMAX=  11507
   dimension x,y,z NGX =    50 NGY =   40 NGZ =   64
   dimension x,y,z NGXF=   100 NGYF=   80 NGZF=  128
   support grid    NGXF=   100 NGYF=   80 NGZF=  128
   ions per type =               8  16
   NGX,Y,Z   is equivalent  to a cutoff of   9.23,  9.81,  9.17 a.u.
   NGXF,Y,Z  is equivalent  to a cutoff of  18.45, 19.62, 18.34 a.u.

 SYSTEM =  unknown system                          
 POSCAR =  ba8 si16                                

 Startparameter for this run:
   NWRITE =      2    write-flag & timer
   PREC   = normal    normal or accurate (medium, high low for compatibility)
   ISTART =      0    job   : 0-new  1-cont  2-samecut
   ICHARG =      2    charge: 1-file 2-atom 10-const
   ISPIN  =      1    spin polarized calculation?
   LNONCOLLINEAR =      F non collinear calculations
   LSORBIT =      F    spin-orbit coupling
   INIWAV =      1    electr: 0-lowe 1-rand  2-diag
   LASPH  =      T    aspherical Exc in radial PAW
   METAGGA=      F    non-selfconsistent MetaGGA calc.

 Electronic Relaxation 1
   ENCUT  =  500.0 eV  36.75 Ry    6.06 a.u.  16.43 12.36 21.15*2*pi/ulx,y,z
   ENINI  =  500.0     initial cutoff
   ENAUG  =  351.2 eV  augmentation charge cutoff
   NELM   =    100;   NELMIN=  2; NELMDL= -5     # of ELM steps 
   EDIFF  = 0.1E-05   stopping-criterion for ELM
   LREAL  =      T    real-space projection
   NLSPLINE    = F    spline interpolate recip. space projectors
   LCOMPAT=      F    compatible to vasp.4.4
   GGA_COMPAT  = T    GGA compatible to vasp.4.4-vasp.4.6
   LMAXPAW     = -100 max onsite density
   LMAXMIX     =    2 max onsite mixed and CHGCAR
   VOSKOWN=      0    Vosko Wilk Nusair interpolation
   ROPT   =   -0.00050  -0.00050
 Ionic relaxation
   EDIFFG = -.1E-01   stopping-criterion for IOM
   NSW    =    200    number of steps for IOM
   NBLOCK =      1;   KBLOCK =    200    inner block; outer block 
   IBRION =      2    ionic relax: 0-MD 1-quasi-New 2-CG
   NFREE  =      1    steps in history (QN), initial steepest desc. (CG)
   ISIF   =      3    stress and relaxation
   IWAVPR =     11    prediction:  0-non 1-charg 2-wave 3-comb
   ISYM   =      2    0-nonsym 1-usesym 2-fastsym
   LCORR  =      T    Harris-Foulkes like correction to forces

   POTIM  = 0.5000    time-step for ionic-motion
   TEIN   =    0.0    initial temperature
   TEBEG  =    0.0;   TEEND  =   0.0 temperature during run
   SMASS  =  -3.00    Nose mass-parameter (am)
   estimated Nose-frequenzy (Omega)   =  0.10E-29 period in steps =****** mass=  -0.185E-26a.u.
   SCALEE = 1.0000    scale energy and forces
   NPACO  =    256;   APACO  = 16.0  distance and # of slots for P.C.
   PSTRESS=    0.0 pullay stress

  Mass of Ions in am
   POMASS = 137.33 28.09
  Ionic Valenz
   ZVAL   =  10.00  4.00
  Atomic Wigner-Seitz radii
   RWIGS  =  -1.00 -1.00
  virtual crystal weights 
   VCA    =   1.00  1.00
   NELECT =     144.0000    total number of electrons
   NUPDOWN=      -1.0000    fix difference up-down

 DOS related values:
   EMIN   =  10.00;   EMAX   =-10.00  energy-range for DOS
   EFERMI =   0.00
   ISMEAR =    -5;   SIGMA  =   0.01  broadening in eV -4-tet -1-fermi 0-gaus

 Electronic relaxation 2 (details)
   IALGO  =     38    algorithm
   LDIAG  =      T    sub-space diagonalisation (order eigenvalues)
   LSUBROT=      F    optimize rotation matrix (better conditioning)
   TURBO    =      0    0=normal 1=particle mesh
   IRESTART =      0    0=no restart 2=restart with 2 vectors
   NREBOOT  =      0    no. of reboots
   NMIN     =      0    reboot dimension
   EREF     =   0.00    reference energy to select bands
   IMIX   =      4    mixing-type and parameters
     AMIX     =   0.40;   BMIX     =  1.00
     AMIX_MAG =   1.60;   BMIX_MAG =  1.00
     AMIN     =   0.10
     WC   =   100.;   INIMIX=   1;  MIXPRE=   1;  MAXMIX= -45

 Intra band minimization:
   WEIMIN = 0.0010     energy-eigenvalue tresh-hold
   EBREAK =  0.28E-08  absolut break condition
   DEPER  =   0.30     relativ break condition  

   TIME   =   0.40     timestep for ELM

  volume/ion in A,a.u.               =      29.52       199.21
  Fermi-wavevector in a.u.,A,eV,Ry     =   0.962541  1.818939 12.605595  0.926485
  Thomas-Fermi vector in A             =   2.092009
 
 Write flags
   LWAVE        =      T    write WAVECAR
   LDOWNSAMPLE  =      F    k-point downsampling of WAVECAR
   LCHARG       =      T    write CHGCAR
   LVTOT        =      F    write LOCPOT, total local potential
   LVHAR        =      F    write LOCPOT, Hartree potential only
   LELF         =      F    write electronic localiz. function (ELF)
   LORBIT       =      0    0 simple, 1 ext, 2 COOP (PROOUT), +10 PAW based schemes


 Dipole corrections
   LMONO  =      F    monopole corrections only (constant potential shift)
   LDIPOL =      F    correct potential (dipole corrections)
   IDIPOL =      0    1-x, 2-y, 3-z, 4-all directions 
   EPSILON=  1.0000000 bulk dielectric constant

 Exchange correlation treatment:
   GGA     =    BO    GGA type
   LEXCH   =    42    internal setting for exchange type
   VOSKOWN=      0    Vosko Wilk Nusair interpolation
   LHFCALC =     F    Hartree Fock is set to
   LHFONE  =     F    Hartree Fock one center treatment
   AEXX    =    0.0000 exact exchange contribution

 vdW DFT:
   LUSE_VDW   =     T    switch on vdW DFT
   Zab_VDW    =-.8491    correlation parameter
   PARAM1     =0.1833
   PARAM2     =0.2200
   PARAM3     =0.0000
   -- rVV10 --
   BPARAM     = 6.3000
   CPARAM     = 0.0093

 Linear response parameters
   LEPSILON=     F    determine dielectric tensor
   LRPA    =     F    only Hartree local field effects (RPA)
   LNABLA  =     F    use nabla operator in PAW spheres
   LVEL    =     F    velocity operator in full k-point grid
   LINTERFAST=   F  fast interpolation
   KINTER  =     0    interpolate to denser k-point grid
   CSHIFT  =0.1000    complex shift for real part using Kramers Kronig
   OMEGAMAX=  -1.0    maximum frequency
   DEG_THRESHOLD= 0.2000000E-02 threshold for treating states as degnerate
   RTIME   =   -0.100 relaxation time in fs
  (WPLASMAI=    0.000 imaginary part of plasma frequency in eV, 0.658/RTIME)
   DFIELD  = 0.0000000 0.0000000 0.0000000 field for delta impulse in time
 
 Orbital magnetization related:
   ORBITALMAG=     F  switch on orbital magnetization
   LCHIMAG   =     F  perturbation theory with respect to B field
   DQ        =  0.001000  dq finite difference perturbation B field
   LLRAUG    =     F  two centre corrections for induced B field



--------------------------------------------------------------------------------------------------------


 conjugate gradient relaxation of ions
 charge density and potential will be updated during run
 non-spin polarized calculation
 Variant of blocked Davidson
 Davidson routine will perform the subspace rotation
 perform sub-space diagonalisation
    after iterative eigenvector-optimisation
 modified Broyden-mixing scheme, WC =      100.0
 initial mixing is a Kerker type mixing with AMIX =  0.4000 and BMIX =      1.0000
 Hartree-type preconditioning will be used
 using additional bands           16
 real space projection scheme for non local part
 use partial core corrections
 calculate Harris-corrections to forces 
   (improved forces if not selfconsistent)
 use gradient corrections 
 use of overlap-Matrix (Vanderbilt PP)
 Fermi weights with tetrahedron method with Bloechl corrections


--------------------------------------------------------------------------------------------------------


  energy-cutoff  :      500.00
  volume of cell :      708.48
      direct lattice vectors                 reciprocal lattice vectors
     9.009468079  0.000000000  0.000000000     0.110994344  0.000000000  0.000000000
     0.000000000  6.777849674  0.000000000     0.000000000  0.147539419  0.000000000
     0.000000000  0.000000000 11.602143288     0.000000000  0.000000000  0.086190971

  length of vectors
     9.009468079  6.777849674 11.602143288     0.110994344  0.147539419  0.086190971


 
 k-points in units of 2pi/SCALE and weight: k-density: 6.0                          
   0.00000000  0.00000000  0.00000000       0.008
   0.02219887  0.00000000  0.00000000       0.017
   0.04439774  0.00000000  0.00000000       0.017
   0.00000000  0.02458990  0.00000000       0.017
   0.02219887  0.02458990  0.00000000       0.033
   0.04439774  0.02458990  0.00000000       0.033
   0.00000000  0.04917981  0.00000000       0.017
   0.02219887  0.04917981  0.00000000       0.033
   0.04439774  0.04917981  0.00000000       0.033
   0.00000000  0.07376971  0.00000000       0.008
   0.02219887  0.07376971  0.00000000       0.017
   0.04439774  0.07376971  0.00000000       0.017
   0.00000000  0.00000000  0.02154774       0.017
   0.02219887  0.00000000  0.02154774       0.033
   0.04439774  0.00000000  0.02154774       0.033
   0.00000000  0.02458990  0.02154774       0.033
   0.02219887  0.02458990  0.02154774       0.067
   0.04439774  0.02458990  0.02154774       0.067
   0.00000000  0.04917981  0.02154774       0.033
   0.02219887  0.04917981  0.02154774       0.067
   0.04439774  0.04917981  0.02154774       0.067
   0.00000000  0.07376971  0.02154774       0.017
   0.02219887  0.07376971  0.02154774       0.033
   0.04439774  0.07376971  0.02154774       0.033
   0.00000000  0.00000000  0.04309549       0.008
   0.02219887  0.00000000  0.04309549       0.017
   0.04439774  0.00000000  0.04309549       0.017
   0.00000000  0.02458990  0.04309549       0.017
   0.02219887  0.02458990  0.04309549       0.033
   0.04439774  0.02458990  0.04309549       0.033
   0.00000000  0.04917981  0.04309549       0.017
   0.02219887  0.04917981  0.04309549       0.033
   0.04439774  0.04917981  0.04309549       0.033
   0.00000000  0.07376971  0.04309549       0.008
   0.02219887  0.07376971  0.04309549       0.017
   0.04439774  0.07376971  0.04309549       0.017
 
 k-points in reciprocal lattice and weights: k-density: 6.0                          
   0.00000000  0.00000000  0.00000000       0.008
   0.20000000  0.00000000  0.00000000       0.017
   0.40000000  0.00000000  0.00000000       0.017
   0.00000000  0.16666667  0.00000000       0.017
   0.20000000  0.16666667  0.00000000       0.033
   0.40000000  0.16666667  0.00000000       0.033
   0.00000000  0.33333333  0.00000000       0.017
   0.20000000  0.33333333  0.00000000       0.033
   0.40000000  0.33333333  0.00000000       0.033
   0.00000000  0.50000000  0.00000000       0.008
   0.20000000  0.50000000  0.00000000       0.017
   0.40000000  0.50000000  0.00000000       0.017
   0.00000000  0.00000000  0.25000000       0.017
   0.20000000  0.00000000  0.25000000       0.033
   0.40000000  0.00000000  0.25000000       0.033
   0.00000000  0.16666667  0.25000000       0.033
   0.20000000  0.16666667  0.25000000       0.067
   0.40000000  0.16666667  0.25000000       0.067
   0.00000000  0.33333333  0.25000000       0.033
   0.20000000  0.33333333  0.25000000       0.067
   0.40000000  0.33333333  0.25000000       0.067
   0.00000000  0.50000000  0.25000000       0.017
   0.20000000  0.50000000  0.25000000       0.033
   0.40000000  0.50000000  0.25000000       0.033
   0.00000000  0.00000000  0.50000000       0.008
   0.20000000  0.00000000  0.50000000       0.017
   0.40000000  0.00000000  0.50000000       0.017
   0.00000000  0.16666667  0.50000000       0.017
   0.20000000  0.16666667  0.50000000       0.033
   0.40000000  0.16666667  0.50000000       0.033
   0.00000000  0.33333333  0.50000000       0.017
   0.20000000  0.33333333  0.50000000       0.033
   0.40000000  0.33333333  0.50000000       0.033
   0.00000000  0.50000000  0.50000000       0.008
   0.20000000  0.50000000  0.50000000       0.017
   0.40000000  0.50000000  0.50000000       0.017
 
 position of ions in fractional coordinates (direct lattice) 
   0.01517300  0.25000000  0.69130999
   0.98482700  0.75000002  0.30869001
   0.48482700  0.75000002  0.19130993
   0.51517300  0.25000000  0.80869005
   0.15930900  0.75000002  0.90664998
   0.84069100  0.25000000  0.09335000
   0.34069100  0.25000000  0.40665007
   0.65930900  0.75000002  0.59334998
   0.19427001  0.07254100  0.14674400
   0.80572999  0.92745899  0.85325598
   0.30572999  0.92745899  0.64674402
   0.69427001  0.07254100  0.35325598
   0.80572999  0.57254101  0.85325598
   0.19427001  0.42745899  0.14674400
   0.69427001  0.42745899  0.35325598
   0.30572999  0.57254101  0.64674402
   0.08290500  0.75000002  0.59200102
   0.91709498  0.25000000  0.40799898
   0.41709501  0.25000000  0.09200096
   0.58290502  0.75000002  0.90799902
   0.19769400  0.25000000  0.96694000
   0.80230599  0.75000002  0.03306002
   0.30230599  0.75000002  0.46693992
   0.69769401  0.25000000  0.53306000
 
 position of ions in cartesian coordinates  (Angst):
   0.13670066  1.69446242  8.02067757
   8.87276745  5.08338737  3.58146572
   4.36803341  5.08338737  2.21960521
   4.64143467  1.69446242  9.38253784
   1.43528938  5.08338737 10.51908302
   7.57417870  1.69446242  1.08306003
   3.06944466  1.69446242  4.71801233
   5.94002342  5.08338737  6.88413143
   1.75026941  0.49167198  1.70254493
   7.25919867  6.28617763  9.89959812
   2.75446463  6.28617763  7.50361681
   6.25500345  0.49167198  4.09852648
   7.25919867  3.88059688  9.89959812
   1.75026941  2.89725280  1.70254493
   6.25500345  2.89725280  4.09852648
   2.75446463  3.88059688  7.50361681
   0.74692994  5.08338737  6.86848068
   8.26253796  1.69446242  4.73366260
   3.75780416  1.69446242  1.06740832
   5.25166416  5.08338737 10.53473473
   1.78111780  1.69446242 11.21857643
   7.22835016  5.08338737  0.38356703
   2.72361612  5.08338737  5.41750383
   6.28585196  1.69446242  6.18463850
 


--------------------------------------------------------------------------------------------------------


 k-point  1 :   0.0000 0.0000 0.0000  plane waves:   18015
 k-point  2 :   0.2000 0.0000 0.0000  plane waves:   18061
 k-point  3 :   0.4000 0.0000 0.0000  plane waves:   17963
 k-point  4 :   0.0000 0.1667 0.0000  plane waves:   17981
 k-point  5 :   0.2000 0.1667 0.0000  plane waves:   17995
 k-point  6 :   0.4000 0.1667 0.0000  plane waves:   17998
 k-point  7 :   0.0000 0.3333 0.0000  plane waves:   17997
 k-point  8 :   0.2000 0.3333 0.0000  plane waves:   17955
 k-point  9 :   0.4000 0.3333 0.0000  plane waves:   17977
 k-point 10 :   0.0000 0.5000 0.0000  plane waves:   17944
 k-point 11 :   0.2000 0.5000 0.0000  plane waves:   17950
 k-point 12 :   0.4000 0.5000 0.0000  plane waves:   17980
 k-point 13 :   0.0000 0.0000 0.2500  plane waves:   18014
 k-point 14 :   0.2000 0.0000 0.2500  plane waves:   18010
 k-point 15 :   0.4000 0.0000 0.2500  plane waves:   17976
 k-point 16 :   0.0000 0.1667 0.2500  plane waves:   17994
 k-point 17 :   0.2000 0.1667 0.2500  plane waves:   18005
 k-point 18 :   0.4000 0.1667 0.2500  plane waves:   17983
 k-point 19 :   0.0000 0.3333 0.2500  plane waves:   17983
 k-point 20 :   0.2000 0.3333 0.2500  plane waves:   17976
 k-point 21 :   0.4000 0.3333 0.2500  plane waves:   17972
 k-point 22 :   0.0000 0.5000 0.2500  plane waves:   17960
 k-point 23 :   0.2000 0.5000 0.2500  plane waves:   17998
 k-point 24 :   0.4000 0.5000 0.2500  plane waves:   17972
 k-point 25 :   0.0000 0.0000 0.5000  plane waves:   17962
 k-point 26 :   0.2000 0.0000 0.5000  plane waves:   17982
 k-point 27 :   0.4000 0.0000 0.5000  plane waves:   17990
 k-point 28 :   0.0000 0.1667 0.5000  plane waves:   17998
 k-point 29 :   0.2000 0.1667 0.5000  plane waves:   17996
 k-point 30 :   0.4000 0.1667 0.5000  plane waves:   17998
 k-point 31 :   0.0000 0.3333 0.5000  plane waves:   18010
 k-point 32 :   0.2000 0.3333 0.5000  plane waves:   18006
 k-point 33 :   0.4000 0.3333 0.5000  plane waves:   17968
 k-point 34 :   0.0000 0.5000 0.5000  plane waves:   18004
 k-point 35 :   0.2000 0.5000 0.5000  plane waves:   18000
 k-point 36 :   0.4000 0.5000 0.5000  plane waves:   17992

 maximum and minimum number of plane-waves per node :      4533     4466

 maximum number of plane-waves:     18061
 maximum index in each direction: 
   IXMAX=   16   IYMAX=   12   IZMAX=   21
   IXMIN=  -16   IYMIN=  -12   IZMIN=  -21


 real space projection operators:
  total allocation   :       4328.62 KBytes
  max/ min on nodes  :       1126.75       1037.56


 parallel 3D FFT for wavefunctions:
    minimum data exchange during FFTs selected (reduces bandwidth)
 parallel 3D FFT for charge:
    minimum data exchange during FFTs selected (reduces bandwidth)


 total amount of memory used by VASP MPI-rank0    67772. kBytes
=======================================================================

   base      :      30000. kBytes
   nonlr-proj:       2580. kBytes
   fftplans  :       2347. kBytes
   grid      :       3658. kBytes
   one-center:         93. kBytes
   wavefun   :      29094. kBytes
 
     INWAV:  cpu time    0.0001: real time    0.0003
 Broyden mixing: mesh for mixing (old mesh)
   NGX = 33   NGY = 25   NGZ = 43
  (NGX  =100   NGY  = 80   NGZ  =128)
  gives a total of  35475 points

 initial charge density was supplied:
 charge density of overlapping atoms calculated
 number of electron     144.0000000 magnetization 
 keeping initial charge density in first step


--------------------------------------------------------------------------------------------------------


 Maximum index for non-local projection operator          837
 Maximum index for augmentation-charges         1190 (set IRDMAX)


--------------------------------------------------------------------------------------------------------


 First call to EWALD:  gamma=   0.199
 Maximum number of real-space cells 3x 3x 2
 Maximum number of reciprocal cells 3x 2x 3

    FEWALD:  cpu time    0.0185: real time    0.0186


--------------------------------------- Iteration      1(   1)  ---------------------------------------


vdW kernel read from vdw_kernel.bindat
  0.0000  0.2424  0.5071  0.7962  1.1119  1.4567  1.8333  2.2446  2.6937  3.1842
  3.7199  4.3049  4.9438  5.6415  6.4036  7.2358  8.1446  9.1372 10.2212 11.4050
 12.6979 14.1099 15.6519 17.3360 19.1751 21.1837 23.3773 25.7729 28.3892 31.2465
 34.3669 37.7748 41.4965 45.5611 50.0000
 
    POTLOK:  cpu time    1.3187: real time    1.3466
    SETDIJ:  cpu time    0.1201: real time    0.1204
     EDDAV:  cpu time    2.5165: real time    2.5322
 BZINTS: Fermi energy: 11.323418;144.000000 electrons
         Band energy:  75.848510;  BLOECHL correction: -0.052722
       DOS:  cpu time    0.0472: real time    0.0473
    --------------------------------------------
      LOOP:  cpu time    4.0025: real time    4.0465

 eigenvalue-minimisations  :  6336
 total energy-change (2. order) : 0.8682182E+03  (-0.5720120E+04)
 number of electron     144.0000000 magnetization 
 augmentation part      144.0000000 magnetization 

 Free energy of the ion-electron system (eV)
  ---------------------------------------------------
  alpha Z        PSCENC =       454.25479217
  Ewald energy   TEWEN  =     -6374.53395873
  -Hartree energ DENC   =      -917.06616594
  -exchange      EXHF   =         0.00000000
  -V(xc)+E(xc)   XCENC  =        34.92473302
  PAW double counting   =      3700.71972520    -3383.50420208
  entropy T*S    EENTRO =         0.00000000
  eigenvalues    EBANDS =        75.84851025
  atomic energy  EATOM  =      7277.57480299
  Solvation  Ediel_sol  =         0.00000000
  ---------------------------------------------------
  free energy    TOTEN  =       868.21823687 eV

  energy without entropy =      868.21823687  energy(sigma->0) =      868.21823687


--------------------------------------------------------------------------------------------------------




--------------------------------------- Iteration      1(   2)  ---------------------------------------


     EDDAV:  cpu time    3.1765: real time    3.1966
 BZINTS: Fermi energy:  4.717673;144.000000 electrons
         Band energy:-812.897961;  BLOECHL correction: -0.000186
       DOS:  cpu time    0.0324: real time    0.0326
    --------------------------------------------
      LOOP:  cpu time    3.2089: real time    3.2291

 eigenvalue-minimisations  :  8600
 total energy-change (2. order) :-0.8887465E+03  (-0.8602319E+03)
 number of electron     144.0000000 magnetization 
 augmentation part      144.0000000 magnetization 

 Free energy of the ion-electron system (eV)
  ---------------------------------------------------
  alpha Z        PSCENC =       454.25479217
  Ewald energy   TEWEN  =     -6374.53395873
  -Hartree energ DENC   =      -917.06616594
  -exchange      EXHF   =         0.00000000
  -V(xc)+E(xc)   XCENC  =        34.92473302
  PAW double counting   =      3700.71972520    -3383.50420208
  entropy T*S    EENTRO =         0.00000000
  eigenvalues    EBANDS =      -812.89796066
  atomic energy  EATOM  =      7277.57480299
  Solvation  Ediel_sol  =         0.00000000
  ---------------------------------------------------
  free energy    TOTEN  =       -20.52823404 eV

  energy without entropy =      -20.52823404  energy(sigma->0) =      -20.52823404


--------------------------------------------------------------------------------------------------------




--------------------------------------- Iteration      1(   3)  ---------------------------------------


     EDDAV:  cpu time    2.9226: real time    2.9346
 BZINTS: Fermi energy:  2.816915;144.000000 electrons
         Band energy:-893.688322;  BLOECHL correction:  0.000000
       DOS:  cpu time    0.0102: real time    0.0102
    --------------------------------------------
      LOOP:  cpu time    2.9328: real time    2.9448

 eigenvalue-minimisations  :  7736
 total energy-change (2. order) :-0.8079036E+02  (-0.7993969E+02)
 number of electron     144.0000000 magnetization 
 augmentation part      144.0000000 magnetization 

 Free energy of the ion-electron system (eV)
  ---------------------------------------------------
  alpha Z        PSCENC =       454.25479217
  Ewald energy   TEWEN  =     -6374.53395873
  -Hartree energ DENC   =      -917.06616594
  -exchange      EXHF   =         0.00000000
  -V(xc)+E(xc)   XCENC  =        34.92473302
  PAW double counting   =      3700.71972520    -3383.50420208
  entropy T*S    EENTRO =         0.00000000
  eigenvalues    EBANDS =      -893.68832151
  atomic energy  EATOM  =      7277.57480299
  Solvation  Ediel_sol  =         0.00000000
  ---------------------------------------------------
  free energy    TOTEN  =      -101.31859489 eV

  energy without entropy =     -101.31859489  energy(sigma->0) =     -101.31859489


--------------------------------------------------------------------------------------------------------




--------------------------------------- Iteration      1(   4)  ---------------------------------------


     EDDAV:  cpu time    3.3482: real time    3.3608
 BZINTS: Fermi energy:  2.735161;144.000000 electrons
         Band energy:-896.234897;  BLOECHL correction:  0.000000
       DOS:  cpu time    0.0084: real time    0.0084
    --------------------------------------------
      LOOP:  cpu time    3.3566: real time    3.3692

 eigenvalue-minimisations  :  9360
 total energy-change (2. order) :-0.2546576E+01  (-0.2539644E+01)
 number of electron     144.0000000 magnetization 
 augmentation part      144.0000000 magnetization 

 Free energy of the ion-electron system (eV)
  ---------------------------------------------------
  alpha Z        PSCENC =       454.25479217
  Ewald energy   TEWEN  =     -6374.53395873
  -Hartree energ DENC   =      -917.06616594
  -exchange      EXHF   =         0.00000000
  -V(xc)+E(xc)   XCENC  =        34.92473302
  PAW double counting   =      3700.71972520    -3383.50420208
  entropy T*S    EENTRO =         0.00000000
  eigenvalues    EBANDS =      -896.23489742
  atomic energy  EATOM  =      7277.57480299
  Solvation  Ediel_sol  =         0.00000000
  ---------------------------------------------------
  free energy    TOTEN  =      -103.86517080 eV

  energy without entropy =     -103.86517080  energy(sigma->0) =     -103.86517080


--------------------------------------------------------------------------------------------------------




--------------------------------------- Iteration      1(   5)  ---------------------------------------


     EDDAV:  cpu time    3.0945: real time    3.1071
 BZINTS: Fermi energy:  2.795246;144.000000 electrons
         Band energy:-896.305658;  BLOECHL correction:  0.000000
       DOS:  cpu time    0.0096: real time    0.0097
    CHARGE:  cpu time    0.0852: real time    0.0855
    MIXING:  cpu time    0.0028: real time    0.0036
    --------------------------------------------
      LOOP:  cpu time    3.1922: real time    3.2058

 eigenvalue-minimisations  :  8280
 total energy-change (2. order) :-0.7076070E-01  (-0.7072363E-01)
 number of electron     144.0000000 magnetization 
 augmentation part      -17.7711524 magnetization 

 Broyden mixing:
  rms(total) = 0.83509E+00    rms(broyden)= 0.83508E+00
  rms(prec ) = 0.13352E+01
  weight for this iteration     100.00

 Free energy of the ion-electron system (eV)
  ---------------------------------------------------
  alpha Z        PSCENC =       454.25479217
  Ewald energy   TEWEN  =     -6374.53395873
  -Hartree energ DENC   =      -917.06616594
  -exchange      EXHF   =         0.00000000
  -V(xc)+E(xc)   XCENC  =        34.92473302
  PAW double counting   =      3700.71972520    -3383.50420208
  entropy T*S    EENTRO =         0.00000000
  eigenvalues    EBANDS =      -896.30565812
  atomic energy  EATOM  =      7277.57480299
  Solvation  Ediel_sol  =         0.00000000
  ---------------------------------------------------
  free energy    TOTEN  =      -103.93593150 eV

  energy without entropy =     -103.93593150  energy(sigma->0) =     -103.93593150


--------------------------------------------------------------------------------------------------------




--------------------------------------- Iteration      1(   6)  ---------------------------------------


    POTLOK:  cpu time    0.9536: real time    0.9608
    SETDIJ:  cpu time    0.1110: real time    0.1113
     EDDAV:  cpu time    2.7030: real time    2.7094
 BZINTS: Fermi energy:  3.243101;144.000000 electrons
         Band energy:-878.042861;  BLOECHL correction:  0.000000
       DOS:  cpu time    0.0085: real time    0.0085
    CHARGE:  cpu time    0.0894: real time    0.0896
    MIXING:  cpu time    0.0031: real time    0.0031
    --------------------------------------------
      LOOP:  cpu time    3.8686: real time    3.8828

 eigenvalue-minimisations  :  7120
 total energy-change (2. order) : 0.3913054E+01  (-0.1241259E+01)
 number of electron     144.0000000 magnetization 
 augmentation part      -17.6452801 magnetization 

 Broyden mixing:
  rms(total) = 0.42981E+00    rms(broyden)= 0.42981E+00
  rms(prec ) = 0.56018E+00
  weight for this iteration     100.00

 eigenvalues of (default mixing * dielectric matrix)
  average eigenvalue GAMMA=   1.6908
  1.6908

 Free energy of the ion-electron system (eV)
  ---------------------------------------------------
  alpha Z        PSCENC =       454.25479217
  Ewald energy   TEWEN  =     -6374.53395873
  -Hartree energ DENC   =      -926.65401581
  -exchange      EXHF   =         0.00000000
  -V(xc)+E(xc)   XCENC  =        37.25531857
  PAW double counting   =      3744.97689985    -3434.85385537
  entropy T*S    EENTRO =         0.00000000
  eigenvalues    EBANDS =      -878.04286075
  atomic energy  EATOM  =      7277.57480299
  Solvation  Ediel_sol  =         0.00000000
  ---------------------------------------------------
  free energy    TOTEN  =      -100.02287709 eV

  energy without entropy =     -100.02287709  energy(sigma->0) =     -100.02287709


--------------------------------------------------------------------------------------------------------




--------------------------------------- Iteration      1(   7)  ---------------------------------------


    POTLOK:  cpu time    0.9731: real time    0.9817
    SETDIJ:  cpu time    0.0939: real time    0.0942
     EDDAV:  cpu time    3.0142: real time    3.0214
 BZINTS: Fermi energy:  3.435749;144.000000 electrons
         Band energy:-872.074094;  BLOECHL correction:  0.000000
       DOS:  cpu time    0.0097: real time    0.0098
    CHARGE:  cpu time    0.0956: real time    0.0959
    MIXING:  cpu time    0.0026: real time    0.0028
    --------------------------------------------
      LOOP:  cpu time    4.1892: real time    4.2057

 eigenvalue-minimisations  :  8144
 total energy-change (2. order) :-0.6262761E-01  (-0.4289950E+00)
 number of electron     144.0000000 magnetization 
 augmentation part      -17.6842030 magnetization 

 Broyden mixing:
  rms(total) = 0.20496E+00    rms(broyden)= 0.20496E+00
  rms(prec ) = 0.25458E+00
  weight for this iteration     100.00

 eigenvalues of (default mixing * dielectric matrix)
  average eigenvalue GAMMA=   1.8984
  1.5709  2.2260

 Free energy of the ion-electron system (eV)
  ---------------------------------------------------
  alpha Z        PSCENC =       454.25479217
  Ewald energy   TEWEN  =     -6374.53395873
  -Hartree energ DENC   =      -928.70146866
  -exchange      EXHF   =         0.00000000
  -V(xc)+E(xc)   XCENC  =        38.89983715
  PAW double counting   =      3799.35072001    -3494.85613559
  entropy T*S    EENTRO =         0.00000000
  eigenvalues    EBANDS =      -872.07409403
  atomic energy  EATOM  =      7277.57480299
  Solvation  Ediel_sol  =         0.00000000
  ---------------------------------------------------
  free energy    TOTEN  =      -100.08550469 eV

  energy without entropy =     -100.08550469  energy(sigma->0) =     -100.08550469


--------------------------------------------------------------------------------------------------------




--------------------------------------- Iteration      1(   8)  ---------------------------------------


    POTLOK:  cpu time    0.9614: real time    0.9700
    SETDIJ:  cpu time    0.0967: real time    0.0969
     EDDAV:  cpu time    2.7819: real time    2.7885
 BZINTS: Fermi energy:  3.354620;144.000000 electrons
         Band energy:-871.543438;  BLOECHL correction:  0.000000
       DOS:  cpu time    0.0084: real time    0.0084
    CHARGE:  cpu time    0.0910: real time    0.0912
    MIXING:  cpu time    0.0025: real time    0.0027
    --------------------------------------------
      LOOP:  cpu time    3.9418: real time    3.9578

 eigenvalue-minimisations  :  7168
 total energy-change (2. order) :-0.9066068E-01  (-0.1246651E+00)
 number of electron     144.0000000 magnetization 
 augmentation part      -17.7562935 magnetization 

 Broyden mixing:
  rms(total) = 0.74806E-01    rms(broyden)= 0.74805E-01
  rms(prec ) = 0.13754E+00
  weight for this iteration     100.00

 eigenvalues of (default mixing * dielectric matrix)
  average eigenvalue GAMMA=   1.6712
  2.6864  1.1636  1.1636

 Free energy of the ion-electron system (eV)
  ---------------------------------------------------
  alpha Z        PSCENC =       454.25479217
  Ewald energy   TEWEN  =     -6374.53395873
  -Hartree energ DENC   =      -927.44461317
  -exchange      EXHF   =         0.00000000
  -V(xc)+E(xc)   XCENC  =        39.74291124
  PAW double counting   =      3857.08611349    -3555.31277566
  entropy T*S    EENTRO =         0.00000000
  eigenvalues    EBANDS =      -871.54343771
  atomic energy  EATOM  =      7277.57480299
  Solvation  Ediel_sol  =         0.00000000
  ---------------------------------------------------
  free energy    TOTEN  =      -100.17616537 eV

  energy without entropy =     -100.17616537  energy(sigma->0) =     -100.17616537


--------------------------------------------------------------------------------------------------------




--------------------------------------- Iteration      1(   9)  ---------------------------------------


    POTLOK:  cpu time    0.9572: real time    0.9658
    SETDIJ:  cpu time    0.1040: real time    0.1043
     EDDAV:  cpu time    2.7066: real time    2.7131
 BZINTS: Fermi energy:  3.454459;144.000000 electrons
         Band energy:-868.701341;  BLOECHL correction:  0.000000
       DOS:  cpu time    0.0097: real time    0.0097
    CHARGE:  cpu time    0.0866: real time    0.0868
    MIXING:  cpu time    0.0024: real time    0.0024
    --------------------------------------------
      LOOP:  cpu time    3.8666: real time    3.8822

 eigenvalue-minimisations  :  7024
 total energy-change (2. order) : 0.4738680E-01  (-0.3491701E-01)
 number of electron     144.0000000 magnetization 
 augmentation part      -17.7252066 magnetization 

 Broyden mixing:
  rms(total) = 0.14162E-01    rms(broyden)= 0.14161E-01
  rms(prec ) = 0.16947E-01
  weight for this iteration     100.00

 eigenvalues of (default mixing * dielectric matrix)
  average eigenvalue GAMMA=   1.6375
  2.6556  1.5996  1.1474  1.1474

 Free energy of the ion-electron system (eV)
  ---------------------------------------------------
  alpha Z        PSCENC =       454.25479217
  Ewald energy   TEWEN  =     -6374.53395873
  -Hartree energ DENC   =      -929.80814449
  -exchange      EXHF   =         0.00000000
  -V(xc)+E(xc)   XCENC  =        40.23705813
  PAW double counting   =      3865.05250579    -3564.20449336
  entropy T*S    EENTRO =         0.00000000
  eigenvalues    EBANDS =      -868.70134107
  atomic energy  EATOM  =      7277.57480299
  Solvation  Ediel_sol  =         0.00000000
  ---------------------------------------------------
  free energy    TOTEN  =      -100.12877858 eV

  energy without entropy =     -100.12877858  energy(sigma->0) =     -100.12877858


--------------------------------------------------------------------------------------------------------




--------------------------------------- Iteration      1(  10)  ---------------------------------------


    POTLOK:  cpu time    0.9558: real time    0.9643
    SETDIJ:  cpu time    0.1062: real time    0.1064
     EDDAV:  cpu time    3.0375: real time    3.0446
 BZINTS: Fermi energy:  3.450588;144.000000 electrons
         Band energy:-868.807536;  BLOECHL correction:  0.000000
       DOS:  cpu time    0.0098: real time    0.0098
    CHARGE:  cpu time    0.0866: real time    0.0868
    MIXING:  cpu time    0.0025: real time    0.0025
    --------------------------------------------
      LOOP:  cpu time    4.1983: real time    4.2145

 eigenvalue-minimisations  :  8136
 total energy-change (2. order) :-0.3802673E-02  (-0.3342949E-02)
 number of electron     144.0000000 magnetization 
 augmentation part      -17.7330637 magnetization 

 Broyden mixing:
  rms(total) = 0.10202E-01    rms(broyden)= 0.10202E-01
  rms(prec ) = 0.14879E-01
  weight for this iteration     100.00

 eigenvalues of (default mixing * dielectric matrix)
  average eigenvalue GAMMA=   1.6846
  2.9123  2.4294  1.0801  1.0801  0.9214

 Free energy of the ion-electron system (eV)
  ---------------------------------------------------
  alpha Z        PSCENC =       454.25479217
  Ewald energy   TEWEN  =     -6374.53395873
  -Hartree energ DENC   =      -929.92632365
  -exchange      EXHF   =         0.00000000
  -V(xc)+E(xc)   XCENC  =        40.21692768
  PAW double counting   =      3863.61174798    -3562.52303374
  entropy T*S    EENTRO =         0.00000000
  eigenvalues    EBANDS =      -868.80753596
  atomic energy  EATOM  =      7277.57480299
  Solvation  Ediel_sol  =         0.00000000
  ---------------------------------------------------
  free energy    TOTEN  =      -100.13258125 eV

  energy without entropy =     -100.13258125  energy(sigma->0) =     -100.13258125


--------------------------------------------------------------------------------------------------------




--------------------------------------- Iteration      1(  11)  ---------------------------------------


    POTLOK:  cpu time    0.9667: real time    0.9758
    SETDIJ:  cpu time    0.0969: real time    0.0972
     EDDAV:  cpu time    2.6435: real time    2.6497
 BZINTS: Fermi energy:  3.447358;144.000000 electrons
         Band energy:-868.704408;  BLOECHL correction:  0.000000
       DOS:  cpu time    0.0096: real time    0.0096
    CHARGE:  cpu time    0.0835: real time    0.0837
    MIXING:  cpu time    0.0025: real time    0.0025
    --------------------------------------------
      LOOP:  cpu time    3.8027: real time    3.8186

 eigenvalue-minimisations  :  7320
 total energy-change (2. order) :-0.2250772E-03  (-0.2249653E-03)
 number of electron     144.0000000 magnetization 
 augmentation part      -17.7336141 magnetization 

 Broyden mixing:
  rms(total) = 0.29619E-02    rms(broyden)= 0.29619E-02
  rms(prec ) = 0.45289E-02
  weight for this iteration     100.00

 eigenvalues of (default mixing * dielectric matrix)
  average eigenvalue GAMMA=   1.6323
  2.8937  2.3897  1.3317  1.0167  1.0809  1.0809

 Free energy of the ion-electron system (eV)
  ---------------------------------------------------
  alpha Z        PSCENC =       454.25479217
  Ewald energy   TEWEN  =     -6374.53395873
  -Hartree energ DENC   =      -930.17305013
  -exchange      EXHF   =         0.00000000
  -V(xc)+E(xc)   XCENC  =        40.24107890
  PAW double counting   =      3864.64866884    -3563.44073232
  entropy T*S    EENTRO =         0.00000000
  eigenvalues    EBANDS =      -868.70440804
  atomic energy  EATOM  =      7277.57480299
  Solvation  Ediel_sol  =         0.00000000
  ---------------------------------------------------
  free energy    TOTEN  =      -100.13280633 eV

  energy without entropy =     -100.13280633  energy(sigma->0) =     -100.13280633


--------------------------------------------------------------------------------------------------------




--------------------------------------- Iteration      1(  12)  ---------------------------------------


    POTLOK:  cpu time    0.9587: real time    0.9672
    SETDIJ:  cpu time    0.1018: real time    0.1021
     EDDAV:  cpu time    3.0353: real time    3.0425
 BZINTS: Fermi energy:  3.440892;144.000000 electrons
         Band energy:-868.661486;  BLOECHL correction:  0.000000
       DOS:  cpu time    0.0097: real time    0.0098
    CHARGE:  cpu time    0.0866: real time    0.0868
    MIXING:  cpu time    0.0025: real time    0.0026
    --------------------------------------------
      LOOP:  cpu time    4.1947: real time    4.2109

 eigenvalue-minimisations  :  8848
 total energy-change (2. order) :-0.1417671E-04  (-0.3065672E-04)
 number of electron     144.0000000 magnetization 
 augmentation part      -17.7311703 magnetization 

 Broyden mixing:
  rms(total) = 0.10406E-02    rms(broyden)= 0.10406E-02
  rms(prec ) = 0.14581E-02
  weight for this iteration     100.00

 eigenvalues of (default mixing * dielectric matrix)
  average eigenvalue GAMMA=   1.6765
  3.1102  2.4379  1.9062  1.0757  1.0757  0.9444  1.1856

 Free energy of the ion-electron system (eV)
  ---------------------------------------------------
  alpha Z        PSCENC =       454.25479217
  Ewald energy   TEWEN  =     -6374.53395873
  -Hartree energ DENC   =      -930.24281807
  -exchange      EXHF   =         0.00000000
  -V(xc)+E(xc)   XCENC  =        40.24354024
  PAW double counting   =      3864.62795438    -3563.39564780
  entropy T*S    EENTRO =         0.00000000
  eigenvalues    EBANDS =      -868.66148568
  atomic energy  EATOM  =      7277.57480299
  Solvation  Ediel_sol  =         0.00000000
  ---------------------------------------------------
  free energy    TOTEN  =      -100.13282050 eV

  energy without entropy =     -100.13282050  energy(sigma->0) =     -100.13282050


--------------------------------------------------------------------------------------------------------




--------------------------------------- Iteration      1(  13)  ---------------------------------------


    POTLOK:  cpu time    0.9605: real time    0.9688
    SETDIJ:  cpu time    0.0944: real time    0.0946
     EDDAV:  cpu time    2.7857: real time    2.7923
 BZINTS: Fermi energy:  3.432658;144.000000 electrons
         Band energy:-868.637545;  BLOECHL correction:  0.000000
       DOS:  cpu time    0.0098: real time    0.0098
    CHARGE:  cpu time    0.0824: real time    0.0826
    MIXING:  cpu time    0.0026: real time    0.0026
    --------------------------------------------
      LOOP:  cpu time    3.9353: real time    3.9507

 eigenvalue-minimisations  :  7880
 total energy-change (2. order) :-0.1249605E-04  (-0.5442791E-05)
 number of electron     144.0000000 magnetization 
 augmentation part      -17.7305142 magnetization 

 Broyden mixing:
  rms(total) = 0.31919E-03    rms(broyden)= 0.31919E-03
  rms(prec ) = 0.50581E-03
  weight for this iteration     100.00

 eigenvalues of (default mixing * dielectric matrix)
  average eigenvalue GAMMA=   1.6496
  3.0921  2.3136  2.3136  1.0827  1.0827  0.9334  1.1891  1.1891

 Free energy of the ion-electron system (eV)
  ---------------------------------------------------
  alpha Z        PSCENC =       454.25479217
  Ewald energy   TEWEN  =     -6374.53395873
  -Hartree energ DENC   =      -930.27598661
  -exchange      EXHF   =         0.00000000
  -V(xc)+E(xc)   XCENC  =        40.24660714
  PAW double counting   =      3864.59816613    -3563.35971120
  entropy T*S    EENTRO =         0.00000000
  eigenvalues    EBANDS =      -868.63754489
  atomic energy  EATOM  =      7277.57480299
  Solvation  Ediel_sol  =         0.00000000
  ---------------------------------------------------
  free energy    TOTEN  =      -100.13283300 eV

  energy without entropy =     -100.13283300  energy(sigma->0) =     -100.13283300


--------------------------------------------------------------------------------------------------------




--------------------------------------- Iteration      1(  14)  ---------------------------------------


    POTLOK:  cpu time    0.9544: real time    0.9634
    SETDIJ:  cpu time    0.0929: real time    0.0931
     EDDAV:  cpu time    2.3027: real time    2.3082
 BZINTS: Fermi energy:  3.437078;144.000000 electrons
         Band energy:-868.633482;  BLOECHL correction:  0.000000
       DOS:  cpu time    0.0084: real time    0.0084
    --------------------------------------------
      LOOP:  cpu time    3.3583: real time    3.3730

 eigenvalue-minimisations  :  6232
 total energy-change (2. order) :-0.6406353E-06  (-0.9011606E-06)
 number of electron     144.0000000 magnetization 
 augmentation part      -17.7305142 magnetization 

 Free energy of the ion-electron system (eV)
  ---------------------------------------------------
  alpha Z        PSCENC =       454.25479217
  Ewald energy   TEWEN  =     -6374.53395873
  -Hartree energ DENC   =      -930.27624130
  -exchange      EXHF   =         0.00000000
  -V(xc)+E(xc)   XCENC  =        40.24659112
  PAW double counting   =      3864.52121991    -3563.28655820
  entropy T*S    EENTRO =         0.00000000
  eigenvalues    EBANDS =      -868.63348161
  atomic energy  EATOM  =      7277.57480299
  Solvation  Ediel_sol  =         0.00000000
  ---------------------------------------------------
  free energy    TOTEN  =      -100.13283364 eV

  energy without entropy =     -100.13283364  energy(sigma->0) =     -100.13283364


--------------------------------------------------------------------------------------------------------




 average (electrostatic) potential at core
  the test charge radii are     1.2192  0.9892
  (the norm of the test charge is              1.0000)
       1 -37.9677       2 -37.9677       3 -37.9677       4 -37.9677       5 -38.0756
       6 -38.0756       7 -38.0756       8 -38.0756       9 -86.0985      10 -86.0985
      11 -86.0985      12 -86.0985      13 -86.0985      14 -86.0985      15 -86.0985
      16 -86.0985      17 -86.1646      18 -86.1646      19 -86.1646      20 -86.1646
      21 -86.0576      22 -86.0576      23 -86.0576      24 -86.0576
 
 
 
 E-fermi :   3.4371     XC(G=0):  -8.8123     alpha+bet :-10.2470


 k-point     1 :       0.0000    0.0000    0.0000
  band No.  band energies     occupation 
      1     -24.3378      2.00000
      2     -24.3337      2.00000
      3     -24.3305      2.00000
      4     -24.3304      2.00000
      5     -24.2517      2.00000
      6     -24.2496      2.00000
      7     -24.2451      2.00000
      8     -24.2435      2.00000
      9      -9.8210      2.00000
     10      -9.8089      2.00000
     11      -9.7728      2.00000
     12      -9.7712      2.00000
     13      -9.7344      2.00000
     14      -9.6874      2.00000
     15      -9.6872      2.00000
     16      -9.6797      2.00000
     17      -9.6732      2.00000
     18      -9.6453      2.00000
     19      -9.6373      2.00000
     20      -9.6222      2.00000
     21      -9.5959      2.00000
     22      -9.5634      2.00000
     23      -9.5358      2.00000
     24      -9.5322      2.00000
     25      -9.5226      2.00000
     26      -9.5080      2.00000
     27      -9.4937      2.00000
     28      -9.4911      2.00000
     29      -9.4779      2.00000
     30      -9.4767      2.00000
     31      -9.4668      2.00000
     32      -9.4567      2.00000
     33      -7.3589      2.00000
     34      -7.1303      2.00000
     35      -7.0928      2.00000
     36      -7.0783      2.00000
     37      -2.7286      2.00000
     38      -2.6786      2.00000
     39      -2.4154      2.00000
     40      -2.4080      2.00000
     41      -2.3209      2.00000
     42      -2.3198      2.00000
     43      -2.3175      2.00000
     44      -2.2645      2.00000
     45      -2.2164      2.00000
     46      -2.1633      2.00000
     47      -2.1320      2.00000
     48      -1.9649      2.00000
     49      -0.1022      2.00000
     50       0.9478      2.00000
     51       1.0669      2.00000
     52       1.1059      2.00000
     53       1.1500      2.00000
     54       1.4283      2.00000
     55       1.6469      2.00000
     56       1.7167      2.00000
     57       1.7334      2.00000
     58       1.7550      2.00000
     59       1.8145      2.00000
     60       1.9907      2.00000
     61       1.9974      2.00000
     62       2.0049      2.00000
     63       2.1461      2.00000
     64       2.2697      2.00000
     65       2.3421      2.00000
     66       2.4139      2.00000
     67       2.4147      2.00000
     68       2.4426      2.00000
     69       2.7732      2.00000
     70       2.9935      2.00000
     71       3.0506      2.00000
     72       3.1938      2.00000
     73       4.4102      0.00000
     74       4.4399      0.00000
     75       4.7492      0.00000
     76       4.9288      0.00000
     77       4.9356      0.00000
     78       5.2795      0.00000
     79       5.4056      0.00000
     80       5.6408      0.00000
     81       5.6592      0.00000
     82       5.9126      0.00000
     83       5.9661      0.00000
     84       6.0001      0.00000
     85       6.0039      0.00000
     86       6.0566      0.00000
     87       6.0936      0.00000
     88       6.4299      0.00000

 k-point     2 :       0.2000    0.0000    0.0000
  band No.  band energies     occupation 
      1     -24.3373      2.00000
      2     -24.3339      2.00000
      3     -24.3306      2.00000
      4     -24.3305      2.00000
      5     -24.2510      2.00000
      6     -24.2491      2.00000
      7     -24.2457      2.00000
      8     -24.2441      2.00000
      9      -9.8321      2.00000
     10      -9.7955      2.00000
     11      -9.7764      2.00000
     12      -9.7640      2.00000
     13      -9.7143      2.00000
     14      -9.6834      2.00000
     15      -9.6822      2.00000
     16      -9.6805      2.00000
     17      -9.6765      2.00000
     18      -9.6458      2.00000
     19      -9.6453      2.00000
     20      -9.6319      2.00000
     21      -9.6098      2.00000
     22      -9.5458      2.00000
     23      -9.5416      2.00000
     24      -9.5322      2.00000
     25      -9.5182      2.00000
     26      -9.5072      2.00000
     27      -9.4945      2.00000
     28      -9.4899      2.00000
     29      -9.4861      2.00000
     30      -9.4842      2.00000
     31      -9.4701      2.00000
     32      -9.4647      2.00000
     33      -7.3229      2.00000
     34      -7.1183      2.00000
     35      -7.1078      2.00000
     36      -7.0758      2.00000
     37      -2.7276      2.00000
     38      -2.6738      2.00000
     39      -2.4924      2.00000
     40      -2.4078      2.00000
     41      -2.3983      2.00000
     42      -2.3022      2.00000
     43      -2.2699      2.00000
     44      -2.2376      2.00000
     45      -2.2101      2.00000
     46      -2.1890      2.00000
     47      -2.1494      2.00000
     48      -2.0982      2.00000
     49       0.0465      2.00000
     50       1.0115      2.00000
     51       1.0297      2.00000
     52       1.0397      2.00000
     53       1.1432      2.00000
     54       1.5868      2.00000
     55       1.6058      2.00000
     56       1.7408      2.00000
     57       1.8331      2.00000
     58       1.8557      2.00000
     59       1.9086      2.00000
     60       1.9091      2.00000
     61       2.0987      2.00000
     62       2.1174      2.00000
     63       2.1420      2.00000
     64       2.3450      2.00000
     65       2.3533      2.00000
     66       2.3552      2.00000
     67       2.4180      2.00000
     68       2.4900      2.00000
     69       2.7548      2.00000
     70       2.9614      2.00000
     71       3.0468      2.00000
     72       3.1012      2.00000
     73       4.3862      0.00000
     74       4.4660      0.00000
     75       4.7080      0.00000
     76       4.8799      0.00000
     77       4.9380      0.00000
     78       5.2135      0.00000
     79       5.3330      0.00000
     80       5.3352      0.00000
     81       5.4129      0.00000
     82       5.7230      0.00000
     83       5.8138      0.00000
     84       6.0282      0.00000
     85       6.2522      0.00000
     86       6.3937      0.00000
     87       6.4171      0.00000
     88       6.5032      0.00000

 k-point     3 :       0.4000    0.0000    0.0000
  band No.  band energies     occupation 
      1     -24.3360      2.00000
      2     -24.3347      2.00000
      3     -24.3308      2.00000
      4     -24.3307      2.00000
      5     -24.2493      2.00000
      6     -24.2476      2.00000
      7     -24.2473      2.00000
      8     -24.2457      2.00000
      9      -9.8348      2.00000
     10      -9.8227      2.00000
     11      -9.7400      2.00000
     12      -9.7198      2.00000
     13      -9.7084      2.00000
     14      -9.7002      2.00000
     15      -9.6769      2.00000
     16      -9.6728      2.00000
     17      -9.6593      2.00000
     18      -9.6548      2.00000
     19      -9.6515      2.00000
     20      -9.6352      2.00000
     21      -9.6291      2.00000
     22      -9.5884      2.00000
     23      -9.5374      2.00000
     24      -9.5199      2.00000
     25      -9.5114      2.00000
     26      -9.5089      2.00000
     27      -9.5083      2.00000
     28      -9.4969      2.00000
     29      -9.4920      2.00000
     30      -9.4794      2.00000
     31      -9.4754      2.00000
     32      -9.4669      2.00000
     33      -7.2392      2.00000
     34      -7.1571      2.00000
     35      -7.0936      2.00000
     36      -7.0773      2.00000
     37      -2.7167      2.00000
     38      -2.6566      2.00000
     39      -2.6026      2.00000
     40      -2.4675      2.00000
     41      -2.3518      2.00000
     42      -2.2906      2.00000
     43      -2.2827      2.00000
     44      -2.2815      2.00000
     45      -2.2539      2.00000
     46      -2.1996      2.00000
     47      -2.1955      2.00000
     48      -2.1934      2.00000
     49       0.3665      2.00000
     50       0.7330      2.00000
     51       0.9774      2.00000
     52       1.0036      2.00000
     53       1.4007      2.00000
     54       1.5628      2.00000
     55       1.8043      2.00000
     56       1.8528      2.00000
     57       1.8705      2.00000
     58       1.8906      2.00000
     59       1.9456      2.00000
     60       2.0825      2.00000
     61       2.2112      2.00000
     62       2.2175      2.00000
     63       2.2186      2.00000
     64       2.3036      2.00000
     65       2.3972      2.00000
     66       2.4787      2.00000
     67       2.4890      2.00000
     68       2.6820      2.00000
     69       2.7658      2.00000
     70       2.7915      2.00000
     71       2.8696      2.00000
     72       2.9672      2.00000
     73       4.5454      0.00000
     74       4.5630      0.00000
     75       4.6677      0.00000
     76       4.7424      0.00000
     77       4.8002      0.00000
     78       4.8443      0.00000
     79       5.0495      0.00000
     80       5.1310      0.00000
     81       5.5341      0.00000
     82       5.7695      0.00000
     83       5.8342      0.00000
     84       5.9617      0.00000
     85       5.9861      0.00000
     86       6.1109      0.00000
     87       6.3183      0.00000
     88       6.4241      0.00000

 k-point     4 :       0.0000    0.1667    0.0000
  band No.  band energies     occupation 
      1     -24.3369      2.00000
      2     -24.3334      2.00000
      3     -24.3305      2.00000
      4     -24.3305      2.00000
      5     -24.2520      2.00000
      6     -24.2501      2.00000
      7     -24.2451      2.00000
      8     -24.2436      2.00000
      9      -9.8134      2.00000
     10      -9.8114      2.00000
     11      -9.8082      2.00000
     12      -9.7344      2.00000
     13      -9.7341      2.00000
     14      -9.7263      2.00000
     15      -9.7132      2.00000
     16      -9.7090      2.00000
     17      -9.6925      2.00000
     18      -9.6316      2.00000
     19      -9.6143      2.00000
     20      -9.6123      2.00000
     21      -9.5789      2.00000
     22      -9.5612      2.00000
     23      -9.5345      2.00000
     24      -9.5328      2.00000
     25      -9.5215      2.00000
     26      -9.5108      2.00000
     27      -9.4888      2.00000
     28      -9.4869      2.00000
     29      -9.4794      2.00000
     30      -9.4779      2.00000
     31      -9.4682      2.00000
     32      -9.4551      2.00000
     33      -7.3118      2.00000
     34      -7.1200      2.00000
     35      -7.0913      2.00000
     36      -7.0794      2.00000
     37      -2.6734      2.00000
     38      -2.6281      2.00000
     39      -2.4030      2.00000
     40      -2.4003      2.00000
     41      -2.3789      2.00000
     42      -2.3443      2.00000
     43      -2.2981      2.00000
     44      -2.2488      2.00000
     45      -2.2443      2.00000
     46      -2.2028      2.00000
     47      -2.1580      2.00000
     48      -1.9731      2.00000
     49       0.1352      2.00000
     50       1.0075      2.00000
     51       1.1139      2.00000
     52       1.1784      2.00000
     53       1.1804      2.00000
     54       1.3416      2.00000
     55       1.4048      2.00000
     56       1.7035      2.00000
     57       1.7535      2.00000
     58       1.8434      2.00000
     59       1.9146      2.00000
     60       1.9482      2.00000
     61       2.0411      2.00000
     62       2.0731      2.00000
     63       2.1498      2.00000
     64       2.1715      2.00000
     65       2.3102      2.00000
     66       2.3469      2.00000
     67       2.4525      2.00000
     68       2.4933      2.00000
     69       2.6886      2.00000
     70       2.7533      2.00000
     71       3.1963      2.00000
     72       3.2788      2.00000
     73       4.2664      0.00000
     74       4.3798      0.00000
     75       4.8541      0.00000
     76       4.9944      0.00000
     77       5.0876      0.00000
     78       5.1891      0.00000
     79       5.3363      0.00000
     80       5.4246      0.00000
     81       5.6131      0.00000
     82       5.6895      0.00000
     83       5.7771      0.00000
     84       5.9837      0.00000
     85       5.9859      0.00000
     86       6.0091      0.00000
     87       6.1314      0.00000
     88       6.2407      0.00000

 k-point     5 :       0.2000    0.1667    0.0000
  band No.  band energies     occupation 
      1     -24.3365      2.00000
      2     -24.3336      2.00000
      3     -24.3306      2.00000
      4     -24.3306      2.00000
      5     -24.2513      2.00000
      6     -24.2496      2.00000
      7     -24.2457      2.00000
      8     -24.2443      2.00000
      9      -9.8296      2.00000
     10      -9.8210      2.00000
     11      -9.7851      2.00000
     12      -9.7400      2.00000
     13      -9.7280      2.00000
     14      -9.7188      2.00000
     15      -9.7069      2.00000
     16      -9.6980      2.00000
     17      -9.6888      2.00000
     18      -9.6332      2.00000
     19      -9.6244      2.00000
     20      -9.6172      2.00000
     21      -9.5795      2.00000
     22      -9.5609      2.00000
     23      -9.5449      2.00000
     24      -9.5310      2.00000
     25      -9.5148      2.00000
     26      -9.5052      2.00000
     27      -9.5027      2.00000
     28      -9.4874      2.00000
     29      -9.4857      2.00000
     30      -9.4751      2.00000
     31      -9.4683      2.00000
     32      -9.4594      2.00000
     33      -7.2810      2.00000
     34      -7.1093      2.00000
     35      -7.1028      2.00000
     36      -7.0761      2.00000
     37      -2.6674      2.00000
     38      -2.6410      2.00000
     39      -2.4879      2.00000
[...]
     29      -9.3751      2.00000
     30      -9.3751      2.00000
     31      -9.3688      2.00000
     32      -9.3688      2.00000
     33      -7.0050      2.00000
     34      -7.0050      2.00000
     35      -7.0017      2.00000
     36      -7.0017      2.00000
     37      -2.6896      2.00000
     38      -2.6896      2.00000
     39      -2.3891      2.00000
     40      -2.3891      2.00000
     41      -2.2584      2.00000
     42      -2.2584      2.00000
     43      -2.1903      2.00000
     44      -2.1903      2.00000
     45      -2.1513      2.00000
     46      -2.1513      2.00000
     47      -2.0131      2.00000
     48      -2.0131      2.00000
     49       0.9754      2.00000
     50       0.9754      2.00000
     51       1.1139      2.00000
     52       1.1139      2.00000
     53       1.3804      2.00000
     54       1.3804      2.00000
     55       1.5530      2.00000
     56       1.5530      2.00000
     57       1.9247      2.00000
     58       1.9247      2.00000
     59       2.0114      2.00000
     60       2.0114      2.00000
     61       2.2246      2.00000
     62       2.2246      2.00000
     63       2.2554      2.00000
     64       2.2554      2.00000
     65       2.5054      2.00000
     66       2.5054      2.00000
     67       2.5178      2.00000
     68       2.5178      2.00000
     69       2.8911      2.00000
     70       2.8911      2.00000
     71       3.0923      2.00000
     72       3.0923      2.00000
     73       4.2600      0.00000
     74       4.2600      0.00000
     75       4.3911      0.00000
     76       4.3911      0.00000
     77       4.8345      0.00000
     78       4.8345      0.00000
     79       5.1051      0.00000
     80       5.1051      0.00000
     81       5.4612      0.00000
     82       5.4612      0.00000
     83       5.5087      0.00000
     84       5.5087      0.00000
     85       5.9939      0.00000
     86       5.9939      0.00000
     87       6.3060      0.00000
     88       6.3060      0.00000

 k-point    36 :       0.4000    0.5000    0.5000
  band No.  band energies     occupation 
      1     -24.2432      2.00000
      2     -24.2432      2.00000
      3     -24.2430      2.00000
      4     -24.2430      2.00000
      5     -24.1542      2.00000
      6     -24.1542      2.00000
      7     -24.1516      2.00000
      8     -24.1516      2.00000
      9      -9.7495      2.00000
     10      -9.7495      2.00000
     11      -9.7312      2.00000
     12      -9.7312      2.00000
     13      -9.6850      2.00000
     14      -9.6850      2.00000
     15      -9.6713      2.00000
     16      -9.6713      2.00000
     17      -9.5584      2.00000
     18      -9.5584      2.00000
     19      -9.5226      2.00000
     20      -9.5226      2.00000
     21      -9.4623      2.00000
     22      -9.4623      2.00000
     23      -9.4480      2.00000
     24      -9.4480      2.00000
     25      -9.4082      2.00000
     26      -9.4081      2.00000
     27      -9.4039      2.00000
     28      -9.4039      2.00000
     29      -9.3818      2.00000
     30      -9.3818      2.00000
     31      -9.3802      2.00000
     32      -9.3802      2.00000
     33      -6.9925      2.00000
     34      -6.9925      2.00000
     35      -6.9912      2.00000
     36      -6.9912      2.00000
     37      -2.6508      2.00000
     38      -2.6508      2.00000
     39      -2.5526      2.00000
     40      -2.5526      2.00000
     41      -2.2521      2.00000
     42      -2.2521      2.00000
     43      -2.2199      2.00000
     44      -2.2199      2.00000
     45      -2.1184      2.00000
     46      -2.1184      2.00000
     47      -2.0560      2.00000
     48      -2.0560      2.00000
     49       1.0567      2.00000
     50       1.0567      2.00000
     51       1.1372      2.00000
     52       1.1372      2.00000
     53       1.5704      2.00000
     54       1.5704      2.00000
     55       1.7314      2.00000
     56       1.7314      2.00000
     57       1.9130      2.00000
     58       1.9130      2.00000
     59       2.0112      2.00000
     60       2.0112      2.00000
     61       2.1443      2.00000
     62       2.1443      2.00000
     63       2.2002      2.00000
     64       2.2002      2.00000
     65       2.5715      2.00000
     66       2.5715      2.00000
     67       2.6081      2.00000
     68       2.6081      2.00000
     69       3.0109      2.00000
     70       3.0109      2.00000
     71       3.0227      2.00000
     72       3.0227      2.00000
     73       4.3331      0.00000
     74       4.3331      0.00000
     75       4.5124      0.00000
     76       4.5124      0.00000
     77       4.6689      0.00000
     78       4.6689      0.00000
     79       4.9380      0.00000
     80       4.9380      0.00000
     81       5.3938      0.00000
     82       5.3938      0.00000
     83       5.5407      0.00000
     84       5.5407      0.00000
     85       5.8529      0.00000
     86       5.8529      0.00000
     87       5.9698      0.00000
     88       5.9698      0.00000


--------------------------------------------------------------------------------------------------------


 soft charge-density along one line, spin component           1
         0         1         2         3         4         5         6         7         8         9
 total charge-density along one line
 
 pseudopotential strength for first ion, spin component:           1
  2.285  -4.478  -0.000   0.003   0.001  -0.000   0.003   0.002
 -4.478  -2.818   0.000  -0.001   0.000  -0.000   0.001   0.000
 -0.000   0.000  -7.354  -0.000  -0.000   1.165  -0.000  -0.000
  0.003  -0.001  -0.000  -7.354  -0.001  -0.000   1.166  -0.001
  0.001   0.000  -0.000  -0.001  -7.354  -0.000  -0.001   1.166
 -0.000  -0.000   1.165  -0.000  -0.000   7.386  -0.000  -0.000
  0.003   0.001  -0.000   1.166  -0.001  -0.000   7.386  -0.000
  0.002   0.000  -0.000  -0.001   1.166  -0.000  -0.000   7.386
 -0.000   0.000  -0.000  -0.000  -0.000   0.000  -0.000  -0.000
 -0.000   0.000   0.001  -0.000  -0.000   0.001  -0.000  -0.000
  0.000  -0.000   0.000   0.001   0.000   0.000   0.001  -0.000
 -0.001   0.000  -0.000   0.002   0.001  -0.000   0.001   0.001
  0.000  -0.000   0.000   0.000   0.001   0.000  -0.000   0.001
  0.000   0.000  -0.000   0.000   0.000   0.000   0.000   0.000
  0.000   0.000  -0.000   0.000   0.000  -0.000   0.000   0.000
 -0.000  -0.000  -0.000  -0.000   0.000  -0.000  -0.000  -0.000
  0.000   0.000   0.000  -0.000  -0.000   0.000  -0.000  -0.000
 -0.000  -0.000  -0.000   0.000  -0.000  -0.000   0.000  -0.000
 total augmentation occupancy for first ion, spin component:           1
  2.104  -0.239  -0.000  -0.006  -0.004   0.000   0.003   0.001  -0.000  -0.000   0.002  -0.011  -0.001  -0.000   0.000  -0.001
 -0.239   0.582   0.000   0.016   0.011   0.000  -0.006  -0.002   0.000   0.000  -0.004   0.022   0.004   0.000  -0.000   0.006
  0.000   0.000   2.014   0.000  -0.000  -0.014   0.000   0.000  -0.013  -0.001   0.000   0.000   0.000   0.018   0.003   0.000
 -0.006   0.016   0.000   2.011   0.003   0.000  -0.013  -0.002   0.000   0.000   0.005   0.026   0.004   0.000  -0.000   0.003
 -0.004   0.011  -0.000   0.003   2.013   0.000  -0.002  -0.014   0.000  -0.000   0.014   0.010   0.014  -0.000   0.000  -0.021
  0.000   0.000  -0.014  -0.000   0.000   0.010   0.000  -0.000   0.006   0.003  -0.000  -0.000  -0.000  -0.010  -0.005   0.000
  0.003  -0.006  -0.000  -0.013  -0.002   0.000   0.010   0.001   0.000  -0.000  -0.002  -0.009  -0.003   0.000   0.000   0.003
  0.001  -0.002   0.000  -0.002  -0.014  -0.000   0.001   0.010  -0.000  -0.000  -0.006  -0.004  -0.005   0.000   0.000   0.010
 -0.000   0.000  -0.013   0.000   0.000   0.006  -0.000  -0.000   0.121  -0.040   0.000   0.000  -0.000  -0.226   0.077  -0.000
  0.000   0.000  -0.001   0.000  -0.000   0.003  -0.000  -0.000  -0.040   0.078   0.000   0.000   0.000   0.077  -0.145  -0.000
  0.002  -0.004  -0.000   0.005   0.014   0.000  -0.002  -0.006   0.000   0.000   0.106   0.030   0.012  -0.000   0.000  -0.197
 -0.011   0.022   0.000   0.026   0.010   0.000  -0.009  -0.004  -0.000   0.000   0.030   0.115   0.029  -0.000  -0.000  -0.059
 -0.001   0.004   0.000   0.004   0.014  -0.000  -0.003  -0.005  -0.000   0.000   0.012   0.029   0.085   0.000  -0.000  -0.018
  0.000   0.000   0.018  -0.000  -0.000  -0.010   0.000   0.000  -0.226   0.077  -0.000  -0.000   0.000   0.449  -0.162   0.000
  0.000   0.000   0.003  -0.000   0.000  -0.005   0.000   0.000   0.077  -0.145   0.000   0.000  -0.000  -0.162   0.284  -0.000
 -0.001   0.006   0.000   0.003  -0.021   0.000   0.003   0.010  -0.000  -0.000  -0.197  -0.059  -0.018   0.000   0.000   0.390
  0.010  -0.030   0.000  -0.039  -0.004   0.000   0.017   0.006   0.000  -0.000  -0.059  -0.211  -0.053  -0.000   0.000   0.128
  0.005  -0.016  -0.000  -0.001  -0.019   0.000   0.004   0.008   0.000  -0.000  -0.018  -0.054  -0.154  -0.000   0.000   0.032


------------------------ aborting loop because EDIFF is reached ----------------------------------------


    CHARGE:  cpu time    0.0878: real time    0.0880
    FORLOC:  cpu time    0.0038: real time    0.0038
    FORNL :  cpu time    0.4655: real time    0.4666
    STRESS:  cpu time    1.4460: real time    1.4494
    FORCOR:  cpu time    0.9245: real time    1.1001
    FORHAR:  cpu time    0.0083: real time    0.0084
    MIXING:  cpu time    0.0022: real time    0.0023
    OFIELD:  cpu time    0.0000: real time    0.0000

  FORCE on cell =-STRESS in cart. coord.  units (eV):
  Direction    XX          YY          ZZ          XY          YZ          ZX
  --------------------------------------------------------------------------------------
  Alpha Z   458.44136   458.44136   458.44136
  Ewald   -2149.88952 -2131.26592 -2119.24374    -0.00000    -0.00000    -0.00014
  Hartree   296.37476   310.07490   312.36818     0.00000    -0.00000     0.00001
  E(xc)    -471.39373  -471.33288  -471.32993    -0.00000    -0.00000    -0.00000
  Local     129.61795   104.02053    90.33498     0.00000     0.00000     0.00009
  n-local   345.94854   343.05376   343.72876    -0.10251    -0.04957    -0.14942
  augment  -167.52652  -166.51115  -166.71488    -0.00000    -0.00000    -0.00000
  Kinetic  1558.34310  1553.48066  1552.44299     0.64097    -0.72879    -0.04327
  Fock        0.00000     0.00000     0.00000     0.00000     0.00000     0.00000
  -------------------------------------------------------------------------------------
  Total      -0.08406    -0.03873     0.02770     0.00000     0.00000     0.00000
  in kB      -0.19184    -0.08840     0.06322     0.00000     0.00000     0.00000
  external pressure =       -0.07 kB  Pullay stress =        0.00 kB


 VOLUME and BASIS-vectors are now :
 -----------------------------------------------------------------------------
  energy-cutoff  :      500.00
  volume of cell :      702.01
      direct lattice vectors                 reciprocal lattice vectors
     8.968362135  0.000000000  0.000000000     0.111503080  0.000000000  0.000000000
    -0.000000000  6.761315549  0.000000000    -0.000000000  0.147900212  0.000000000
     0.000000000  0.000000000 11.577124263     0.000000000  0.000000000  0.086377236

  length of vectors
     8.968362135  6.761315549 11.577124263     0.111503080  0.147900212  0.086377236


 FORCES acting on ions
    electron-ion (+dipol)            ewald-force                    non-local-force                 convergence-correction
 -----------------------------------------------------------------------------------------------
   0.257E+01 0.814E-04 0.217E+01   -.291E+01 0.138E-04 -.255E+01   0.336E+00 -.663E-18 0.373E+00   -.162E-03 0.384E-10 0.541E-03
   -.257E+01 0.895E-05 -.217E+01   0.291E+01 -.198E-04 0.255E+01   -.336E+00 0.656E-18 -.373E+00   0.162E-03 0.101E-08 -.541E-03
   -.257E+01 0.466E-05 0.218E+01   0.291E+01 -.198E-04 -.255E+01   -.336E+00 -.125E-18 0.373E+00   0.162E-03 -.253E-09 0.541E-03
   0.257E+01 0.771E-04 -.218E+01   -.291E+01 0.138E-04 0.255E+01   0.336E+00 0.151E-18 -.373E+00   -.162E-03 -.122E-08 -.541E-03
   -.223E+02 0.749E-05 -.474E+01   0.215E+02 -.178E-04 0.483E+01   0.761E+00 0.413E-18 -.104E+00   0.406E-04 0.949E-09 -.701E-03
   0.223E+02 0.795E-04 0.474E+01   -.215E+02 0.171E-04 -.483E+01   -.761E+00 -.487E-18 0.104E+00   -.406E-04 0.137E-08 0.701E-03
   0.223E+02 0.775E-04 -.474E+01   -.215E+02 0.171E-04 0.483E+01   -.761E+00 -.608E-18 -.104E+00   -.406E-04 0.254E-09 -.701E-03
   -.223E+02 0.542E-05 0.474E+01   0.215E+02 -.178E-04 -.483E+01   0.761E+00 -.365E-18 0.104E+00   0.406E-04 -.162E-09 0.701E-03
   0.100E+02 0.302E+02 -.170E+02   -.106E+02 -.319E+02 0.180E+02   0.585E+00 0.164E+01 -.987E+00   -.774E-04 -.153E-03 0.204E-03
   -.100E+02 -.302E+02 0.170E+02   0.106E+02 0.319E+02 -.180E+02   -.585E+00 -.164E+01 0.987E+00   0.774E-04 0.153E-03 -.204E-03
   -.100E+02 -.302E+02 -.170E+02   0.106E+02 0.319E+02 0.180E+02   -.585E+00 -.164E+01 -.987E+00   0.774E-04 0.153E-03 0.204E-03
   0.100E+02 0.302E+02 0.170E+02   -.106E+02 -.319E+02 -.180E+02   0.585E+00 0.164E+01 0.987E+00   -.774E-04 -.153E-03 -.204E-03
   -.100E+02 0.302E+02 0.170E+02   0.106E+02 -.319E+02 -.180E+02   -.585E+00 0.164E+01 0.987E+00   0.774E-04 -.153E-03 -.204E-03
   0.100E+02 -.302E+02 -.170E+02   -.106E+02 0.319E+02 0.180E+02   0.585E+00 -.164E+01 -.987E+00   -.774E-04 0.153E-03 0.204E-03
   0.100E+02 -.302E+02 0.170E+02   -.106E+02 0.319E+02 -.180E+02   0.585E+00 -.164E+01 0.987E+00   -.774E-04 0.153E-03 -.204E-03
   -.100E+02 0.302E+02 -.170E+02   0.106E+02 -.319E+02 0.180E+02   -.585E+00 0.164E+01 -.987E+00   0.774E-04 -.153E-03 0.204E-03
   0.433E+02 -.119E-04 0.480E+00   -.455E+02 -.771E-05 -.123E+01   0.229E+01 -.629E-17 0.752E+00   -.764E-04 -.566E-10 -.946E-04
   -.433E+02 -.770E-07 -.480E+00   0.455E+02 0.799E-05 0.123E+01   -.229E+01 0.106E-16 -.752E+00   0.764E-04 -.110E-09 0.946E-04
   -.433E+02 0.830E-05 0.480E+00   0.455E+02 0.799E-05 -.123E+01   -.229E+01 0.116E-16 0.752E+00   0.764E-04 -.483E-09 -.945E-04
   0.433E+02 -.352E-05 -.480E+00   -.455E+02 -.771E-05 0.123E+01   0.229E+01 0.455E-17 -.752E+00   -.764E-04 -.430E-09 0.946E-04
   0.774E+01 -.353E-05 0.345E+02   -.785E+01 0.863E-05 -.364E+02   0.104E+00 0.807E-18 0.197E+01   0.131E-03 -.392E-09 -.365E-03
   -.774E+01 -.146E-04 -.345E+02   0.785E+01 -.901E-05 0.364E+02   -.104E+00 -.153E-18 -.197E+01   -.131E-03 -.986E-09 0.365E-03
   -.774E+01 -.102E-05 0.345E+02   0.785E+01 -.901E-05 -.364E+02   -.104E+00 0.114E-17 0.197E+01   -.131E-03 -.411E-09 -.365E-03
   0.774E+01 0.101E-04 -.345E+02   -.785E+01 0.863E-05 0.364E+02   0.104E+00 0.170E-17 -.197E+01   0.131E-03 0.182E-09 0.365E-03
 -----------------------------------------------------------------------------------------------
   -.277E-03 0.405E-03 0.662E-04   -.888E-14 -.114E-13 -.284E-13   0.000E+00 0.239E-16 -.222E-15   -.733E-08 -.315E-10 0.283E-08
 
 
 POSITION                                       TOTAL-FORCE (eV/Angst)
 -----------------------------------------------------------------------------------
      0.13177      1.69033      8.02462         0.002110      0.000000     -0.004824
      8.83659      5.07099      3.55250        -0.002110     -0.000000      0.004824
      4.35241      5.07099      2.23606        -0.002110     -0.000000     -0.004824
      4.61595      1.69033      9.34106         0.002110      0.000000      0.004824
      1.43730      5.07099     10.49635         0.001393      0.000000     -0.008439
      7.53106      1.69033      1.08077        -0.001393     -0.000000      0.008439
      3.04688      1.69033      4.70779        -0.001393     -0.000000     -0.008439
      5.92148      5.07099      6.86933         0.001393     -0.000000      0.008439
      1.74057      0.48271      1.68755         0.004409     -0.003785     -0.001443
      7.22780      6.27860      9.88958        -0.004409      0.003785      0.001443
      2.74362      6.27860      7.47611        -0.004409      0.003785     -0.001443
      6.22475      0.48271      4.10101         0.004409     -0.003785      0.001443
      7.22780      3.86337      9.88958        -0.004409     -0.003785      0.001443
      1.74057      2.89795      1.68755         0.004409      0.003785     -0.001443
      6.22475      2.89795      4.10101         0.004409      0.003785      0.001443
      2.74362      3.86337      7.47611        -0.004409     -0.003785     -0.001443
      0.73582      5.07099      6.83066         0.003032      0.000000     -0.000981
      8.23254      1.69033      4.74647        -0.003032     -0.000000      0.000981
      3.74836      1.69033      1.04210        -0.003032     -0.000000     -0.000981
      5.22000      5.07099     10.53503         0.003032      0.000000      0.000981
      1.76580      1.69033     11.17221         0.003746      0.000000     -0.001863
      7.20256      5.07099      0.40491        -0.003746     -0.000000      0.001863
      2.71838      5.07099      5.38365        -0.003746     -0.000000     -0.001863
      6.24998      1.69033      6.19348         0.003746      0.000000      0.001863
 -----------------------------------------------------------------------------------
    total drift:                               -0.000277      0.000405      0.000066


--------------------------------------------------------------------------------------------------------



  FREE ENERGIE OF THE ION-ELECTRON SYSTEM (eV)
  ---------------------------------------------------
  free  energy   TOTEN  =      -100.15033451 eV

  energy  without entropy=     -100.15033451  energy(sigma->0) =     -100.15033451
 
 d Force = 0.1365252E-03[ 0.737E-04, 0.199E-03]  d Energy = 0.1706229E-03-0.341E-04
 d Force = 0.2791022E+00[ 0.278E+00, 0.280E+00]  d Ewald  = 0.2606219E+00 0.185E-01


--------------------------------------------------------------------------------------------------------


    POTLOK:  cpu time    1.0522: real time    1.0546


--------------------------------------------------------------------------------------------------------


 Conjugate gradient step on ions:
 trial-energy change:   -0.000171  1 .order   -0.000178   -0.000254   -0.000101
  (g-gl).g = 0.196E-03      g.g   = 0.212E-03  gl.gl    = 0.214E-03
 g(Force)  = 0.160E-03   g(Stress)= 0.521E-04 ortho     = 0.338E-06
 gamma     =   0.91946
 trial     =   1.19702
 opt step  =   1.98960  (harmonic =   1.98960) maximal distance =0.00323116
 next E    =  -100.150375   (d E  =  -0.00021)


--------------------------------------------------------------------------------------------------------


  
 reached required accuracy - stopping structural energy minimisation
 writing wavefunctions
     LOOP+:  cpu time   25.9688: real time   26.6801
    4ORBIT:  cpu time    0.0000: real time    0.0000
 BZINTS: Fermi energy:  3.511308;144.000000 electrons
         Band energy:-858.615518;  BLOECHL correction:  0.000000

 total amount of memory used by VASP MPI-rank0    67772. kBytes
=======================================================================

   base      :      30000. kBytes
   nonlr-proj:       2580. kBytes
   fftplans  :       2347. kBytes
   grid      :       3658. kBytes
   one-center:         93. kBytes
   wavefun   :      29094. kBytes
 
  
  
 General timing and accounting informations for this job:
 ========================================================
  
                  Total CPU time used (sec):      422.457
                            User time (sec):      419.183
                          System time (sec):        3.274
                         Elapsed time (sec):      427.300
  
                   Maximum memory used (kb):      260984.
                   Average memory used (kb):           0.
  
                          Minor page faults:        89335
                          Major page faults:          166
                 Voluntary context switches:        18729
