 vasp.5.4.4.18Apr17-6-g9f103f2a35 (build Nov 21 2017 15:30:27) complex          
  
 executed on             LinuxIFC date 2020.08.19  05:16:12
 running on  320 total cores
 distrk:  each k-point on  160 cores,    2 groups
 distr:  one band on NCORES_PER_BAND=  20 cores,    8 groups


--------------------------------------------------------------------------------------------------------


 INCAR:
 POTCAR:   PAW_PBE Ba_sv 06Sep2000                
 POTCAR:   PAW_PBE Si 05Jan2001                   
 POTCAR:   PAW_PBE C 08Apr2002                    

 ----------------------------------------------------------------------------- 
|                                                                             |
|           W    W    AA    RRRRR   N    N  II  N    N   GGGG   !!!           |
|           W    W   A  A   R    R  NN   N  II  NN   N  G    G  !!!           |
|           W    W  A    A  R    R  N N  N  II  N N  N  G       !!!           |
|           W WW W  AAAAAA  RRRRR   N  N N  II  N  N N  G  GGG   !            |
|           WW  WW  A    A  R   R   N   NN  II  N   NN  G    G                |
|           W    W  A    A  R    R  N    N  II  N    N   GGGG   !!!           |
|                                                                             |
|      You have enabled k-point parallelism (KPAR>1).                         |
|      This developmental code was originally  written by Paul Kent at ORNL,  |
|      and carefully double checked in Vienna.                                |
|      GW as well as linear response parallelism added by Martijn Marsman     |
|      and Georg Kresse.                                                      |
|      Carefully verify results versus KPAR=1.                                |
|      Report problems to Paul Kent and Vienna.                               |
|                                                                             |
 ----------------------------------------------------------------------------- 

 POTCAR:   PAW_PBE Ba_sv 06Sep2000                
   VRHFIN =Ba: 5s5p6s                                                           
   LEXCH  = PE                                                                  
   EATOM  =   700.2255 eV,   51.4651 Ry                                         
                                                                                
   TITEL  = PAW_PBE Ba_sv 06Sep2000                                             
   LULTRA =        F    use ultrasoft PP ?                                      
   IUNSCR =        1    unscreen: 0-lin 1-nonlin 2-no                           
   RPACOR =    2.400    partial core radius                                     
   POMASS =  137.327; ZVAL   =   10.000    mass and valenz                      
   RCORE  =    2.800    outmost cutoff radius                                   
   RWIGS  =    3.740; RWIGS  =    1.979    wigner-seitz radius (au A)           
   ENMAX  =  187.210; ENMIN  =  140.408 eV                                      
   RCLOC  =    2.516    cutoff for local pot                                    
   LCOR   =        T    correct aug charges                                     
   LPAW   =        T    paw PP                                                  
   EAUG   =  351.165                                                            
   DEXC   =     .000                                                            
   RMAX   =    3.370    core radius for proj-oper                               
   RAUG   =    1.300    factor for augmentation sphere                          
   RDEP   =    2.976    radius for radial grids                                 
   QCUT   =   -3.709; QGAM   =    7.419    optimization parameters              
                                                                                
   Description                                                                  
     l     E      TYP  RCUT    TYP  RCUT                                        
     0   .000     23  2.800                                                     
     0   .000     23  2.800                                                     
     1   .000     23  2.700                                                     
     1  2.000     23  2.700                                                     
     2   .000     23  2.700                                                     
     2   .000     23  2.700                                                     
  local pseudopotential read in
  partial core-charges read in
  atomic valenz-charges read in
  non local Contribution for L=           0  read in
    real space projection operators read in
  non local Contribution for L=           0  read in
    real space projection operators read in
  non local Contribution for L=           1  read in
    real space projection operators read in
  non local Contribution for L=           1  read in
    real space projection operators read in
  non local Contribution for L=           2  read in
    real space projection operators read in
  non local Contribution for L=           2  read in
    real space projection operators read in
    PAW grid and wavefunctions read in
 
   number of l-projection  operators is LMAX  =           6
   number of lm-projection operators is LMMAX =          18
 
 POTCAR:   PAW_PBE Si 05Jan2001                   
   VRHFIN =Si: s2p2                                                             
   LEXCH  = PE                                                                  
   EATOM  =   103.0669 eV,    7.5752 Ry                                         
                                                                                
   TITEL  = PAW_PBE Si 05Jan2001                                                
   LULTRA =        F    use ultrasoft PP ?                                      
   IUNSCR =        1    unscreen: 0-lin 1-nonlin 2-no                           
   RPACOR =    1.500    partial core radius                                     
   POMASS =   28.085; ZVAL   =    4.000    mass and valenz                      
   RCORE  =    1.900    outmost cutoff radius                                   
   RWIGS  =    2.480; RWIGS  =    1.312    wigner-seitz radius (au A)           
   ENMAX  =  245.345; ENMIN  =  184.009 eV                                      
   ICORE  =        2    local potential                                         
   LCOR   =        T    correct aug charges                                     
   LPAW   =        T    paw PP                                                  
   EAUG   =  322.069                                                            
   DEXC   =    -.007                                                            
   RMAX   =    2.944    core radius for proj-oper                               
   RAUG   =    1.300    factor for augmentation sphere                          
   RDEP   =    1.993    radius for radial grids                                 
   QCUT   =   -4.246; QGAM   =    8.493    optimization parameters              
                                                                                
   Description                                                                  
     l     E      TYP  RCUT    TYP  RCUT                                        
     0   .000     23  1.900                                                     
     0   .000     23  1.900                                                     
     1   .000     23  1.900                                                     
     1   .000     23  1.900                                                     
     2   .000      7  1.900                                                     
  local pseudopotential read in
  partial core-charges read in
  atomic valenz-charges read in
  non local Contribution for L=           0  read in
    real space projection operators read in
  non local Contribution for L=           0  read in
    real space projection operators read in
  non local Contribution for L=           1  read in
    real space projection operators read in
  non local Contribution for L=           1  read in
    real space projection operators read in
    PAW grid and wavefunctions read in
 
   number of l-projection  operators is LMAX  =           4
   number of lm-projection operators is LMMAX =           8
 
 POTCAR:   PAW_PBE C 08Apr2002                    
   VRHFIN =C: s2p2                                                              
   LEXCH  = PE                                                                  
   EATOM  =   147.1560 eV,   10.8157 Ry                                         
                                                                                
   TITEL  = PAW_PBE C 08Apr2002                                                 
   LULTRA =        F    use ultrasoft PP ?                                      
   IUNSCR =        0    unscreen: 0-lin 1-nonlin 2-no                           
   RPACOR =     .000    partial core radius                                     
   POMASS =   12.011; ZVAL   =    4.000    mass and valenz                      
   RCORE  =    1.500    outmost cutoff radius                                   
   RWIGS  =    1.630; RWIGS  =     .863    wigner-seitz radius (au A)           
   ENMAX  =  400.000; ENMIN  =  300.000 eV                                      
   ICORE  =        2    local potential                                         
   LCOR   =        T    correct aug charges                                     
   LPAW   =        T    paw PP                                                  
   EAUG   =  644.873                                                            
   DEXC   =     .000                                                            
   RMAX   =    2.266    core radius for proj-oper                               
   RAUG   =    1.300    factor for augmentation sphere                          
   RDEP   =    1.501    radius for radial grids                                 
   RDEPT  =    1.300    core radius for aug-charge                              
   QCUT   =   -5.516; QGAM   =   11.032    optimization parameters              
                                                                                
   Description                                                                  
     l     E      TYP  RCUT    TYP  RCUT                                        
     0   .000     23  1.200                                                     
     0   .000     23  1.200                                                     
     1   .000     23  1.500                                                     
     1  2.500     23  1.500                                                     
     2   .000      7  1.500                                                     
  local pseudopotential read in
  atomic valenz-charges read in
  non local Contribution for L=           0  read in
    real space projection operators read in
  non local Contribution for L=           0  read in
    real space projection operators read in
  non local Contribution for L=           1  read in
    real space projection operators read in
  non local Contribution for L=           1  read in
    real space projection operators read in
    PAW grid and wavefunctions read in
 
   number of l-projection  operators is LMAX  =           4
   number of lm-projection operators is LMMAX =           8
 
 Optimization of the real space projectors (new method)

 maximal supplied QI-value         = 13.42
 optimisation between [QCUT,QGAM] = [ 11.40, 22.81] = [ 36.42,145.68] Ry 
 Optimized for a Real-space Cutoff    1.56 Angstroem

   l    n(q)    QCUT    max X(q) W(low)/X(q) W(high)/X(q)  e(spline) 
   0     11    11.404     7.198    0.14E-04    0.26E-04    0.99E-07
   0     11    11.404    15.603    0.29E-04    0.72E-04    0.44E-06
   1     10    11.404     3.746    0.20E-04    0.24E-04    0.43E-07
   1     10    11.404     4.362    0.22E-03    0.97E-04    0.22E-06
   2     10    11.404     5.782    0.83E-04    0.62E-05    0.27E-06
   2     10    11.404    65.505    0.42E-03    0.31E-04    0.12E-05
 Optimization of the real space projectors (new method)

 maximal supplied QI-value         = 19.84
 optimisation between [QCUT,QGAM] = [ 11.31, 22.82] = [ 35.82,145.81] Ry 
 Optimized for a Real-space Cutoff    1.16 Angstroem

   l    n(q)    QCUT    max X(q) W(low)/X(q) W(high)/X(q)  e(spline) 
   0      8    11.310     8.708    0.14E-04    0.11E-04    0.43E-08
   0      8    11.310   106.241    0.27E-03    0.30E-03    0.38E-07
   1      7    11.310     5.901    0.82E-05    0.48E-04    0.19E-07
   1      7    11.310    73.241    0.27E-03    0.27E-03    0.74E-07
 Optimization of the real space projectors (new method)

 maximal supplied QI-value         = 25.13
 optimisation between [QCUT,QGAM] = [ 11.31, 22.87] = [ 35.82,146.48] Ry 
 Optimized for a Real-space Cutoff    1.00 Angstroem

   l    n(q)    QCUT    max X(q) W(low)/X(q) W(high)/X(q)  e(spline) 
   0      7    11.310     5.582    0.73E-04    0.21E-03    0.14E-07
   0      7    11.310    69.432    0.43E-03    0.13E-02    0.18E-06
   1      6    11.310     2.780    0.17E-04    0.12E-03    0.37E-07
   1      6    11.310     4.549    0.34E-03    0.55E-03    0.92E-07
 PAW_PBE Ba_sv 06Sep2000                :
 energy of atom  1       EATOM= -700.2255
 kinetic energy error for atom=    0.0005 (will be added to EATOM!!)
 PAW_PBE Si 05Jan2001                   :
 energy of atom  2       EATOM= -103.0669
 kinetic energy error for atom=    0.0006 (will be added to EATOM!!)
 PAW_PBE C 08Apr2002                    :
 energy of atom  3       EATOM= -147.1560
 kinetic energy error for atom=    0.0076 (will be added to EATOM!!)
 
 
 POSCAR: ba8 si8 c8                              
  positions in direct lattice
  velocities in cartesian coordinates
 exchange correlation table for  LEXCH =        8
   RHO(1)=    0.500       N(1)  =     2000
   RHO(2)=  100.500       N(2)  =     4000
 


--------------------------------------------------------------------------------------------------------


 ion  position               nearest neighbor table
   1  0.970  0.250  0.650-  18 2.74  24 3.03  13 3.24  10 3.24  16 3.29  11 3.29   7 4.35   8 4.35
                             8 4.35   5 4.59   5 4.59   2 4.62   2 4.62
   2  0.030  0.750  0.350-  17 2.74  23 3.03   9 3.24  14 3.24  12 3.29  15 3.29   8 4.35   7 4.35
                             7 4.35   6 4.59   6 4.59   1 4.62   1 4.62
   3  0.530  0.750  0.150-  20 2.74  22 3.03  12 3.24  15 3.24   9 3.29  14 3.29   5 4.35   6 4.35
                             6 4.35   7 4.59   7 4.59   4 4.62   4 4.62
   4  0.470  0.250  0.850-  19 2.74  21 3.03  16 3.24  11 3.24  13 3.29  10 3.29   6 4.35   5 4.35
                             5 4.35   8 4.59   8 4.59   3 4.62   3 4.62
   5  0.124  0.750  0.927-  22 2.90  21 3.30  21 3.30  10 3.34  13 3.34   9 3.40  14 3.40  11 3.51
                            16 3.51   6 4.07   6 4.07   3 4.35   4 4.35   4 4.35   1 4.59   1 4.59
   6  0.876  0.250  0.073-  21 2.90  22 3.30  22 3.30  14 3.34   9 3.34  13 3.40  10 3.40  15 3.51
                            12 3.51   5 4.07   5 4.07   4 4.35   3 4.35   3 4.35   2 4.59   2 4.59
   7  0.376  0.250  0.427-  24 2.90  23 3.30  23 3.30  15 3.34  12 3.34  16 3.40  11 3.40  14 3.51
                             9 3.51   8 4.07   8 4.07   1 4.35   2 4.35   2 4.35   3 4.59   3 4.59
   8  0.624  0.750  0.573-  23 2.90  24 3.30  24 3.30  11 3.34  16 3.34  12 3.40  15 3.40  10 3.51
                            13 3.51   7 4.07   7 4.07   2 4.35   1 4.35   1 4.35   4 4.59   4 4.59
   9  0.216  0.057  0.166-  19 2.01  21 2.02  14 2.34   2 3.24   3 3.29   6 3.34   5 3.40   7 3.51

  10  0.784  0.943  0.834-  20 2.01  22 2.02  13 2.34   1 3.24   4 3.29   5 3.34   6 3.40   8 3.51

  11  0.284  0.943  0.666-  17 2.01  23 2.02  16 2.34   4 3.24   1 3.29   8 3.34   7 3.40   5 3.51

  12  0.716  0.057  0.334-  18 2.01  24 2.02  15 2.34   3 3.24   2 3.29   7 3.34   8 3.40   6 3.51

  13  0.784  0.557  0.834-  20 2.01  22 2.02  10 2.34   1 3.24   4 3.29   5 3.34   6 3.40   8 3.51

  14  0.216  0.443  0.166-  19 2.01  21 2.02   9 2.34   2 3.24   3 3.29   6 3.34   5 3.40   7 3.51

  15  0.716  0.443  0.334-  18 2.01  24 2.02  12 2.34   3 3.24   2 3.29   7 3.34   8 3.40   6 3.51

  16  0.284  0.557  0.666-  17 2.01  23 2.02  11 2.34   4 3.24   1 3.29   8 3.34   7 3.40   5 3.51

  17  0.141  0.750  0.573-  23 1.45  11 2.01  16 2.01   2 2.74
  18  0.859  0.250  0.427-  24 1.45  15 2.01  12 2.01   1 2.74
  19  0.359  0.250  0.073-  21 1.45  14 2.01   9 2.01   4 2.74
  20  0.641  0.750  0.927-  22 1.45  10 2.01  13 2.01   3 2.74
  21  0.205  0.250  0.023-  19 1.45  14 2.02   9 2.02   6 2.90   4 3.03   5 3.30   5 3.30
  22  0.795  0.750  0.977-  20 1.45  10 2.02  13 2.02   5 2.90   3 3.03   6 3.30   6 3.30
  23  0.295  0.750  0.523-  17 1.45  11 2.02  16 2.02   8 2.90   2 3.03   7 3.30   7 3.30
  24  0.705  0.250  0.477-  18 1.45  15 2.02  12 2.02   7 2.90   1 3.03   8 3.30   8 3.30
 
  LATTYP: Found a simple orthorhombic cell.
 ALAT       =     6.0564259749
 B/A-ratio  =     1.4282179559
 C/A-ratio  =     1.8966871615
  
  Lattice vectors:
  
 A1 = (   0.0000000000,  -6.0564259749,   0.0000000000)
 A2 = (  -8.6498963262,   0.0000000000,   0.0000000000)
 A3 = (   0.0000000000,   0.0000000000, -11.4871453913)


Analysis of symmetry for initial positions (statically):
=====================================================================
 Subroutine PRICEL returns:
 Original cell was already a primitive cell.
 

 Routine SETGRP: Setting up the symmetry group for a 
 simple orthorhombic supercell.


 Subroutine GETGRP returns: Found  8 space group operations
 (whereof  2 operations were pure point group operations)
 out of a pool of  8 trial point group operations.


The static configuration has the point symmetry S_2 .
 The point group associated with its full space group is D_2h.


Analysis of symmetry for dynamics (positions and initial velocities):
=====================================================================
 Subroutine PRICEL returns:
 Original cell was already a primitive cell.
 

 Routine SETGRP: Setting up the symmetry group for a 
 simple orthorhombic supercell.


 Subroutine GETGRP returns: Found  8 space group operations
 (whereof  2 operations were pure point group operations)
 out of a pool of  8 trial point group operations.


The dynamic configuration has the point symmetry S_2 .
 The point group associated with its full space group is D_2h.


 Subroutine INISYM returns: Found  8 space group operations
 (whereof  2 operations are pure point group operations),
 and found     1 'primitive' translations

 
 
 KPOINTS: Automatically generated mesh            
  k-points in reciprocal lattice
Space group operators:
 irot       det(A)        alpha          n_x          n_y          n_z        tau_x        tau_y        tau_z
    1     1.000000     0.000001     1.000000     0.000000     0.000000     0.000000     0.000000     0.000000
    2    -1.000000     0.000001     1.000000     0.000000     0.000000     0.000000     0.000000     0.000000
    3     1.000000   179.999999     0.000000     0.000000     1.000000    -0.500000     0.000000    -0.500000
    4    -1.000000   179.999999     0.000000     0.000000     1.000000    -0.500000     0.000000    -0.500000
    5     1.000000   180.000000     1.000000     0.000000     0.000000    -0.500000    -0.500000    -0.500000
    6    -1.000000   180.000000     1.000000     0.000000     0.000000    -0.500000    -0.500000    -0.500000
    7     1.000000   180.000000     0.000000     1.000000     0.000000     0.000000    -0.500000    -0.000000
    8    -1.000000   180.000000     0.000000     1.000000     0.000000     0.000000    -0.500000     0.000000

 ----------------------------------------------------------------------------- 
|                                                                             |
|           W    W    AA    RRRRR   N    N  II  N    N   GGGG   !!!           |
|           W    W   A  A   R    R  NN   N  II  NN   N  G    G  !!!           |
|           W    W  A    A  R    R  N N  N  II  N N  N  G       !!!           |
|           W WW W  AAAAAA  RRRRR   N  N N  II  N  N N  G  GGG   !            |
|           WW  WW  A    A  R   R   N   NN  II  N   NN  G    G                |
|           W    W  A    A  R    R  N    N  II  N    N   GGGG   !!!           |
|                                                                             |
|      Your generating k-point grid is not commensurate to the symmetry       |
|      of the lattice.  This can cause   slow convergence with respect        |
|      to k-points for HF type calculations                                   |
|      suggested SOLUTIONS:                                                   |
|       ) if not already the case, use automatic k-point generation           |
|       ) shift your grid to Gamma (G) (e.g. required for hex or fcc lattice) |
|                                                                             |
 ----------------------------------------------------------------------------- 

 
 Subroutine IBZKPT_HF returns following result:
 ==============================================
 
 Found     48 k-points in 1st BZ
 the following     48 k-points will be used (e.g. in the exchange kernel)
 Following reciprocal coordinates:   # in IRBZ
  0.000000  0.000000  0.000000    0.02083333   1 t-inv F
  0.166667  0.000000  0.000000    0.02083333   2 t-inv F
  0.333333  0.000000  0.000000    0.02083333   3 t-inv F
  0.500000  0.000000  0.000000    0.02083333   4 t-inv F
  0.000000  0.125000  0.000000    0.02083333   5 t-inv F
  0.166667  0.125000  0.000000    0.02083333   6 t-inv F
  0.333333  0.125000  0.000000    0.02083333   7 t-inv F
  0.500000  0.125000  0.000000    0.02083333   8 t-inv F
  0.000000  0.250000  0.000000    0.02083333   9 t-inv F
  0.166667  0.250000  0.000000    0.02083333  10 t-inv F
  0.333333  0.250000  0.000000    0.02083333  11 t-inv F
  0.500000  0.250000  0.000000    0.02083333  12 t-inv F
  0.000000  0.375000  0.000000    0.02083333  13 t-inv F
  0.166667  0.375000  0.000000    0.02083333  14 t-inv F
  0.333333  0.375000  0.000000    0.02083333  15 t-inv F
  0.500000  0.375000  0.000000    0.02083333  16 t-inv F
  0.000000  0.500000  0.000000    0.02083333  17 t-inv F
  0.166667  0.500000  0.000000    0.02083333  18 t-inv F
  0.333333  0.500000  0.000000    0.02083333  19 t-inv F
  0.500000  0.500000  0.000000    0.02083333  20 t-inv F
 -0.166667  0.000000  0.000000    0.02083333   2 t-inv F
 -0.333333  0.000000  0.000000    0.02083333   3 t-inv F
  0.000000 -0.125000  0.000000    0.02083333   5 t-inv F
 -0.166667 -0.125000  0.000000    0.02083333   6 t-inv F
  0.166667 -0.125000  0.000000    0.02083333   6 t-inv F
 -0.166667  0.125000  0.000000    0.02083333   6 t-inv F
 -0.333333 -0.125000  0.000000    0.02083333   7 t-inv F
  0.333333 -0.125000  0.000000    0.02083333   7 t-inv F
 -0.333333  0.125000  0.000000    0.02083333   7 t-inv F
 -0.500000 -0.125000  0.000000    0.02083333   8 t-inv F
  0.000000 -0.250000  0.000000    0.02083333   9 t-inv F
 -0.166667 -0.250000  0.000000    0.02083333  10 t-inv F
  0.166667 -0.250000  0.000000    0.02083333  10 t-inv F
 -0.166667  0.250000  0.000000    0.02083333  10 t-inv F
 -0.333333 -0.250000  0.000000    0.02083333  11 t-inv F
  0.333333 -0.250000  0.000000    0.02083333  11 t-inv F
 -0.333333  0.250000  0.000000    0.02083333  11 t-inv F
 -0.500000 -0.250000  0.000000    0.02083333  12 t-inv F
  0.000000 -0.375000  0.000000    0.02083333  13 t-inv F
 -0.166667 -0.375000  0.000000    0.02083333  14 t-inv F
  0.166667 -0.375000  0.000000    0.02083333  14 t-inv F
 -0.166667  0.375000  0.000000    0.02083333  14 t-inv F
 -0.333333 -0.375000  0.000000    0.02083333  15 t-inv F
  0.333333 -0.375000  0.000000    0.02083333  15 t-inv F
 -0.333333  0.375000  0.000000    0.02083333  15 t-inv F
 -0.500000 -0.375000  0.000000    0.02083333  16 t-inv F
 -0.166667 -0.500000  0.000000    0.02083333  18 t-inv F
 -0.333333 -0.500000  0.000000    0.02083333  19 t-inv F


--------------------------------------------------------------------------------------------------------




 Dimension of arrays:
   k-points           NKPTS =     20   k-points in BZ     NKDIM =     48   number of bands    NBANDS=     88
   number of dos      NEDOS =   2801   number of ions     NIONS =     24
   non local maximal  LDIM  =      6   non local SUM 2l+1 LMDIM =     18
   total plane-waves  NPLWV = 110592
   max r-space proj   IRMAX =   2996   max aug-charges    IRDMAX=  11702
   dimension x,y,z NGX =    48 NGY =   36 NGZ =   64
   dimension x,y,z NGXF=    96 NGYF=   72 NGZF=  128
   support grid    NGXF=    96 NGYF=   72 NGZF=  128
   ions per type =               8   8   8
   NGX,Y,Z   is equivalent  to a cutoff of   9.23,  9.88,  9.26 a.u.
   NGXF,Y,Z  is equivalent  to a cutoff of  18.45, 19.76, 18.52 a.u.

 SYSTEM =  unknown system                          
 POSCAR =  ba8 si8 c8                              

 Startparameter for this run:
   NWRITE =      2    write-flag & timer
   PREC   = normal    normal or accurate (medium, high low for compatibility)
   ISTART =      1    job   : 0-new  1-cont  2-samecut
   ICHARG =      0    charge: 1-file 2-atom 10-const
   ISPIN  =      1    spin polarized calculation?
   LNONCOLLINEAR =      F non collinear calculations
   LSORBIT =      F    spin-orbit coupling
   INIWAV =      1    electr: 0-lowe 1-rand  2-diag
   LASPH  =      F    aspherical Exc in radial PAW
   METAGGA=      F    non-selfconsistent MetaGGA calc.

 Electronic Relaxation 1
   ENCUT  =  500.0 eV  36.75 Ry    6.06 a.u.  15.77 11.04 20.94*2*pi/ulx,y,z
   ENINI  =  500.0     initial cutoff
   ENAUG  =  644.9 eV  augmentation charge cutoff
   NELM   =    300;   NELMIN=  4; NELMDL=  0     # of ELM steps 
   EDIFF  = 0.1E-05   stopping-criterion for ELM
   LREAL  =      T    real-space projection
   NLSPLINE    = F    spline interpolate recip. space projectors
   LCOMPAT=      F    compatible to vasp.4.4
   GGA_COMPAT  = T    GGA compatible to vasp.4.4-vasp.4.6
   LMAXPAW     = -100 max onsite density
   LMAXMIX     =    2 max onsite mixed and CHGCAR
   VOSKOWN=      0    Vosko Wilk Nusair interpolation
   ROPT   =   -0.00050  -0.00050  -0.00050
 Ionic relaxation
   EDIFFG = 0.1E-04   stopping-criterion for IOM
   NSW    =      0    number of steps for IOM
   NBLOCK =      1;   KBLOCK =      1    inner block; outer block 
   IBRION =     -1    ionic relax: 0-MD 1-quasi-New 2-CG
   NFREE  =      0    steps in history (QN), initial steepest desc. (CG)
   ISIF   =      0    stress and relaxation
   IWAVPR =     10    prediction:  0-non 1-charg 2-wave 3-comb
   ISYM   =      3    0-nonsym 1-usesym 2-fastsym
   LCORR  =      T    Harris-Foulkes like correction to forces

   POTIM  = 0.5000    time-step for ionic-motion
   TEIN   =    0.0    initial temperature
   TEBEG  =    0.0;   TEEND  =   0.0 temperature during run
   SMASS  =  -3.00    Nose mass-parameter (am)
   estimated Nose-frequenzy (Omega)   =  0.10E-29 period in steps =****** mass=  -0.171E-26a.u.
   SCALEE = 1.0000    scale energy and forces
   NPACO  =    256;   APACO  = 16.0  distance and # of slots for P.C.
   PSTRESS=    0.0 pullay stress

  Mass of Ions in am
   POMASS = 137.33 28.09 12.01
  Ionic Valenz
   ZVAL   =  10.00  4.00  4.00
  Atomic Wigner-Seitz radii
   RWIGS  =  -1.00 -1.00 -1.00
  virtual crystal weights 
   VCA    =   1.00  1.00  1.00
   NELECT =     144.0000    total number of electrons
   NUPDOWN=      -1.0000    fix difference up-down

 DOS related values:
   EMIN   = -10.00;   EMAX   = 18.00  energy-range for DOS
   EFERMI =   0.00
   ISMEAR =     0;   SIGMA  =   0.01  broadening in eV -4-tet -1-fermi 0-gaus

 Electronic relaxation 2 (details)
   IALGO  =     53    algorithm
   LDIAG  =      T    sub-space diagonalisation (order eigenvalues)
   LSUBROT=      F    optimize rotation matrix (better conditioning)
   TURBO    =      0    0=normal 1=particle mesh
   IRESTART =      0    0=no restart 2=restart with 2 vectors
   NREBOOT  =      0    no. of reboots
   NMIN     =      0    reboot dimension
   EREF     =   0.00    reference energy to select bands
   IMIX   =      4    mixing-type and parameters
     AMIX     =   0.40;   BMIX     =  1.00
     AMIX_MAG =   1.60;   BMIX_MAG =  1.00
     AMIN     =   0.10
     WC   =   100.;   INIMIX=   1;  MIXPRE=   1;  MAXMIX= -45

 Intra band minimization:
   WEIMIN = 0.0000     energy-eigenvalue tresh-hold
   EBREAK =  0.28E-08  absolut break condition
   DEPER  =   0.30     relativ break condition  

   TIME   =   0.40     timestep for ELM

  volume/ion in A,a.u.               =      25.07       169.21
  Fermi-wavevector in a.u.,A,eV,Ry     =   1.016364  1.920649 14.054755  1.032995
  Thomas-Fermi vector in A             =   2.149703
 
 Write flags
   LWAVE        =      F    write WAVECAR
   LDOWNSAMPLE  =      F    k-point downsampling of WAVECAR
   LCHARG       =      T    write CHGCAR
   LVTOT        =      F    write LOCPOT, total local potential
   LVHAR        =      F    write LOCPOT, Hartree potential only
   LELF         =      F    write electronic localiz. function (ELF)
   LORBIT       =     11    0 simple, 1 ext, 2 COOP (PROOUT), +10 PAW based schemes


 Dipole corrections
   LMONO  =      F    monopole corrections only (constant potential shift)
   LDIPOL =      F    correct potential (dipole corrections)
   IDIPOL =      0    1-x, 2-y, 3-z, 4-all directions 
   EPSILON=  1.0000000 bulk dielectric constant

 Exchange correlation treatment:
   GGA     =    --    GGA type
   LEXCH   =     8    internal setting for exchange type
   VOSKOWN=      0    Vosko Wilk Nusair interpolation
   EXXOEP  =     0    0=HF, 1=EXX-LHF (local Hartree Fock) 2=EXX OEP
   LHFCALC =     T    Hartree Fock is set to
   LSYMGRAD=     F    symmetrize gradient (conserves proper symmetry)
   PRECFOCK=normal    Normal, Fast or Accurate (Low or Medium for compatibility)
   LRHFCALC=     F    long range Hartree Fock
   LRSCOR  =     F    long range correlation only (use DFT for short range part)
   LTHOMAS =     F    Thomas Fermi screening in HF
   LMODELHF=     F    short range full HF, long range fraction AEXX
   ENCUT4O =  -1.0   cutoff for four orbital integrals eV
   LMAXFOCK=     4    L truncation for augmentation on plane wave grid
   LMAXFOCKAE=  -1    L truncation for all-electron charge restoration on plane wave grid
   NMAXFOCKAE=   1    number of basis functions for all-electron charge restoration
   LFOCKAEDFT=     F  apply the AE augmentation even for DFT
   NKREDX  =     1    reduce k-point grid by
   NKREDY  =     1    reduce k-point grid by
   NKREDZ  =     1    reduce k-point grid by
   SHIFTRED=     F    shift reduced grid of Gamma
   HFKIDENT=     F    idential grid for each k-point
   ODDONLY =     F    use only odd q-grid points
   EVENONLY=     F    use only even q-grid points
   HFALPHA =   -1.0000 decay constant for conv. correction
   MCALPHA =    0.0000 extent of test-charge in conv. correction in multipole expansion
   AEXX    =    0.2500 exact exchange contribution
   HFSCREEN=    0.2000 screening length (either q_TF or 0.3 A-1)
   HFSCREENC=   0.2000 screening length for correlation (either q_TF or 0.3 A-1)
   HFRCUT  =    0.0000 spherical cutoff for potential kernel
   ALDAX   =    0.7500 LDA exchange part
   AGGAX   =    0.7500 GGA exchange part
   ALDAC   =    1.0000 LDA correlation
   AGGAC   =    1.0000 GGA correlation
   ENCUTFOCK=  -1.0 apply spherical cutoff to Coloumb kernel
   NBANDSGWLOW=     1    first orbital included in HF term
   NBLOCK_FOCK=    64    blocking factor in FOCK_ACC
 Linear response parameters
   LEPSILON=     F    determine dielectric tensor
   LRPA    =     F    only Hartree local field effects (RPA)
   LNABLA  =     F    use nabla operator in PAW spheres
   LVEL    =     F    velocity operator in full k-point grid
   LINTERFAST=   F  fast interpolation
   KINTER  =     0    interpolate to denser k-point grid
   CSHIFT  =0.1000    complex shift for real part using Kramers Kronig
   OMEGAMAX=  -1.0    maximum frequency
   DEG_THRESHOLD= 0.2000000E-02 threshold for treating states as degnerate
   RTIME   =   -0.100 relaxation time in fs
  (WPLASMAI=    0.000 imaginary part of plasma frequency in eV, 0.658/RTIME)
   DFIELD  = 0.0000000 0.0000000 0.0000000 field for delta impulse in time
 
 Orbital magnetization related:
   ORBITALMAG=     F  switch on orbital magnetization
   LCHIMAG   =     F  perturbation theory with respect to B field
   DQ        =  0.001000  dq finite difference perturbation B field
   LLRAUG    =     F  two centre corrections for induced B field



--------------------------------------------------------------------------------------------------------


 Static calculation
 charge density and potential will be updated during run
 non-spin polarized calculation
 Conjugate gradient for all bands (Freysoldt, et al. PRB 79, 241103 (2009))
 perform sub-space diagonalisation
    before iterative eigenvector-optimisation
 modified Broyden-mixing scheme, WC =      100.0
 initial mixing is a Kerker type mixing with AMIX =  0.4000 and BMIX =      1.0000
 Hartree-type preconditioning will be used
 using additional bands           16
 real space projection scheme for non local part
 use partial core corrections
 no Harris-corrections to forces 
 use gradient corrections 
 use of overlap-Matrix (Vanderbilt PP)
 Gauss-broadening in eV      SIGMA  =   0.01


--------------------------------------------------------------------------------------------------------


  energy-cutoff  :      500.00
  volume of cell :      601.78
      direct lattice vectors                 reciprocal lattice vectors
     8.649896326  0.000000000  0.000000000     0.115608322  0.000000000  0.000000000
     0.000000000  6.056425975  0.000000000     0.000000000  0.165113881  0.000000000
     0.000000000  0.000000000 11.487145391     0.000000000  0.000000000  0.087053830

  length of vectors
     8.649896326  6.056425975 11.487145391     0.115608322  0.165113881  0.087053830


 
 old parameters found on file WAVECAR:
  energy-cutoff  :      500.00
  volume of cell :      601.78
      direct lattice vectors                 reciprocal lattice vectors
     8.649896326  0.000000000  0.000000000     0.115608322  0.000000000  0.000000000
     0.000000000  6.056425975  0.000000000     0.000000000  0.165113881  0.000000000
     0.000000000  0.000000000 11.487145391     0.000000000  0.000000000  0.087053830

  length of vectors

 
 k-points in units of 2pi/SCALE and weight: Automatically generated mesh            
   0.00000000  0.00000000  0.00000000       0.021
   0.01926805  0.00000000  0.00000000       0.042
   0.03853611  0.00000000  0.00000000       0.042
   0.05780416  0.00000000  0.00000000       0.021
   0.00000000  0.02063924  0.00000000       0.042
   0.01926805  0.02063924  0.00000000       0.083
   0.03853611  0.02063924  0.00000000       0.083
   0.05780416  0.02063924  0.00000000       0.042
   0.00000000  0.04127847  0.00000000       0.042
   0.01926805  0.04127847  0.00000000       0.083
   0.03853611  0.04127847  0.00000000       0.083
   0.05780416  0.04127847  0.00000000       0.042
   0.00000000  0.06191771  0.00000000       0.042
   0.01926805  0.06191771  0.00000000       0.083
   0.03853611  0.06191771  0.00000000       0.083
   0.05780416  0.06191771  0.00000000       0.042
   0.00000000  0.08255694  0.00000000       0.021
   0.01926805  0.08255694  0.00000000       0.042
   0.03853611  0.08255694  0.00000000       0.042
   0.05780416  0.08255694  0.00000000       0.021
 
 k-points in reciprocal lattice and weights: Automatically generated mesh            
   0.00000000  0.00000000  0.00000000       0.021
   0.16666667  0.00000000  0.00000000       0.042
   0.33333333  0.00000000  0.00000000       0.042
   0.50000000  0.00000000  0.00000000       0.021
   0.00000000  0.12500000  0.00000000       0.042
   0.16666667  0.12500000  0.00000000       0.083
   0.33333333  0.12500000  0.00000000       0.083
   0.50000000  0.12500000  0.00000000       0.042
   0.00000000  0.25000000  0.00000000       0.042
   0.16666667  0.25000000  0.00000000       0.083
   0.33333333  0.25000000  0.00000000       0.083
   0.50000000  0.25000000  0.00000000       0.042
   0.00000000  0.37500000  0.00000000       0.042
   0.16666667  0.37500000  0.00000000       0.083
   0.33333333  0.37500000  0.00000000       0.083
   0.50000000  0.37500000  0.00000000       0.042
   0.00000000  0.50000000  0.00000000       0.021
   0.16666667  0.50000000  0.00000000       0.042
   0.33333333  0.50000000  0.00000000       0.042
   0.50000000  0.50000000  0.00000000       0.021
 
 position of ions in fractional coordinates (direct lattice) 
   0.97028399  0.25000000  0.65018578
   0.02971602  0.75000002  0.34981422
   0.52971602  0.75000002  0.15018572
   0.47028398  0.25000000  0.84981426
   0.12353121  0.75000002  0.92724190
   0.87646879  0.25000000  0.07275808
   0.37646879  0.25000000  0.42724198
   0.62353121  0.75000002  0.57275806
   0.21595353  0.05657783  0.16550838
   0.78404647  0.94342216  0.83449160
   0.28404647  0.94342216  0.66550840
   0.71595353  0.05657783  0.33449160
   0.78404647  0.55657784  0.83449160
   0.21595353  0.44342216  0.16550838
   0.71595353  0.44342216  0.33449160
   0.28404647  0.55657784  0.66550840
   0.14058617  0.75000002  0.57345558
   0.85941381  0.25000000  0.42654442
   0.35941384  0.25000000  0.07345552
   0.64058619  0.75000002  0.92654446
   0.20543549  0.25000000  0.02269376
   0.79456450  0.75000002  0.97730625
   0.29456450  0.75000002  0.52269368
   0.70543550  0.25000000  0.47730624
 
 position of ions in cartesian coordinates  (Angst):
   8.39285590  1.51410649  7.46877858
   0.25704046  4.54231959  4.01836681
   4.58198862  4.54231959  1.72520518
   4.06790770  1.51410649  9.76193998
   1.06853220  4.54231959 10.65136249
   7.58136413  1.51410649  0.83578266
   3.25641596  1.51410649  4.90779074
   5.39348036  4.54231959  6.57935512
   1.86797564  0.34265943  1.90121879
   6.78192068  5.71376649  9.58592637
   2.45697252  5.71376649  7.64479172
   6.19292381  0.34265943  3.84235367
   6.78192068  3.37087247  9.58592637
   1.86797564  2.68555351  1.90121879
   6.19292381  2.68555351  3.84235367
   2.45697252  3.37087247  7.64479172
   1.21605576  4.54231959  6.58736763
   7.43384039  1.51410649  4.89977776
   3.10889246  1.51410649  0.84379423
   5.54100410  4.54231959 10.64335093
   1.77699568  1.51410649  0.26068656
   6.87290054  4.54231959 11.22645901
   2.54795237  4.54231959  6.00425831
   6.10194395  1.51410649  5.48288614
 


--------------------------------------------------------------------------------------------------------


 k-point  1 :   0.0000 0.0000 0.0000  plane waves:   15261
 k-point  2 :   0.1667 0.0000 0.0000  plane waves:   15263
 k-point  3 :   0.3333 0.0000 0.0000  plane waves:   15252
 k-point  4 :   0.5000 0.0000 0.0000  plane waves:   15264
 k-point  5 :   0.0000 0.1250 0.0000  plane waves:   15282
 k-point  6 :   0.1667 0.1250 0.0000  plane waves:   15254
 k-point  7 :   0.3333 0.1250 0.0000  plane waves:   15252
 k-point  8 :   0.5000 0.1250 0.0000  plane waves:   15286
 k-point  9 :   0.0000 0.2500 0.0000  plane waves:   15276
 k-point 10 :   0.1667 0.2500 0.0000  plane waves:   15268
 k-point 11 :   0.3333 0.2500 0.0000  plane waves:   15262
 k-point 12 :   0.5000 0.2500 0.0000  plane waves:   15272
 k-point 13 :   0.0000 0.3750 0.0000  plane waves:   15278
 k-point 14 :   0.1667 0.3750 0.0000  plane waves:   15280
 k-point 15 :   0.3333 0.3750 0.0000  plane waves:   15300
 k-point 16 :   0.5000 0.3750 0.0000  plane waves:   15280
 k-point 17 :   0.0000 0.5000 0.0000  plane waves:   15242
 k-point 18 :   0.1667 0.5000 0.0000  plane waves:   15298
 k-point 19 :   0.3333 0.5000 0.0000  plane waves:   15304
 k-point 20 :   0.5000 0.5000 0.0000  plane waves:   15296

 maximum and minimum number of plane-waves per node :       798      710

 maximum number of plane-waves:     15304
 maximum index in each direction: 
   IXMAX=   15   IYMAX=   11   IZMAX=   20
   IXMIN=  -16   IYMIN=  -11   IZMIN=  -20


 real space projection operators:
  total allocation   :       4170.44 KBytes
  max/ min on nodes  :        287.25        146.00


 parallel 3D FFT for wavefunctions:
    minimum data exchange during FFTs selected (reduces bandwidth)
 parallel 3D FFT for charge:
    minimum data exchange during FFTs selected (reduces bandwidth)

 
 Radii for the augmentation spheres in the non-local exchange
 for species   1 augmentation radius   1.524 (default was   1.219)
       energy cutoff for augmentation   2000.0
 for species   2 augmentation radius   1.055 (default was   0.989)
       energy cutoff for augmentation   2000.0
 for species   3 augmentation radius   0.795 (default was   0.699)
       energy cutoff for augmentation   2000.0

 real space projection operators:
  total allocation   :       4971.34 KBytes
  max/ min on nodes  :        373.34        148.33

 Maximum index for augmentation-charges in exchange          352
  SETUP_FOCK is finished

 total amount of memory used by VASP MPI-rank0    43773. kBytes
=======================================================================

   base      :      30000. kBytes
   nonlr-proj:       3118. kBytes
   fftplans  :        753. kBytes
   grid      :        874. kBytes
   one-center:         31. kBytes
   HF        :        129. kBytes
   wavefun   :       8868. kBytes
 
     INWAV:  cpu time    1.7169: real time    1.8777
 Broyden mixing: mesh for mixing (old mesh)
   NGX = 31   NGY = 23   NGZ = 41
  (NGX  = 96   NGY  = 72   NGZ  =128)
  gives a total of  29233 points

 charge density for first step will be calculated from the start-wavefunctions


--------------------------------------------------------------------------------------------------------


 Maximum index for non-local projection operator          361
 Maximum index for augmentation-charges          595 (set IRDMAX)


--------------------------------------------------------------------------------------------------------


 initial charge from wavefunction
 First call to EWALD:  gamma=   0.210
 Maximum number of real-space cells 3x 4x 2
 Maximum number of reciprocal cells 3x 2x 4

    FEWALD:  cpu time    0.0017: real time    0.0017


--------------------------------------- Iteration      1(   1)  ---------------------------------------


    POTLOK:  cpu time    0.0242: real time    0.0243
    SETDIJ:  cpu time    0.0983: real time    0.0983
    TRIAL :  cpu time  216.7273: real time  217.2657
    CORREC:  cpu time    0.0006: real time    0.0019
    CHARGE:  cpu time    0.0802: real time    0.0803
    --------------------------------------------
      LOOP:  cpu time  216.9331: real time  217.4950

 eigenvalue-minimisations  :     0
 total energy-change (2. order) :-0.1146100E+03  (-0.2783595E+02)
 number of electron     144.0000019 magnetization 
 augmentation part      -15.0589413 magnetization 

 Free energy of the ion-electron system (eV)
  ---------------------------------------------------
  alpha Z        PSCENC =       557.68175139
  Ewald energy   TEWEN  =     -6358.65290410
  -Hartree energ DENC   =     -1337.90342711
  -exchange      EXHF   =       263.28851916
  -V(xc)+E(xc)   XCENC  =       182.27216892
  PAW double counting   =      4076.76264960    -3965.34091847
  entropy T*S    EENTRO =        -0.00000000
  eigenvalues    EBANDS =     -1094.83656364
  atomic energy  EATOM  =      7562.11872291
  ---------------------------------------------------
  free energy    TOTEN  =      -114.61000135 eV

  energy without entropy =     -114.61000135  energy(sigma->0) =     -114.61000135
  exchange ACFDT corr.  =        -0.00000000  see jH, gK, PRB 81, 115126


--------------------------------------------------------------------------------------------------------




--------------------------------------- Iteration      1(   2)  ---------------------------------------


    POTLOK:  cpu time    0.0247: real time    0.0248
    SETDIJ:  cpu time    0.1163: real time    0.1163
    TRIAL :  cpu time  214.6720: real time  214.6748
    CORREC:  cpu time    0.0007: real time    0.0008
    CHARGE:  cpu time    0.0827: real time    0.0827
    --------------------------------------------
      LOOP:  cpu time  214.8984: real time  214.9264

 eigenvalue-minimisations  :     0
 total energy-change (2. order) :-0.2142645E+02  (-0.1610280E+02)
 number of electron     144.0000018 magnetization 
 augmentation part      -15.0021150 magnetization 

 Free energy of the ion-electron system (eV)
  ---------------------------------------------------
  alpha Z        PSCENC =       557.68175139
  Ewald energy   TEWEN  =     -6358.65290410
  -Hartree energ DENC   =     -1321.15992558
  -exchange      EXHF   =       264.69665714
  -V(xc)+E(xc)   XCENC  =       181.69403997
  PAW double counting   =      4055.23586619    -3944.54239178
  entropy T*S    EENTRO =        -0.00000000
  eigenvalues    EBANDS =     -1133.10826429
  atomic energy  EATOM  =      7562.11872291
  ---------------------------------------------------
  free energy    TOTEN  =      -136.03644815 eV

  energy without entropy =     -136.03644815  energy(sigma->0) =     -136.03644815
  exchange ACFDT corr.  =        -0.00000000  see jH, gK, PRB 81, 115126


--------------------------------------------------------------------------------------------------------




--------------------------------------- Iteration      1(   3)  ---------------------------------------


    POTLOK:  cpu time    0.0242: real time    0.0242
    SETDIJ:  cpu time    0.1159: real time    0.1159
    TRIAL :  cpu time  214.6275: real time  214.6298
    CORREC:  cpu time    0.0005: real time    0.0005
    CHARGE:  cpu time    0.0797: real time    0.0797
    --------------------------------------------
      LOOP:  cpu time  214.8504: real time  214.8528

 eigenvalue-minimisations  :     0
 total energy-change (2. order) :-0.1152879E+02  (-0.6760102E+01)
 number of electron     144.0000018 magnetization 
 augmentation part      -14.9548523 magnetization 

 Free energy of the ion-electron system (eV)
  ---------------------------------------------------
  alpha Z        PSCENC =       557.68175139
  Ewald energy   TEWEN  =     -6358.65290410
  -Hartree energ DENC   =     -1316.96187460
  -exchange      EXHF   =       265.87389901
  -V(xc)+E(xc)   XCENC  =       181.54490131
  PAW double counting   =      4047.68931167    -3937.15908831
  entropy T*S    EENTRO =        -0.00000000
  eigenvalues    EBANDS =     -1149.69995582
  atomic energy  EATOM  =      7562.11872291
  ---------------------------------------------------
  free energy    TOTEN  =      -147.56523654 eV

  energy without entropy =     -147.56523654  energy(sigma->0) =     -147.56523654
  exchange ACFDT corr.  =        -0.00000000  see jH, gK, PRB 81, 115126


--------------------------------------------------------------------------------------------------------




--------------------------------------- Iteration      1(   4)  ---------------------------------------


    POTLOK:  cpu time    0.0240: real time    0.0240
    SETDIJ:  cpu time    0.1160: real time    0.1160
    TRIAL :  cpu time  214.5697: real time  214.6055
    CORREC:  cpu time    0.0005: real time    0.0005
    CHARGE:  cpu time    0.0796: real time    0.0796
    --------------------------------------------
      LOOP:  cpu time  214.7908: real time  214.8266

 eigenvalue-minimisations  :     0
 total energy-change (2. order) :-0.4946550E+01  (-0.3029110E+01)
 number of electron     144.0000018 magnetization 
 augmentation part      -14.9267652 magnetization 

 Free energy of the ion-electron system (eV)
  ---------------------------------------------------
  alpha Z        PSCENC =       557.68175139
  Ewald energy   TEWEN  =     -6358.65290410
  -Hartree energ DENC   =     -1325.90176477
  -exchange      EXHF   =       266.97429770
  -V(xc)+E(xc)   XCENC  =       181.90675380
  PAW double counting   =      4058.95868231    -3948.23787949
  entropy T*S    EENTRO =        -0.00000000
  eigenvalues    EBANDS =     -1147.35944680
  atomic energy  EATOM  =      7562.11872291
  ---------------------------------------------------
  free energy    TOTEN  =      -152.51178704 eV

  energy without entropy =     -152.51178704  energy(sigma->0) =     -152.51178704
  exchange ACFDT corr.  =        -0.00000000  see jH, gK, PRB 81, 115126


--------------------------------------------------------------------------------------------------------




--------------------------------------- Iteration      1(   5)  ---------------------------------------


    POTLOK:  cpu time    0.0240: real time    0.0240
    SETDIJ:  cpu time    0.1152: real time    0.1152
    TRIAL :  cpu time  214.6147: real time  214.6704
    CORREC:  cpu time    0.0007: real time    0.0007
    CHARGE:  cpu time    0.0795: real time    0.0795
    --------------------------------------------
      LOOP:  cpu time  214.8352: real time  214.8908

 eigenvalue-minimisations  :     0
 total energy-change (2. order) :-0.2270122E+01  (-0.1387274E+01)
 number of electron     144.0000018 magnetization 
 augmentation part      -14.9186596 magnetization 

 Free energy of the ion-electron system (eV)
  ---------------------------------------------------
  alpha Z        PSCENC =       557.68175139
  Ewald energy   TEWEN  =     -6358.65290410
  -Hartree energ DENC   =     -1331.18479860
  -exchange      EXHF   =       267.54441247
  -V(xc)+E(xc)   XCENC  =       182.14160367
  PAW double counting   =      4066.66804425    -3955.80666099
  entropy T*S    EENTRO =        -0.00000000
  eigenvalues    EBANDS =     -1145.29208001
  atomic energy  EATOM  =      7562.11872291
  ---------------------------------------------------
  free energy    TOTEN  =      -154.78190901 eV

  energy without entropy =     -154.78190901  energy(sigma->0) =     -154.78190901
  exchange ACFDT corr.  =        -0.00000000  see jH, gK, PRB 81, 115126


--------------------------------------------------------------------------------------------------------




--------------------------------------- Iteration      1(   6)  ---------------------------------------


    POTLOK:  cpu time    0.0242: real time    0.0242
    SETDIJ:  cpu time    0.1160: real time    0.1160
    TRIAL :  cpu time  214.4132: real time  214.4682
    CORREC:  cpu time    0.0005: real time    0.0005
    CHARGE:  cpu time    0.0828: real time    0.0828
    --------------------------------------------
      LOOP:  cpu time  214.6377: real time  214.6927

 eigenvalue-minimisations  :     0
 total energy-change (2. order) :-0.1045436E+01  (-0.6135003E+00)
 number of electron     144.0000018 magnetization 
 augmentation part      -14.9239183 magnetization 

 Free energy of the ion-electron system (eV)
  ---------------------------------------------------
  alpha Z        PSCENC =       557.68175139
  Ewald energy   TEWEN  =     -6358.65290410
  -Hartree energ DENC   =     -1329.63401172
  -exchange      EXHF   =       267.58131294
  -V(xc)+E(xc)   XCENC  =       182.10274335
  PAW double counting   =      4065.27816904    -3954.42679791
  entropy T*S    EENTRO =        -0.00000000
  eigenvalues    EBANDS =     -1147.87633067
  atomic energy  EATOM  =      7562.11872291
  ---------------------------------------------------
  free energy    TOTEN  =      -155.82734477 eV

  energy without entropy =     -155.82734477  energy(sigma->0) =     -155.82734477
  exchange ACFDT corr.  =        -0.00000000  see jH, gK, PRB 81, 115126


--------------------------------------------------------------------------------------------------------




--------------------------------------- Iteration      1(   7)  ---------------------------------------


    POTLOK:  cpu time    0.0274: real time    0.0274
    SETDIJ:  cpu time    0.1177: real time    0.1177
    TRIAL :  cpu time  214.2867: real time  214.3433
    CORREC:  cpu time    0.0006: real time    0.0006
    CHARGE:  cpu time    0.0815: real time    0.0815
    --------------------------------------------
      LOOP:  cpu time  214.5148: real time  214.5715

 eigenvalue-minimisations  :     0
 total energy-change (2. order) :-0.4631478E+00  (-0.2633263E+00)
 number of electron     144.0000018 magnetization 
 augmentation part      -14.9317596 magnetization 

 Free energy of the ion-electron system (eV)
  ---------------------------------------------------
  alpha Z        PSCENC =       557.68175139
  Ewald energy   TEWEN  =     -6358.65290410
  -Hartree energ DENC   =     -1327.68433441
  -exchange      EXHF   =       267.49860066
  -V(xc)+E(xc)   XCENC  =       182.02855475
  PAW double counting   =      4062.48323807    -3951.68471753
  entropy T*S    EENTRO =        -0.00000000
  eigenvalues    EBANDS =     -1150.07940427
  atomic energy  EATOM  =      7562.11872291
  ---------------------------------------------------
  free energy    TOTEN  =      -156.29049253 eV

  energy without entropy =     -156.29049253  energy(sigma->0) =     -156.29049253
  exchange ACFDT corr.  =        -0.00000000  see jH, gK, PRB 81, 115126


--------------------------------------------------------------------------------------------------------




--------------------------------------- Iteration      1(   8)  ---------------------------------------


    POTLOK:  cpu time    0.0240: real time    0.0240
    SETDIJ:  cpu time    0.1150: real time    0.1152
    TRIAL :  cpu time  214.1966: real time  214.2517
    CORREC:  cpu time    0.0007: real time    0.0007
    CHARGE:  cpu time    0.0796: real time    0.0796
    --------------------------------------------
      LOOP:  cpu time  214.4168: real time  214.4732

 eigenvalue-minimisations  :     0
 total energy-change (2. order) :-0.2007309E+00  (-0.1123523E+00)
 number of electron     144.0000018 magnetization 
 augmentation part      -14.9374804 magnetization 

 Free energy of the ion-electron system (eV)
  ---------------------------------------------------
  alpha Z        PSCENC =       557.68175139
  Ewald energy   TEWEN  =     -6358.65290410
  -Hartree energ DENC   =     -1327.79035086
  -exchange      EXHF   =       267.49914265
  -V(xc)+E(xc)   XCENC  =       182.02709478
  PAW double counting   =      4062.44789989    -3951.65733150
  entropy T*S    EENTRO =        -0.00000000
  eigenvalues    EBANDS =     -1150.16524854
  atomic energy  EATOM  =      7562.11872291
  ---------------------------------------------------
  free energy    TOTEN  =      -156.49122339 eV

  energy without entropy =     -156.49122339  energy(sigma->0) =     -156.49122339
  exchange ACFDT corr.  =        -0.00000000  see jH, gK, PRB 81, 115126


--------------------------------------------------------------------------------------------------------




--------------------------------------- Iteration      1(   9)  ---------------------------------------


    POTLOK:  cpu time    0.0239: real time    0.0239
    SETDIJ:  cpu time    0.1157: real time    0.1157
    TRIAL :  cpu time  218.1732: real time  218.2297
    CORREC:  cpu time    0.0007: real time    0.0007
    CHARGE:  cpu time    0.0794: real time    0.0794
    --------------------------------------------
      LOOP:  cpu time  218.3940: real time  218.4505

 eigenvalue-minimisations  :     0
 total energy-change (2. order) :-0.8578477E-01  (-0.4707115E-01)
 number of electron     144.0000018 magnetization 
 augmentation part      -14.9403867 magnetization 

 Free energy of the ion-electron system (eV)
  ---------------------------------------------------
  alpha Z        PSCENC =       557.68175139
  Ewald energy   TEWEN  =     -6358.65290410
  -Hartree energ DENC   =     -1328.18068661
  -exchange      EXHF   =       267.52350933
  -V(xc)+E(xc)   XCENC  =       182.04078277
  PAW double counting   =      4063.12076039    -3952.31221123
  entropy T*S    EENTRO =        -0.00000000
  eigenvalues    EBANDS =     -1149.91673300
  atomic energy  EATOM  =      7562.11872291
  ---------------------------------------------------
  free energy    TOTEN  =      -156.57700816 eV

  energy without entropy =     -156.57700816  energy(sigma->0) =     -156.57700816
  exchange ACFDT corr.  =        -0.00000000  see jH, gK, PRB 81, 115126


--------------------------------------------------------------------------------------------------------




--------------------------------------- Iteration      1(  10)  ---------------------------------------


    POTLOK:  cpu time    0.0236: real time    0.0238
    SETDIJ:  cpu time    0.1165: real time    0.1165
    TRIAL :  cpu time  214.2339: real time  214.2891
    CORREC:  cpu time    0.0007: real time    0.0007
    CHARGE:  cpu time    0.0807: real time    0.0807
    --------------------------------------------
      LOOP:  cpu time  214.4565: real time  214.5119

 eigenvalue-minimisations  :     0
 total energy-change (2. order) :-0.3609352E-01  (-0.2045220E-01)
 number of electron     144.0000018 magnetization 
 augmentation part      -14.9416575 magnetization 

 Free energy of the ion-electron system (eV)
  ---------------------------------------------------
  alpha Z        PSCENC =       557.68175139
  Ewald energy   TEWEN  =     -6358.65290410
  -Hartree energ DENC   =     -1328.19998147
  -exchange      EXHF   =       267.53178298
  -V(xc)+E(xc)   XCENC  =       182.04282611
  PAW double counting   =      4063.17551314    -3952.35235769
  entropy T*S    EENTRO =        -0.00000000
  eigenvalues    EBANDS =     -1149.95845496
  atomic energy  EATOM  =      7562.11872291
  ---------------------------------------------------
  free energy    TOTEN  =      -156.61310169 eV

  energy without entropy =     -156.61310169  energy(sigma->0) =     -156.61310169
  exchange ACFDT corr.  =        -0.00000000  see jH, gK, PRB 81, 115126


--------------------------------------------------------------------------------------------------------




--------------------------------------- Iteration      1(  11)  ---------------------------------------


    POTLOK:  cpu time    0.0240: real time    0.0240
    SETDIJ:  cpu time    0.1151: real time    0.1151
    TRIAL :  cpu time  213.9165: real time  213.9723
    CORREC:  cpu time    0.0005: real time    0.0005
    CHARGE:  cpu time    0.0794: real time    0.0794
    --------------------------------------------
      LOOP:  cpu time  214.1364: real time  214.1922

 eigenvalue-minimisations  :     0
 total energy-change (2. order) :-0.1569179E-01  (-0.9071393E-02)
 number of electron     144.0000018 magnetization 
 augmentation part      -14.9425550 magnetization 

 Free energy of the ion-electron system (eV)
  ---------------------------------------------------
  alpha Z        PSCENC =       557.68175139
  Ewald energy   TEWEN  =     -6358.65290410
  -Hartree energ DENC   =     -1328.12438719
  -exchange      EXHF   =       267.52959247
  -V(xc)+E(xc)   XCENC  =       182.03994216
  PAW double counting   =      4062.83379015    -3952.00528352
  entropy T*S    EENTRO =        -0.00000000
  eigenvalues    EBANDS =     -1150.05001774
  atomic energy  EATOM  =      7562.11872291
  ---------------------------------------------------
  free energy    TOTEN  =      -156.62879347 eV

  energy without entropy =     -156.62879347  energy(sigma->0) =     -156.62879347
  exchange ACFDT corr.  =        -0.00000000  see jH, gK, PRB 81, 115126


--------------------------------------------------------------------------------------------------------




--------------------------------------- Iteration      1(  12)  ---------------------------------------


    POTLOK:  cpu time    0.0240: real time    0.0241
    SETDIJ:  cpu time    0.1164: real time    0.1164
    TRIAL :  cpu time  213.8191: real time  213.8743
    CORREC:  cpu time    0.0005: real time    0.0005
    CHARGE:  cpu time    0.0794: real time    0.0795
    --------------------------------------------
      LOOP:  cpu time  214.0405: real time  214.0957

 eigenvalue-minimisations  :     0
 total energy-change (2. order) :-0.6894084E-02  (-0.3980219E-02)
 number of electron     144.0000018 magnetization 
 augmentation part      -14.9432806 magnetization 

 Free energy of the ion-electron system (eV)
  ---------------------------------------------------
  alpha Z        PSCENC =       557.68175139
  Ewald energy   TEWEN  =     -6358.65290410
  -Hartree energ DENC   =     -1328.07687640
  -exchange      EXHF   =       267.52624407
  -V(xc)+E(xc)   XCENC  =       182.03721552
  PAW double counting   =      4062.56792180    -3951.73669585
  entropy T*S    EENTRO =        -0.00000000
  eigenvalues    EBANDS =     -1150.10106689
  atomic energy  EATOM  =      7562.11872291
  ---------------------------------------------------
  free energy    TOTEN  =      -156.63568756 eV

  energy without entropy =     -156.63568756  energy(sigma->0) =     -156.63568756
  exchange ACFDT corr.  =        -0.00000000  see jH, gK, PRB 81, 115126


--------------------------------------------------------------------------------------------------------




--------------------------------------- Iteration      1(  13)  ---------------------------------------


    POTLOK:  cpu time    0.0236: real time    0.0236
    SETDIJ:  cpu time    0.1163: real time    0.1163
    TRIAL :  cpu time  214.6311: real time  214.6865
    CORREC:  cpu time    0.0006: real time    0.0006
    CHARGE:  cpu time    0.0797: real time    0.0797
    --------------------------------------------
      LOOP:  cpu time  214.8524: real time  214.9078

 eigenvalue-minimisations  :     0
 total energy-change (2. order) :-0.2999324E-02  (-0.1762246E-02)
 number of electron     144.0000018 magnetization 
 augmentation part      -14.9436983 magnetization 

 Free energy of the ion-electron system (eV)
  ---------------------------------------------------
  alpha Z        PSCENC =       557.68175139
  Ewald energy   TEWEN  =     -6358.65290410
  -Hartree energ DENC   =     -1328.05815581
  -exchange      EXHF   =       267.52581447
  -V(xc)+E(xc)   XCENC  =       182.03619257
  PAW double counting   =      4062.51969502    -3951.68484384
  entropy T*S    EENTRO =        -0.00000000
  eigenvalues    EBANDS =     -1150.12495948
  atomic energy  EATOM  =      7562.11872291
  ---------------------------------------------------
  free energy    TOTEN  =      -156.63868688 eV

  energy without entropy =     -156.63868688  energy(sigma->0) =     -156.63868688
  exchange ACFDT corr.  =        -0.00000000  see jH, gK, PRB 81, 115126


--------------------------------------------------------------------------------------------------------




--------------------------------------- Iteration      1(  14)  ---------------------------------------


    POTLOK:  cpu time    0.0243: real time    0.0243
    SETDIJ:  cpu time    0.1151: real time    0.1153
    TRIAL :  cpu time  214.5989: real time  214.6542
    CORREC:  cpu time    0.0006: real time    0.0006
    CHARGE:  cpu time    0.0795: real time    0.0795
    --------------------------------------------
      LOOP:  cpu time  214.8191: real time  214.8756

 eigenvalue-minimisations  :     0
 total energy-change (2. order) :-0.1311866E-02  (-0.8035133E-03)
 number of electron     144.0000018 magnetization 
 augmentation part      -14.9438278 magnetization 

 Free energy of the ion-electron system (eV)
  ---------------------------------------------------
  alpha Z        PSCENC =       557.68175139
  Ewald energy   TEWEN  =     -6358.65290410
  -Hartree energ DENC   =     -1328.06847173
  -exchange      EXHF   =       267.52744712
  -V(xc)+E(xc)   XCENC  =       182.03669872
  PAW double counting   =      4062.55026798    -3951.71277394
  entropy T*S    EENTRO =        -0.00000000
  eigenvalues    EBANDS =     -1150.12073709
  atomic energy  EATOM  =      7562.11872291
  ---------------------------------------------------
  free energy    TOTEN  =      -156.63999875 eV

  energy without entropy =     -156.63999875  energy(sigma->0) =     -156.63999875
  exchange ACFDT corr.  =        -0.00000000  see jH, gK, PRB 81, 115126


--------------------------------------------------------------------------------------------------------




--------------------------------------- Iteration      1(  15)  ---------------------------------------


    POTLOK:  cpu time    0.0239: real time    0.0239
    SETDIJ:  cpu time    0.1156: real time    0.1158
    TRIAL :  cpu time  214.4028: real time  214.4573
    CORREC:  cpu time    0.0005: real time    0.0005
    CHARGE:  cpu time    0.0793: real time    0.0793
    --------------------------------------------
      LOOP:  cpu time  214.6231: real time  214.6778

 eigenvalue-minimisations  :     0
 total energy-change (2. order) :-0.5896649E-03  (-0.3910099E-03)
 number of electron     144.0000018 magnetization 
 augmentation part      -14.9438508 magnetization 

 Free energy of the ion-electron system (eV)
  ---------------------------------------------------
  alpha Z        PSCENC =       557.68175139
  Ewald energy   TEWEN  =     -6358.65290410
  -Hartree energ DENC   =     -1328.08699212
  -exchange      EXHF   =       267.52895561
  -V(xc)+E(xc)   XCENC  =       182.03740448
  PAW double counting   =      4062.55955441    -3951.72107064
  entropy T*S    EENTRO =        -0.00000000
  eigenvalues    EBANDS =     -1150.10601036
  atomic energy  EATOM  =      7562.11872291
  ---------------------------------------------------
  free energy    TOTEN  =      -156.64058841 eV

  energy without entropy =     -156.64058841  energy(sigma->0) =     -156.64058841
  exchange ACFDT corr.  =        -0.00000000  see jH, gK, PRB 81, 115126


--------------------------------------------------------------------------------------------------------




--------------------------------------- Iteration      1(  16)  ---------------------------------------


    POTLOK:  cpu time    0.0239: real time    0.0239
    SETDIJ:  cpu time    0.1151: real time    0.1151
    TRIAL :  cpu time  214.5469: real time  214.6012
    CORREC:  cpu time    0.0005: real time    0.0005
    CHARGE:  cpu time    0.0810: real time    0.0810
    --------------------------------------------
      LOOP:  cpu time  214.7688: real time  214.8230

 eigenvalue-minimisations  :     0
 total energy-change (2. order) :-0.2833810E-03  (-0.2033325E-03)
 number of electron     144.0000018 magnetization 
 augmentation part      -14.9438751 magnetization 

 Free energy of the ion-electron system (eV)
  ---------------------------------------------------
  alpha Z        PSCENC =       557.68175139
  Ewald energy   TEWEN  =     -6358.65290410
  -Hartree energ DENC   =     -1328.08655553
  -exchange      EXHF   =       267.52914829
  -V(xc)+E(xc)   XCENC  =       182.03726065
  PAW double counting   =      4062.53768080    -3951.69901840
  entropy T*S    EENTRO =        -0.00000000
  eigenvalues    EBANDS =     -1150.10695782
  atomic energy  EATOM  =      7562.11872291
  ---------------------------------------------------
  free energy    TOTEN  =      -156.64087179 eV

  energy without entropy =     -156.64087179  energy(sigma->0) =     -156.64087179
  exchange ACFDT corr.  =        -0.00000000  see jH, gK, PRB 81, 115126


--------------------------------------------------------------------------------------------------------




--------------------------------------- Iteration      1(  17)  ---------------------------------------


    POTLOK:  cpu time    0.0238: real time    0.0238
    SETDIJ:  cpu time    0.1147: real time    0.1149
    TRIAL :  cpu time  216.1105: real time  216.1642
    CORREC:  cpu time    0.0006: real time    0.0006
    CHARGE:  cpu time    0.0794: real time    0.0794
    --------------------------------------------
      LOOP:  cpu time  216.3301: real time  216.3840

 eigenvalue-minimisations  :     0
 total energy-change (2. order) :-0.1466875E-03  (-0.1127486E-03)
 number of electron     144.0000018 magnetization 
 augmentation part      -14.9439048 magnetization 

 Free energy of the ion-electron system (eV)
  ---------------------------------------------------
  alpha Z        PSCENC =       557.68175139
  Ewald energy   TEWEN  =     -6358.65290410
  -Hartree energ DENC   =     -1328.07834664
  -exchange      EXHF   =       267.52891243
  -V(xc)+E(xc)   XCENC  =       182.03686129
  PAW double counting   =      4062.51698589    -3951.67823998
  entropy T*S    EENTRO =        -0.00000000
  eigenvalues    EBANDS =     -1150.11476167
  atomic energy  EATOM  =      7562.11872291
  ---------------------------------------------------
  free energy    TOTEN  =      -156.64101848 eV

  energy without entropy =     -156.64101848  energy(sigma->0) =     -156.64101848
  exchange ACFDT corr.  =        -0.00000000  see jH, gK, PRB 81, 115126


--------------------------------------------------------------------------------------------------------




--------------------------------------- Iteration      1(  18)  ---------------------------------------


    POTLOK:  cpu time    0.0238: real time    0.0238
    SETDIJ:  cpu time    0.1148: real time    0.1148
    TRIAL :  cpu time  214.3562: real time  214.4121
    CORREC:  cpu time    0.0006: real time    0.0006
    CHARGE:  cpu time    0.0832: real time    0.0832
    --------------------------------------------
      LOOP:  cpu time  214.5797: real time  214.6356

 eigenvalue-minimisations  :     0
 total energy-change (2. order) :-0.8200471E-04  (-0.6698822E-04)
 number of electron     144.0000018 magnetization 
 augmentation part      -14.9439338 magnetization 

 Free energy of the ion-electron system (eV)
  ---------------------------------------------------
  alpha Z        PSCENC =       557.68175139
  Ewald energy   TEWEN  =     -6358.65290410
  -Hartree energ DENC   =     -1328.07868752
  -exchange      EXHF   =       267.52907314
  -V(xc)+E(xc)   XCENC  =       182.03684890
  PAW double counting   =      4062.51252507    -3951.67363707
  entropy T*S    EENTRO =        -0.00000000
  eigenvalues    EBANDS =     -1150.11479320
  atomic energy  EATOM  =      7562.11872291
  ---------------------------------------------------
  free energy    TOTEN  =      -156.64110048 eV

  energy without entropy =     -156.64110048  energy(sigma->0) =     -156.64110048
  exchange ACFDT corr.  =        -0.00000000  see jH, gK, PRB 81, 115126


--------------------------------------------------------------------------------------------------------




--------------------------------------- Iteration      1(  19)  ---------------------------------------


    POTLOK:  cpu time    0.0282: real time    0.0282
    SETDIJ:  cpu time    0.1207: real time    0.1207
    TRIAL :  cpu time  214.4378: real time  214.8018
    CORREC:  cpu time    0.0007: real time    0.0007
    CHARGE:  cpu time    0.0804: real time    0.0809
    --------------------------------------------
      LOOP:  cpu time  214.6688: real time  215.0344

 eigenvalue-minimisations  :     0
 total energy-change (2. order) :-0.4972281E-04  (-0.4253964E-04)
 number of electron     144.0000018 magnetization 
 augmentation part      -14.9439647 magnetization 

 Free energy of the ion-electron system (eV)
  ---------------------------------------------------
  alpha Z        PSCENC =       557.68175139
  Ewald energy   TEWEN  =     -6358.65290410
  -Hartree energ DENC   =     -1328.08219137
  -exchange      EXHF   =       267.52935301
  -V(xc)+E(xc)   XCENC  =       182.03697722
  PAW double counting   =      4062.51494466    -3951.67589654
  entropy T*S    EENTRO =        -0.00000000
  eigenvalues    EBANDS =     -1150.11190739
  atomic energy  EATOM  =      7562.11872291
  ---------------------------------------------------
  free energy    TOTEN  =      -156.64115021 eV

  energy without entropy =     -156.64115021  energy(sigma->0) =     -156.64115021
  exchange ACFDT corr.  =        -0.00000000  see jH, gK, PRB 81, 115126


--------------------------------------------------------------------------------------------------------




--------------------------------------- Iteration      1(  20)  ---------------------------------------


    POTLOK:  cpu time    0.0250: real time    0.0250
    SETDIJ:  cpu time    0.1151: real time    0.1151
    TRIAL :  cpu time  214.3220: real time  214.3764
    CORREC:  cpu time    0.0005: real time    0.0005
    CHARGE:  cpu time    0.1084: real time    0.1084
    --------------------------------------------
      LOOP:  cpu time  214.5721: real time  214.6265

 eigenvalue-minimisations  :     0
 total energy-change (2. order) :-0.3248168E-04  (-0.2839256E-04)
 number of electron     144.0000018 magnetization 
 augmentation part      -14.9439973 magnetization 

 Free energy of the ion-electron system (eV)
  ---------------------------------------------------
  alpha Z        PSCENC =       557.68175139
  Ewald energy   TEWEN  =     -6358.65290410
  -Hartree energ DENC   =     -1328.08331306
  -exchange      EXHF   =       267.52948486
  -V(xc)+E(xc)   XCENC  =       182.03701575
  PAW double counting   =      4062.51611717    -3951.67693235
  entropy T*S    EENTRO =        -0.00000000
  eigenvalues    EBANDS =     -1150.11112525
  atomic energy  EATOM  =      7562.11872291
  ---------------------------------------------------
  free energy    TOTEN  =      -156.64118269 eV

  energy without entropy =     -156.64118269  energy(sigma->0) =     -156.64118269
  exchange ACFDT corr.  =        -0.00000000  see jH, gK, PRB 81, 115126


--------------------------------------------------------------------------------------------------------




--------------------------------------- Iteration      1(  21)  ---------------------------------------


    POTLOK:  cpu time    0.0241: real time    0.0241
    SETDIJ:  cpu time    0.1155: real time    0.1155
    TRIAL :  cpu time  214.2118: real time  214.2660
    CORREC:  cpu time    0.0006: real time    0.0006
    CHARGE:  cpu time    0.0816: real time    0.0816
    --------------------------------------------
      LOOP:  cpu time  214.4468: real time  214.5011

 eigenvalue-minimisations  :     0
 total energy-change (2. order) :-0.2236946E-04  (-0.1968478E-04)
 number of electron     144.0000018 magnetization 
 augmentation part      -14.9440288 magnetization 

 Free energy of the ion-electron system (eV)
  ---------------------------------------------------
  alpha Z        PSCENC =       557.68175139
  Ewald energy   TEWEN  =     -6358.65290410
  -Hartree energ DENC   =     -1328.08341911
  -exchange      EXHF   =       267.52953581
  -V(xc)+E(xc)   XCENC  =       182.03701391
  PAW double counting   =      4062.51591363    -3951.67662424
  entropy T*S    EENTRO =        -0.00000000
  eigenvalues    EBANDS =     -1150.11119526
  atomic energy  EATOM  =      7562.11872291
  ---------------------------------------------------
  free energy    TOTEN  =      -156.64120506 eV

  energy without entropy =     -156.64120506  energy(sigma->0) =     -156.64120506
  exchange ACFDT corr.  =        -0.00000000  see jH, gK, PRB 81, 115126


--------------------------------------------------------------------------------------------------------




--------------------------------------- Iteration      1(  22)  ---------------------------------------


    POTLOK:  cpu time    0.0258: real time    0.0258
    SETDIJ:  cpu time    0.1145: real time    0.1145
    TRIAL :  cpu time  214.3198: real time  214.3724
    CORREC:  cpu time    0.0005: real time    0.0008
    CHARGE:  cpu time    0.0801: real time    0.0801
    --------------------------------------------
      LOOP:  cpu time  214.5418: real time  214.5947

 eigenvalue-minimisations  :     0
 total energy-change (2. order) :-0.1597575E-04  (-0.1400552E-04)
 number of electron     144.0000018 magnetization 
 augmentation part      -14.9440563 magnetization 

 Free energy of the ion-electron system (eV)
  ---------------------------------------------------
  alpha Z        PSCENC =       557.68175139
  Ewald energy   TEWEN  =     -6358.65290410
  -Hartree energ DENC   =     -1328.08400705
  -exchange      EXHF   =       267.52959044
  -V(xc)+E(xc)   XCENC  =       182.03703046
  PAW double counting   =      4062.51612852    -3951.67674769
  entropy T*S    EENTRO =        -0.00000000
  eigenvalues    EBANDS =     -1150.11078592
  atomic energy  EATOM  =      7562.11872291
  ---------------------------------------------------
  free energy    TOTEN  =      -156.64122103 eV

  energy without entropy =     -156.64122103  energy(sigma->0) =     -156.64122103
  exchange ACFDT corr.  =        -0.00000000  see jH, gK, PRB 81, 115126


--------------------------------------------------------------------------------------------------------




--------------------------------------- Iteration      1(  23)  ---------------------------------------


    POTLOK:  cpu time    0.0238: real time    0.0238
    SETDIJ:  cpu time    0.1144: real time    0.1146
    TRIAL :  cpu time  213.8999: real time  213.9525
    CORREC:  cpu time    0.0005: real time    0.0005
    CHARGE:  cpu time    0.0796: real time    0.0798
    --------------------------------------------
      LOOP:  cpu time  214.1193: real time  214.1727

 eigenvalue-minimisations  :     0
 total energy-change (2. order) :-0.1164278E-04  (-0.1017409E-04)
 number of electron     144.0000018 magnetization 
 augmentation part      -14.9440785 magnetization 

 Free energy of the ion-electron system (eV)
  ---------------------------------------------------
  alpha Z        PSCENC =       557.68175139
  Ewald energy   TEWEN  =     -6358.65290410
  -Hartree energ DENC   =     -1328.08450927
  -exchange      EXHF   =       267.52963440
  -V(xc)+E(xc)   XCENC  =       182.03704475
  PAW double counting   =      4062.51665615    -3951.67719015
  entropy T*S    EENTRO =        -0.00000000
  eigenvalues    EBANDS =     -1150.11043875
  atomic energy  EATOM  =      7562.11872291
  ---------------------------------------------------
  free energy    TOTEN  =      -156.64123268 eV

  energy without entropy =     -156.64123268  energy(sigma->0) =     -156.64123268
  exchange ACFDT corr.  =        -0.00000000  see jH, gK, PRB 81, 115126


--------------------------------------------------------------------------------------------------------




--------------------------------------- Iteration      1(  24)  ---------------------------------------


    POTLOK:  cpu time    0.0238: real time    0.0238
    SETDIJ:  cpu time    0.1150: real time    0.1150
    TRIAL :  cpu time  214.2095: real time  214.2645
    CORREC:  cpu time    0.0006: real time    0.0006
    CHARGE:  cpu time    0.0796: real time    0.0797
    --------------------------------------------
      LOOP:  cpu time  214.4293: real time  214.4846

 eigenvalue-minimisations  :     0
 total energy-change (2. order) :-0.8597577E-05  (-0.7516551E-05)
 number of electron     144.0000018 magnetization 
 augmentation part      -14.9440961 magnetization 

 Free energy of the ion-electron system (eV)
  ---------------------------------------------------
  alpha Z        PSCENC =       557.68175139
  Ewald energy   TEWEN  =     -6358.65290410
  -Hartree energ DENC   =     -1328.08478512
  -exchange      EXHF   =       267.52966330
  -V(xc)+E(xc)   XCENC  =       182.03705126
  PAW double counting   =      4062.51713805    -3951.67759949
  entropy T*S    EENTRO =        -0.00000000
  eigenvalues    EBANDS =     -1150.11027948
  atomic energy  EATOM  =      7562.11872291
  ---------------------------------------------------
  free energy    TOTEN  =      -156.64124127 eV

[...]
     10     -14.4928      2.00000
     11     -14.4927      2.00000
     12     -14.4927      2.00000
     13     -11.3784      2.00000
     14     -11.3784      2.00000
     15     -11.3172      2.00000
     16     -11.3172      2.00000
     17     -11.2299      2.00000
     18     -11.2299      2.00000
     19     -11.2241      2.00000
     20     -11.2241      2.00000
     21     -11.1215      2.00000
     22     -11.1215      2.00000
     23     -11.0728      2.00000
     24     -11.0728      2.00000
     25     -11.0158      2.00000
     26     -11.0158      2.00000
     27     -11.0002      2.00000
     28     -11.0002      2.00000
     29     -10.9616      2.00000
     30     -10.9616      2.00000
     31     -10.9206      2.00000
     32     -10.9206      2.00000
     33     -10.8076      2.00000
     34     -10.8076      2.00000
     35     -10.7874      2.00000
     36     -10.7874      2.00000
     37      -5.1936      2.00000
     38      -5.1936      2.00000
     39      -5.1762      2.00000
     40      -5.1762      2.00000
     41      -4.7138      2.00000
     42      -4.7138      2.00000
     43      -4.6874      2.00000
     44      -4.6874      2.00000
     45      -4.5753      2.00000
     46      -4.5753      2.00000
     47      -4.5055      2.00000
     48      -4.5055      2.00000
     49      -0.8276      2.00000
     50      -0.8276      2.00000
     51      -0.7526      2.00000
     52      -0.7526      2.00000
     53      -0.3737      2.00000
     54      -0.3737      2.00000
     55      -0.3695      2.00000
     56      -0.3695      2.00000
     57       0.2701      2.00000
     58       0.2701      2.00000
     59       0.4870      2.00000
     60       0.4870      2.00000
     61       1.7103      2.00000
     62       1.7103      2.00000
     63       1.8764      2.00000
     64       1.8764      2.00000
     65       2.0011      2.00000
     66       2.0011      2.00000
     67       2.0702      2.00000
     68       2.0702      2.00000
     69       2.4933      2.00000
     70       2.4933      2.00000
     71       2.5783      2.00000
     72       2.5783      2.00000
     73       4.2444      0.00000
     74       4.2444      0.00000
     75       4.4788      0.00000
     76       4.4788      0.00000
     77       5.2476      0.00000
     78       5.2524      0.00000
     79       5.3189      0.00000
     80       5.3193      0.00000
     81       5.7384      0.00000
     82       5.7771      0.00000
     83       5.8809      0.00000
     84       5.8889      0.00000
     85       6.2034      0.00000
     86       6.2135      0.00000
     87       6.4858      0.00000
     88       6.6454      0.00000

 k-point    20 :       0.5000    0.5000    0.0000
  band No.  band energies     occupation 
      1     -26.7231      2.00000
      2     -26.7231      2.00000
      3     -26.7231      2.00000
      4     -26.7231      2.00000
      5     -26.7072      2.00000
      6     -26.7072      2.00000
      7     -26.7072      2.00000
      8     -26.7072      2.00000
      9     -14.4935      2.00000
     10     -14.4934      2.00000
     11     -14.4934      2.00000
     12     -14.4934      2.00000
     13     -11.3341      2.00000
     14     -11.3341      2.00000
     15     -11.3341      2.00000
     16     -11.3341      2.00000
     17     -11.2361      2.00000
     18     -11.2361      2.00000
     19     -11.2361      2.00000
     20     -11.2361      2.00000
     21     -11.0903      2.00000
     22     -11.0903      2.00000
     23     -11.0903      2.00000
     24     -11.0903      2.00000
     25     -11.0119      2.00000
     26     -11.0119      2.00000
     27     -11.0119      2.00000
     28     -11.0119      2.00000
     29     -10.9448      2.00000
     30     -10.9448      2.00000
     31     -10.9448      2.00000
     32     -10.9448      2.00000
     33     -10.8003      2.00000
     34     -10.8003      2.00000
     35     -10.8003      2.00000
     36     -10.8003      2.00000
     37      -5.1962      2.00000
     38      -5.1962      2.00000
     39      -5.1962      2.00000
     40      -5.1962      2.00000
     41      -4.6869      2.00000
     42      -4.6868      2.00000
     43      -4.6868      2.00000
     44      -4.6868      2.00000
     45      -4.5531      2.00000
     46      -4.5531      2.00000
     47      -4.5531      2.00000
     48      -4.5531      2.00000
     49      -0.7865      2.00000
     50      -0.7865      2.00000
     51      -0.7865      2.00000
     52      -0.7865      2.00000
     53      -0.3640      2.00000
     54      -0.3640      2.00000
     55      -0.3640      2.00000
     56      -0.3639      2.00000
     57       0.3938      2.00000
     58       0.3938      2.00000
     59       0.3938      2.00000
     60       0.3938      2.00000
     61       1.7833      2.00000
     62       1.7833      2.00000
     63       1.7833      2.00000
     64       1.7833      2.00000
     65       2.0628      2.00000
     66       2.0628      2.00000
     67       2.0628      2.00000
     68       2.0628      2.00000
     69       2.5434      2.00000
     70       2.5434      2.00000
     71       2.5434      2.00000
     72       2.5434      2.00000
     73       4.3964      0.00000
     74       4.3964      0.00000
     75       4.3964      0.00000
     76       4.3964      0.00000
     77       5.2206      0.00000
     78       5.2210      0.00000
     79       5.2220      0.00000
     80       5.2241      0.00000
     81       5.7957      0.00000
     82       5.8022      0.00000
     83       5.8173      0.00000
     84       5.8394      0.00000
     85       6.2538      0.00000
     86       6.2806      0.00000
     87       6.3656      0.00000
     88       6.4572      0.00000


--------------------------------------------------------------------------------------------------------


 soft charge-density along one line, spin component           1
         0         1         2         3         4         5         6         7         8         9
 total charge-density along one line
 
 pseudopotential strength for first ion, spin component:           1
  1.236  -4.062  -0.000   0.008  -0.003   0.000   0.003  -0.001
 -4.062  -2.812   0.000  -0.002   0.001   0.000   0.001  -0.001
 -0.000   0.000  -7.797  -0.000  -0.000   0.602  -0.000  -0.000
  0.008  -0.002  -0.000  -7.799  -0.001  -0.000   0.596  -0.003
 -0.003   0.001  -0.000  -0.001  -7.797  -0.000  -0.003   0.599
  0.000   0.000   0.602  -0.000  -0.000   7.707  -0.000  -0.000
  0.003   0.001  -0.000   0.596  -0.003  -0.000   7.706  -0.000
 -0.001  -0.001  -0.000  -0.003   0.599  -0.000  -0.000   7.707
 -0.000   0.000  -0.001   0.000  -0.000  -0.001   0.000   0.000
 -0.000   0.000   0.003  -0.000   0.000   0.002   0.000   0.000
 -0.001   0.001   0.000   0.002   0.000  -0.000   0.002   0.001
 -0.001   0.001   0.000  -0.001   0.002   0.000  -0.000   0.001
 -0.001   0.000   0.000  -0.000  -0.000  -0.000  -0.000   0.000
  0.000   0.000   0.000  -0.000  -0.000   0.000  -0.000  -0.000
  0.000   0.000  -0.000   0.000  -0.000  -0.000  -0.000  -0.000
  0.000   0.000   0.000  -0.000   0.000   0.000  -0.000  -0.000
  0.000   0.000  -0.000   0.000  -0.000  -0.000  -0.000  -0.000
  0.000   0.000   0.000   0.000  -0.000   0.000  -0.000  -0.000
 total augmentation occupancy for first ion, spin component:           1
  2.070  -0.186   0.000  -0.012   0.004  -0.000   0.004  -0.003  -0.000  -0.000  -0.018  -0.010  -0.017   0.000   0.000   0.035
 -0.186   0.535  -0.000   0.030  -0.012   0.000  -0.007   0.007   0.000   0.000   0.030   0.014   0.032  -0.000  -0.000  -0.098
  0.000  -0.000   2.010   0.000   0.000  -0.008  -0.000  -0.000  -0.029  -0.020   0.000  -0.000   0.000   0.034   0.026   0.000
 -0.012   0.030   0.000   2.018   0.004  -0.000  -0.015  -0.002  -0.000   0.000   0.054   0.050   0.005  -0.000   0.000  -0.061
  0.004  -0.012   0.000   0.004   2.014  -0.000  -0.002  -0.012   0.000   0.000   0.041   0.004  -0.001   0.000   0.000  -0.052
 -0.000   0.000  -0.008  -0.000  -0.000   0.008   0.000  -0.000   0.008   0.010  -0.000   0.000  -0.000  -0.013  -0.024  -0.000
  0.004  -0.007  -0.000  -0.015  -0.002   0.000   0.012   0.000   0.000  -0.000  -0.017  -0.017  -0.002   0.000  -0.000   0.042
 -0.003   0.007  -0.000  -0.002  -0.012  -0.000   0.000   0.011   0.000   0.000  -0.013   0.001   0.002   0.000   0.000   0.036
 -0.000   0.000  -0.029  -0.000   0.000   0.008   0.000   0.000   0.134  -0.014  -0.000   0.000  -0.000  -0.279   0.045  -0.000
 -0.000   0.000  -0.020   0.000   0.000   0.010  -0.000   0.000  -0.014   0.075   0.000  -0.000   0.000   0.046  -0.172  -0.000
 -0.018   0.030   0.000   0.054   0.041  -0.000  -0.017  -0.013  -0.000   0.000   0.147   0.012  -0.023   0.000   0.000  -0.311
 -0.010   0.014  -0.000   0.050   0.004   0.000  -0.017   0.001   0.000  -0.000   0.012   0.073   0.015  -0.000   0.000  -0.038
 -0.017   0.032   0.000   0.005  -0.001  -0.000  -0.002   0.002  -0.000   0.000  -0.023   0.015   0.060   0.000   0.000   0.039
  0.000  -0.000   0.034  -0.000   0.000  -0.013   0.000   0.000  -0.279   0.046   0.000  -0.000   0.000   0.624  -0.136  -0.000
  0.000  -0.000   0.026   0.000   0.000  -0.024  -0.000   0.000   0.045  -0.172   0.000   0.000   0.000  -0.136   0.413  -0.000
  0.035  -0.098   0.000  -0.061  -0.052  -0.000   0.042   0.036  -0.000  -0.000  -0.311  -0.038   0.039  -0.000  -0.000   0.718
  0.015  -0.041  -0.000  -0.076  -0.006   0.000   0.050   0.001   0.000  -0.000  -0.039  -0.193  -0.045  -0.000   0.000   0.140
  0.030  -0.093   0.000  -0.004  -0.014  -0.000   0.007  -0.004  -0.000  -0.000   0.039  -0.045  -0.135   0.000  -0.000  -0.060


------------------------ aborting loop because EDIFF is reached ----------------------------------------


 


 total charge     
 
# of ion       s       p       d       tot
------------------------------------------
    1        2.009   5.599   0.320   7.929
    2        2.009   5.599   0.320   7.929
    3        2.009   5.599   0.320   7.929
    4        2.009   5.599   0.320   7.929
    5        2.007   5.594   0.314   7.915
    6        2.007   5.594   0.314   7.915
    7        2.007   5.594   0.314   7.915
    8        2.007   5.594   0.314   7.915
    9        0.802   0.913   0.000   1.716
   10        0.802   0.913   0.000   1.716
   11        0.802   0.913   0.000   1.716
   12        0.802   0.913   0.000   1.716
   13        0.803   0.912   0.000   1.715
   14        0.803   0.912   0.000   1.715
   15        0.803   0.912   0.000   1.715
   16        0.803   0.912   0.000   1.715
   17        0.904   1.465   0.000   2.368
   18        0.904   1.465   0.000   2.368
   19        0.904   1.465   0.000   2.368
   20        0.904   1.465   0.000   2.368
   21        0.901   1.461   0.000   2.362
   22        0.901   1.461   0.000   2.362
   23        0.901   1.461   0.000   2.362
   24        0.901   1.461   0.000   2.362
--------------------------------------------------
tot         29.706  63.776   2.538  96.020
 
    FORLOC:  cpu time    0.0020: real time    0.0020
    FORHF :  cpu time  236.9654: real time  237.0225
    FORNL :  cpu time    0.0660: real time    0.0662
    FORCOR:  cpu time    0.1643: real time    0.1845
    OFIELD:  cpu time    0.0000: real time    0.0000

 VOLUME and BASIS-vectors are now :
 -----------------------------------------------------------------------------
  energy-cutoff  :      500.00
  volume of cell :      601.78
      direct lattice vectors                 reciprocal lattice vectors
     8.649896326  0.000000000  0.000000000     0.115608322  0.000000000  0.000000000
     0.000000000  6.056425975  0.000000000     0.000000000  0.165113881  0.000000000
     0.000000000  0.000000000 11.487145391     0.000000000  0.000000000  0.087053830

  length of vectors
     8.649896326  6.056425975 11.487145391     0.115608322  0.165113881  0.087053830


 FORCES acting on ions:
    Electron-Ion                     Ewald-Force                    Non-Local-Force
 -----------------------------------------------------------------------------------------------
   -.115E+02 -.525E-04 -.555E+02   0.117E+02 0.123E-04 0.546E+02   -.193E+00 0.282E-19 0.677E+00
   0.115E+02 0.427E-04 0.555E+02   -.117E+02 -.165E-04 -.546E+02   0.193E+00 -.278E-19 -.677E+00
   0.115E+02 -.151E-04 -.555E+02   -.117E+02 -.165E-04 0.546E+02   0.193E+00 -.290E-20 0.677E+00
   -.115E+02 0.590E-05 0.555E+02   0.117E+02 0.123E-04 -.546E+02   -.193E+00 -.138E-19 -.677E+00
   -.397E+02 -.387E-04 0.286E+02   0.371E+02 -.170E-04 -.285E+02   0.198E+01 -.293E-20 -.175E-01
   0.397E+02 0.270E-04 -.286E+02   -.371E+02 0.165E-04 0.285E+02   -.198E+01 -.377E-19 0.175E-01
   0.397E+02 -.444E-04 0.286E+02   -.371E+02 0.165E-04 -.285E+02   -.198E+01 -.333E-19 -.175E-01
   -.397E+02 0.412E-04 -.286E+02   0.371E+02 -.170E-04 0.285E+02   0.198E+01 -.217E-19 0.175E-01
   0.161E+02 0.559E+02 -.580E+02   -.168E+02 -.578E+02 0.596E+02   0.645E+00 0.213E+01 -.174E+01
   -.161E+02 -.559E+02 0.580E+02   0.168E+02 0.578E+02 -.596E+02   -.645E+00 -.213E+01 0.174E+01
   -.161E+02 -.559E+02 -.580E+02   0.168E+02 0.578E+02 0.596E+02   -.645E+00 -.213E+01 -.174E+01
   0.161E+02 0.559E+02 0.580E+02   -.168E+02 -.578E+02 -.596E+02   0.645E+00 0.213E+01 0.174E+01
   -.161E+02 0.559E+02 0.580E+02   0.168E+02 -.578E+02 -.596E+02   -.645E+00 0.213E+01 0.174E+01
   0.161E+02 -.559E+02 -.580E+02   -.168E+02 0.578E+02 0.596E+02   0.645E+00 -.213E+01 -.174E+01
   0.161E+02 -.559E+02 0.580E+02   -.168E+02 0.578E+02 -.596E+02   0.645E+00 -.213E+01 0.174E+01
   -.161E+02 0.559E+02 -.580E+02   0.168E+02 -.578E+02 0.596E+02   -.645E+00 0.213E+01 -.174E+01
   0.109E+03 -.425E-04 -.301E+02   -.124E+03 -.827E-05 0.273E+02   0.148E+02 0.159E-20 0.268E+01
   -.109E+03 0.322E-04 0.301E+02   0.124E+03 0.677E-05 -.273E+02   -.148E+02 -.312E-20 -.268E+01
   -.109E+03 -.409E-04 -.301E+02   0.124E+03 0.677E-05 0.273E+02   -.148E+02 -.133E-19 0.268E+01
   0.109E+03 0.340E-04 0.301E+02   -.124E+03 -.827E-05 -.273E+02   0.148E+02 0.917E-20 -.268E+01
   0.677E+02 -.903E-04 0.743E+02   -.751E+02 0.747E-05 -.863E+02   0.738E+01 -.419E-18 0.117E+02
   -.677E+02 0.827E-04 -.743E+02   0.751E+02 -.905E-05 0.863E+02   -.738E+01 0.845E-19 -.117E+02
   -.677E+02 -.716E-04 0.743E+02   0.751E+02 -.905E-05 -.863E+02   -.738E+01 -.302E-17 0.117E+02
   0.677E+02 0.620E-04 -.743E+02   -.751E+02 0.747E-05 0.863E+02   0.738E+01 -.106E-17 -.117E+02
 -----------------------------------------------------------------------------------------------
   0.666E-04 -.699E-04 -.329E-03   -.142E-13 0.278E-13 -.568E-13   -.888E-15 0.440E-15 0.000E+00
 
 
 POSITION                                       TOTAL-FORCE (eV/Angst)
 -----------------------------------------------------------------------------------
      8.39286      1.51411      7.46878         0.004599      0.000000     -0.020826
      0.25704      4.54232      4.01837        -0.004599     -0.000000      0.020826
      4.58199      4.54232      1.72521        -0.004599      0.000000     -0.020826
      4.06791      1.51411      9.76194         0.004599      0.000000      0.020826
      1.06853      4.54232     10.65136        -0.139294      0.000000     -0.005490
      7.58136      1.51411      0.83578         0.139294      0.000000      0.005490
      3.25642      1.51411      4.90779         0.139294     -0.000000     -0.005490
      5.39348      4.54232      6.57936        -0.139294      0.000000      0.005490
      1.86798      0.34266      1.90122         0.003195      0.393965     -0.210356
      6.78192      5.71377      9.58593        -0.003195     -0.393965      0.210356
      2.45697      5.71377      7.64479        -0.003195     -0.393965     -0.210356
      6.19292      0.34266      3.84235         0.003195      0.393965      0.210356
      6.78192      3.37087      9.58593        -0.003195      0.393965      0.210356
      1.86798      2.68555      1.90122         0.003195     -0.393965     -0.210356
      6.19292      2.68555      3.84235         0.003195     -0.393965      0.210356
      2.45697      3.37087      7.64479        -0.003195      0.393965     -0.210356
      1.21606      4.54232      6.58737         0.399381     -0.000000     -0.003735
      7.43384      1.51411      4.89978        -0.399381      0.000000      0.003735
      3.10889      1.51411      0.84379        -0.399381     -0.000000     -0.003735
      5.54100      4.54232     10.64335         0.399381      0.000000      0.003735
      1.77700      1.51411      0.26069         0.319136     -0.000000      0.381001
      6.87290      4.54232     11.22646        -0.319136      0.000000     -0.381001
      2.54795      4.54232      6.00426        -0.319136     -0.000000      0.381001
      6.10194      1.51411      5.48289         0.319136      0.000000     -0.381001
 -----------------------------------------------------------------------------------
    total drift:                                0.000067     -0.000070     -0.000329


--------------------------------------------------------------------------------------------------------



  FREE ENERGIE OF THE ION-ELECTRON SYSTEM (eV)
  ---------------------------------------------------
  free  energy   TOTEN  =      -156.64126986 eV

  energy  without entropy=     -156.64126986  energy(sigma->0) =     -156.64126986
 


--------------------------------------------------------------------------------------------------------


    POTLOK:  cpu time    0.1476: real time    0.1477


--------------------------------------------------------------------------------------------------------


     LOOP+:  cpu time 8191.2575: real time 8194.7039
    4ORBIT:  cpu time    0.0000: real time    0.0000
 


 total charge     
 
# of ion       s       p       d       tot
------------------------------------------
    1        2.009   5.599   0.320   7.929
    2        2.009   5.599   0.320   7.929
    3        2.009   5.599   0.320   7.929
    4        2.009   5.599   0.320   7.929
    5        2.007   5.594   0.314   7.915
    6        2.007   5.594   0.314   7.915
    7        2.007   5.594   0.314   7.915
    8        2.007   5.594   0.314   7.915
    9        0.802   0.913   0.000   1.716
   10        0.802   0.913   0.000   1.716
   11        0.802   0.913   0.000   1.716
   12        0.802   0.913   0.000   1.716
   13        0.803   0.912   0.000   1.715
   14        0.803   0.912   0.000   1.715
   15        0.803   0.912   0.000   1.715
   16        0.803   0.912   0.000   1.715
   17        0.904   1.465   0.000   2.368
   18        0.904   1.465   0.000   2.368
   19        0.904   1.465   0.000   2.368
   20        0.904   1.465   0.000   2.368
   21        0.901   1.461   0.000   2.362
   22        0.901   1.461   0.000   2.362
   23        0.901   1.461   0.000   2.362
   24        0.901   1.461   0.000   2.362
--------------------------------------------------
tot         29.706  63.776   2.538  96.020
 

 total amount of memory used by VASP MPI-rank0    47235. kBytes
=======================================================================

   base      :      30000. kBytes
   nonlr-proj:       6580. kBytes
   fftplans  :        753. kBytes
   grid      :        874. kBytes
   one-center:         31. kBytes
   HF        :        129. kBytes
   wavefun   :       8868. kBytes
 
  
  
 General timing and accounting informations for this job:
 ========================================================
  
                  Total CPU time used (sec):     8211.815
                            User time (sec):     8179.914
                          System time (sec):       31.901
                         Elapsed time (sec):     8217.975
  
                   Maximum memory used (kb):      221828.
                   Average memory used (kb):           0.
  
                          Minor page faults:       325025
                          Major page faults:           21
                 Voluntary context switches:         7643
