<?xml version="1.0" encoding="ISO-8859-1"?>
<modeling>
 <generator>
  <i name="program" type="string">vasp </i>
  <i name="version" type="string">5.4.4.18Apr17-6-g9f103f2a35  </i>
  <i name="subversion" type="string">(build Nov 21 2017 15:30:27) complex            parallel </i>
  <i name="platform" type="string">LinuxIFC </i>
  <i name="date" type="string">2021 03 17 </i>
  <i name="time" type="string">21:19:47 </i>
 </generator>
 <incar>
  <i type="string" name="PREC">normal</i>
  <i type="int" name="ICHARG">    11</i>
  <i type="int" name="NELM">   100</i>
  <i name="EDIFF">      0.00000100</i>
  <i name="EDIFFG">     -0.01000000</i>
  <i name="ENCUT">    500.00000000</i>
  <i name="POTIM">      0.30000000</i>
  <i type="string" name="LREAL"> Auto       ! Projection in reciprocal s</i>
  <i type="int" name="ISMEAR">     0</i>
  <i name="SIGMA">      0.01000000</i>
  <i type="logical" name="LWAVE"> T  </i>
  <i type="logical" name="LCHARG"> T  </i>
  <i type="logical" name="LASPH"> T  </i>
  <v type="int" name="KPOINT_BSE">    -1     0     0     0</v>
  <i type="int" name="NELM">   100</i>
  <i type="string" name="GGA"> MK</i>
  <i name="PARAM1">      0.12340000</i>
  <i name="PARAM2">      0.71135700</i>
  <i type="logical" name="LUSE_VDW"> T  </i>
  <i name="Zab_VDW">     -1.88670000</i>
  <i name="AGGAC">      0.00000000</i>
  <i type="logical" name="LASPH"> T  </i>
 </incar>
 <structure name="primitive_cell" >
  <crystal>
   <varray name="basis" >
    <v>      81.85400242       0.00000000       0.00000000 </v>
    <v>       0.00000000       6.70101600       0.00000000 </v>
    <v>       0.00000000       0.00000000      11.47426244 </v>
   </varray>
   <i name="volume">   6293.69009459 </i>
   <varray name="rec_basis" >
    <v>       0.01221687       0.00000000       0.00000000 </v>
    <v>       0.00000000       0.14923110       0.00000000 </v>
    <v>       0.00000000       0.00000000       0.08715157 </v>
   </varray>
  </crystal>
  <varray name="positions" >
   <v>       0.00399910       0.25000000      -0.29859345 </v>
   <v>       0.02014524       0.25000000      -0.03744972 </v>
   <v>       0.03387384      -0.42864299      -0.35767514 </v>
   <v>       0.03387384      -0.07135701      -0.35767514 </v>
   <v>       0.00805153      -0.24999998      -0.38183305 </v>
   <v>       0.02336729      -0.24999998      -0.08787961 </v>
   <v>       0.03768573       0.25000000       0.39587904 </v>
   <v>       0.05661414       0.25000000      -0.19167822 </v>
   <v>       0.02832321      -0.24999998       0.46219111 </v>
   <v>       0.01992652       0.42847691       0.14507561 </v>
   <v>       0.01992652       0.07152308       0.14507561 </v>
   <v>       0.04494130       0.25000000       0.08263306 </v>
   <v>       0.07583025       0.25000000      -0.46444420 </v>
   <v>       0.06438549      -0.24999998      -0.09079938 </v>
   <v>       0.07235085      -0.24999998      -0.40443108 </v>
   <v>       0.07541143       0.43043144       0.35352297 </v>
   <v>       0.07541143       0.06956855       0.35352297 </v>
   <v>       0.08874719      -0.43011940      -0.14553043 </v>
   <v>       0.08874719      -0.06988060      -0.14553043 </v>
   <v>       0.05161603      -0.24999998       0.19311063 </v>
   <v>       0.09116665       0.25000000       0.09335982 </v>
   <v>       0.09986119       0.25000000       0.40832522 </v>
   <v>       0.08788767      -0.24999998       0.03701720 </v>
   <v>       0.11102203       0.25000000      -0.30948997 </v>
   <v>       0.11830610      -0.24999998      -0.40897749 </v>
   <v>       0.10737751      -0.24999998       0.30814372 </v>
   <v>       0.13049984       0.25000000      -0.03602740 </v>
   <v>       0.12695324      -0.24999998      -0.09429602 </v>
   <v>       0.12997995       0.42977173       0.14563884 </v>
   <v>       0.12997995       0.07022826       0.14563884 </v>
   <v>       0.14285569      -0.42983164      -0.35496010 </v>
   <v>       0.14285569      -0.07016836      -0.35496010 </v>
   <v>       0.14236080      -0.24999998       0.46327400 </v>
   <v>       0.14626139       0.25000000       0.40480140 </v>
   <v>       0.15456106       0.25000000       0.09161298 </v>
   <v>       0.16545585       0.25000000      -0.19146091 </v>
   <v>       0.17281192      -0.24999998      -0.09160891 </v>
   <v>       0.16195924      -0.24999998       0.19113567 </v>
   <v>       0.18131055      -0.24999998      -0.40628935 </v>
   <v>       0.18513918       0.25000000      -0.46471699 </v>
   <v>       0.18475564       0.42975345       0.35349068 </v>
   <v>       0.18475564       0.07024654       0.35349068 </v>
   <v>       0.19734472      -0.42973261      -0.14631496 </v>
   <v>       0.19734472      -0.07026739      -0.14631496 </v>
   <v>      -0.18971334       0.25000000       0.11816689 </v>
   <v>       0.19692092      -0.24999998       0.03552611 </v>
   <v>       0.20071712       0.25000000       0.09395081 </v>
   <v>      -0.18566091      -0.24999998       0.20140649 </v>
   <v>      -0.20158836      -0.42847691      -0.35492437 </v>
   <v>      -0.20158836      -0.07152309      -0.35492437 </v>
   <v>       0.20928292       0.25000000       0.40834594 </v>
   <v>      -0.20180705      -0.24999998       0.46255020 </v>
   <v>      -0.20502914       0.25000000       0.41212047 </v>
   <v>       0.22001400       0.25000000      -0.30846982 </v>
   <v>      -0.20998509       0.25000000      -0.03780881 </v>
   <v>       0.21655908      -0.24999998       0.30849287 </v>
   <v>       0.22731403      -0.24999998      -0.40852555 </v>
   <v>      -0.21553569       0.42864299       0.14232484 </v>
   <v>      -0.21553569       0.07135700       0.14232484 </v>
   <v>      -0.21934757      -0.24999998      -0.10412104 </v>
   <v>      -0.22660313      -0.24999998      -0.41736688 </v>
   <v>       0.23583743      -0.24999998      -0.09384254 </v>
   <v>      -0.23327786       0.25000000      -0.30688931 </v>
   <v>       0.23963577       0.25000000      -0.03543668 </v>
   <v>       0.23923539       0.42968810       0.14637498 </v>
   <v>       0.23923539       0.07031189       0.14637498 </v>
   <v>       0.25183882      -0.42970470      -0.35352809 </v>
   <v>       0.25183882      -0.07029530      -0.35352809 </v>
   <v>      -0.23827594      -0.24999998       0.30832174 </v>
   <v>       0.25145959      -0.24999998       0.46462902 </v>
   <v>      -0.24604730       0.25000000       0.40920058 </v>
   <v>       0.25524535       0.25000000       0.40617677 </v>
   <v>      -0.25707327      -0.43043144      -0.14647703 </v>
   <v>      -0.25707327      -0.06956856      -0.14647703 </v>
   <v>      -0.25401265       0.25000000       0.09556894 </v>
   <v>       0.26376789       0.25000000       0.09158141 </v>
   <v>      -0.25749205      -0.24999998       0.03555582 </v>
   <v>       0.27452078       0.25000000      -0.19142274 </v>
   <v>      -0.26954950       0.25000000      -0.46298281 </v>
   <v>       0.27106422      -0.24999998       0.19154210 </v>
   <v>      -0.27040900       0.43011940       0.35446957 </v>
   <v>      -0.27040900       0.06988059       0.35446957 </v>
   <v>      -0.27282849      -0.24999998      -0.40664020 </v>
   <v>       0.28178627      -0.24999998      -0.09155889 </v>
   <v>       0.29033306      -0.24999998      -0.40604424 </v>
   <v>      -0.28152302      -0.24999998      -0.09167474 </v>
   <v>       0.29414294       0.25000000      -0.46445407 </v>
   <v>      -0.28903934       0.25000000      -0.19185623 </v>
   <v>       0.29373682       0.42970944       0.35374708 </v>
   <v>       0.29373682       0.07029055       0.35374708 </v>
   <v>       0.30631429      -0.42971789      -0.14642620 </v>
   <v>       0.30631429      -0.07028211      -0.14642620 </v>
   <v>      -0.29268384      -0.24999998       0.19050997 </v>
   <v>       0.30593751      -0.24999998       0.03532628 </v>
   <v>      -0.29996791       0.25000000       0.09102245 </v>
   <v>       0.30972654       0.25000000       0.09393346 </v>
   <v>      -0.30861504       0.25000000       0.40570406 </v>
   <v>      -0.31164178      -0.42977173      -0.35436114 </v>
   <v>      -0.31164178      -0.07022827      -0.35436114 </v>
   <v>       0.31827134       0.25000000       0.40841480 </v>
   <v>      -0.31216164      -0.24999998       0.46397252 </v>
   <v>       0.32903873       0.25000000      -0.30859569 </v>
   <v>       0.32558001      -0.24999998       0.30852015 </v>
   <v>      -0.32402265       0.25000000      -0.03672592 </v>
   <v>      -0.32451750       0.42983164       0.14503988 </v>
   <v>      -0.32451750       0.07016835       0.14503988 </v>
   <v>       0.33636232      -0.24999998      -0.40845072 </v>
   <v>      -0.32792324      -0.24999998      -0.09519868 </v>
   <v>      -0.33622289      -0.24999998      -0.40838696 </v>
   <v>       0.34483743      -0.24999998      -0.09413428 </v>
   <v>       0.34866797       0.25000000      -0.03581733 </v>
   <v>      -0.34362107       0.25000000      -0.30886427 </v>
   <v>       0.34822995       0.42972508       0.14601423 </v>
   <v>       0.34822995       0.07027492       0.14601423 </v>
   <v>      -0.34711766      -0.24999998       0.30853905 </v>
   <v>       0.36089100      -0.42981769      -0.35387029 </v>
   <v>       0.36089100      -0.07018231      -0.35387029 </v>
   <v>       0.36046908      -0.24999998       0.46438882 </v>
   <v>      -0.35447372       0.25000000       0.40839105 </v>
   <v>       0.36431323       0.25000000       0.40582023 </v>
   <v>      -0.36297235       0.25000000       0.09371067 </v>
   <v>      -0.36641748      -0.42975345      -0.14650932 </v>
   <v>      -0.36641748      -0.07024655      -0.14650932 </v>
   <v>       0.37276941       0.25000000       0.09131031 </v>
   <v>      -0.36680098      -0.24999998       0.03528303 </v>
   <v>       0.38361952       0.25000000      -0.19147573 </v>
   <v>      -0.37858276       0.25000000      -0.46447390 </v>
   <v>       0.38012623      -0.24999998       0.19137775 </v>
   <v>      -0.37900652       0.42973261       0.35368504 </v>
   <v>      -0.37900652       0.07026738       0.35368504 </v>
   <v>      -0.38237897      -0.24999998      -0.40604921 </v>
   <v>       0.39096211      -0.24999998      -0.09161671 </v>
   <v>       0.39942875      -0.24999998      -0.40571915 </v>
   <v>      -0.39094476      -0.24999998      -0.09165402 </v>
   <v>       0.40330784       0.25000000      -0.46418107 </v>
   <v>       0.40282668       0.42982401       0.35408521 </v>
   <v>       0.40282668       0.07017598       0.35408521 </v>
   <v>      -0.39822090       0.25000000      -0.19150709 </v>
   <v>       0.41551150      -0.42982401      -0.14591479 </v>
   <v>       0.41551150      -0.07017599      -0.14591479 </v>
   <v>      -0.40167582      -0.24999998       0.19153011 </v>
   <v>       0.41503034      -0.24999998       0.03581895 </v>
   <v>      -0.40897582       0.25000000       0.09147438 </v>
   <v>       0.41890943       0.25000000       0.09428087 </v>
   <v>      -0.41749923       0.25000000       0.40615754 </v>
   <v>       0.42737607       0.25000000       0.40838325 </v>
   <v>      -0.42089723      -0.42968810      -0.35362500 </v>
   <v>      -0.42089723      -0.07031190      -0.35362500 </v>
   <v>      -0.42129757      -0.24999998       0.46456324 </v>
   <v>       0.43821195       0.25000000      -0.30862219 </v>
   <v>       0.43471866      -0.24999998       0.30852423 </v>
   <v>      -0.43312143       0.25000000      -0.03537090 </v>
   <v>      -0.43350063       0.42970470       0.14647189 </v>
   <v>      -0.43350063       0.07029529       0.14647189 </v>
   <v>       0.44556875      -0.24999998      -0.40868962 </v>
   <v>      -0.43690720      -0.24999998      -0.09382331 </v>
   <v>      -0.44542973      -0.24999998      -0.40841852 </v>
   <v>       0.45402493      -0.24999998      -0.09417985 </v>
   <v>       0.45786908       0.25000000      -0.03561110 </v>
   <v>      -0.45272604       0.25000000      -0.30845784 </v>
   <v>       0.45744718       0.42981769       0.14612969 </v>
   <v>       0.45744718       0.07018230       0.14612969 </v>
   <v>      -0.45618260      -0.24999998       0.30857722 </v>
   <v>       0.47010821      -0.42972508      -0.35398575 </v>
   <v>       0.47010821      -0.07027492      -0.35398575 </v>
   <v>       0.46967023      -0.24999998       0.46418259 </v>
   <v>      -0.46344806       0.25000000       0.40844107 </v>
   <v>       0.47350077       0.25000000       0.40586581 </v>
   <v>      -0.47199485       0.25000000       0.09395578 </v>
   <v>      -0.47539864      -0.42970944      -0.14625292 </v>
   <v>      -0.47539864      -0.07029056      -0.14625292 </v>
   <v>       0.48197589       0.25000000       0.09154922 </v>
   <v>      -0.47580473      -0.24999998       0.03554595 </v>
   <v>       0.49275818       0.25000000      -0.19147980 </v>
   <v>       0.48929945      -0.24999998       0.19140425 </v>
   <v>      -0.48759935       0.25000000      -0.46467374 </v>
   <v>      -0.48797611       0.42971789       0.35357380 </v>
   <v>      -0.48797611       0.07028210       0.35357380 </v>
   <v>      -0.49138839      -0.24999998      -0.40606656 </v>
   <v>      -0.49993318      -0.24999998      -0.09158516 </v>
  </varray>
 </structure>
 <varray name="primitive_index" >
  <v type="int" >        1 </v>
  <v type="int" >      151 </v>
  <v type="int" >      113 </v>
  <v type="int" >       76 </v>
  <v type="int" >      121 </v>
  <v type="int" >       31 </v>
  <v type="int" >       46 </v>
  <v type="int" >       24 </v>
  <v type="int" >      166 </v>
  <v type="int" >       98 </v>
  <v type="int" >       61 </v>
  <v type="int" >      136 </v>
  <v type="int" >      174 </v>
  <v type="int" >      144 </v>
  <v type="int" >       54 </v>
  <v type="int" >      106 </v>
  <v type="int" >       84 </v>
  <v type="int" >       91 </v>
  <v type="int" >       69 </v>
  <v type="int" >       16 </v>
  <v type="int" >       39 </v>
  <v type="int" >      129 </v>
  <v type="int" >      159 </v>
  <v type="int" >        2 </v>
  <v type="int" >      122 </v>
  <v type="int" >        9 </v>
  <v type="int" >      152 </v>
  <v type="int" >       32 </v>
  <v type="int" >       99 </v>
  <v type="int" >       62 </v>
  <v type="int" >      114 </v>
  <v type="int" >       77 </v>
  <v type="int" >      167 </v>
  <v type="int" >       47 </v>
  <v type="int" >      137 </v>
  <v type="int" >       25 </v>
  <v type="int" >      145 </v>
  <v type="int" >       17 </v>
  <v type="int" >       55 </v>
  <v type="int" >      175 </v>
  <v type="int" >      107 </v>
  <v type="int" >       85 </v>
  <v type="int" >       92 </v>
  <v type="int" >       70 </v>
  <v type="int" >      143 </v>
  <v type="int" >      160 </v>
  <v type="int" >       40 </v>
  <v type="int" >       23 </v>
  <v type="int" >      120 </v>
  <v type="int" >       83 </v>
  <v type="int" >      130 </v>
  <v type="int" >      173 </v>
  <v type="int" >       53 </v>
  <v type="int" >        3 </v>
  <v type="int" >      158 </v>
  <v type="int" >       10 </v>
  <v type="int" >      123 </v>
  <v type="int" >      105 </v>
  <v type="int" >       68 </v>
  <v type="int" >       38 </v>
  <v type="int" >      128 </v>
  <v type="int" >       33 </v>
  <v type="int" >        8 </v>
  <v type="int" >      153 </v>
  <v type="int" >      100 </v>
  <v type="int" >       63 </v>
  <v type="int" >      115 </v>
  <v type="int" >       78 </v>
  <v type="int" >       15 </v>
  <v type="int" >      168 </v>
  <v type="int" >      135 </v>
  <v type="int" >       48 </v>
  <v type="int" >       97 </v>
  <v type="int" >       75 </v>
  <v type="int" >       45 </v>
  <v type="int" >      138 </v>
  <v type="int" >      165 </v>
  <v type="int" >       26 </v>
  <v type="int" >      180 </v>
  <v type="int" >       18 </v>
  <v type="int" >      112 </v>
  <v type="int" >       90 </v>
  <v type="int" >       60 </v>
  <v type="int" >      146 </v>
  <v type="int" >       56 </v>
  <v type="int" >      150 </v>
  <v type="int" >      176 </v>
  <v type="int" >       30 </v>
  <v type="int" >      108 </v>
  <v type="int" >       86 </v>
  <v type="int" >       93 </v>
  <v type="int" >       71 </v>
  <v type="int" >       22 </v>
  <v type="int" >      161 </v>
  <v type="int" >      142 </v>
  <v type="int" >       41 </v>
  <v type="int" >       52 </v>
  <v type="int" >      119 </v>
  <v type="int" >       82 </v>
  <v type="int" >      131 </v>
  <v type="int" >      172 </v>
  <v type="int" >        4 </v>
  <v type="int" >       11 </v>
  <v type="int" >      157 </v>
  <v type="int" >      104 </v>
  <v type="int" >       67 </v>
  <v type="int" >      124 </v>
  <v type="int" >       37 </v>
  <v type="int" >      127 </v>
  <v type="int" >       34 </v>
  <v type="int" >      154 </v>
  <v type="int" >        7 </v>
  <v type="int" >      101 </v>
  <v type="int" >       64 </v>
  <v type="int" >       14 </v>
  <v type="int" >      116 </v>
  <v type="int" >       79 </v>
  <v type="int" >      169 </v>
  <v type="int" >      134 </v>
  <v type="int" >       49 </v>
  <v type="int" >       44 </v>
  <v type="int" >       96 </v>
  <v type="int" >       74 </v>
  <v type="int" >      139 </v>
  <v type="int" >      164 </v>
  <v type="int" >       27 </v>
  <v type="int" >      179 </v>
  <v type="int" >       19 </v>
  <v type="int" >      111 </v>
  <v type="int" >       89 </v>
  <v type="int" >       59 </v>
  <v type="int" >      147 </v>
  <v type="int" >       57 </v>
  <v type="int" >      149 </v>
  <v type="int" >      177 </v>
  <v type="int" >      109 </v>
  <v type="int" >       87 </v>
  <v type="int" >       29 </v>
  <v type="int" >       94 </v>
  <v type="int" >       72 </v>
  <v type="int" >       21 </v>
  <v type="int" >      162 </v>
  <v type="int" >      141 </v>
  <v type="int" >       42 </v>
  <v type="int" >       51 </v>
  <v type="int" >      132 </v>
  <v type="int" >      118 </v>
  <v type="int" >       81 </v>
  <v type="int" >      171 </v>
  <v type="int" >        5 </v>
  <v type="int" >       12 </v>
  <v type="int" >      156 </v>
  <v type="int" >      103 </v>
  <v type="int" >       66 </v>
  <v type="int" >      125 </v>
  <v type="int" >       36 </v>
  <v type="int" >      126 </v>
  <v type="int" >       35 </v>
  <v type="int" >      155 </v>
  <v type="int" >        6 </v>
  <v type="int" >      102 </v>
  <v type="int" >       65 </v>
  <v type="int" >       13 </v>
  <v type="int" >      117 </v>
  <v type="int" >       80 </v>
  <v type="int" >      170 </v>
  <v type="int" >      133 </v>
  <v type="int" >       50 </v>
  <v type="int" >       43 </v>
  <v type="int" >       95 </v>
  <v type="int" >       73 </v>
  <v type="int" >      140 </v>
  <v type="int" >      163 </v>
  <v type="int" >       28 </v>
  <v type="int" >       20 </v>
  <v type="int" >      178 </v>
  <v type="int" >      110 </v>
  <v type="int" >       88 </v>
  <v type="int" >       58 </v>
  <v type="int" >      148 </v>
 </varray>
 <kpoints>
  <generation param="listgenerated">
   <i name="divisions" type="int">      20 </i>
   <v>       0.00000000       0.00000000       0.00000000 </v>
   <v>       0.00000000       0.50000000       0.00000000 </v>
   <v>       0.00000000       0.50000000       0.50000000 </v>
   <v>       0.00000000       0.00000000       0.50000000 </v>
   <v>       0.00000000       0.00000000       0.00000000 </v>
  </generation>
  <varray name="kpointlist" >
   <v>       0.00000000       0.00000000       0.00000000 </v>
   <v>       0.00000000       0.02631579       0.00000000 </v>
   <v>       0.00000000       0.05263158       0.00000000 </v>
   <v>       0.00000000       0.07894737       0.00000000 </v>
   <v>       0.00000000       0.10526316       0.00000000 </v>
   <v>       0.00000000       0.13157895       0.00000000 </v>
   <v>       0.00000000       0.15789474       0.00000000 </v>
   <v>       0.00000000       0.18421053       0.00000000 </v>
   <v>       0.00000000       0.21052632       0.00000000 </v>
   <v>       0.00000000       0.23684211       0.00000000 </v>
   <v>       0.00000000       0.26315789       0.00000000 </v>
   <v>       0.00000000       0.28947368       0.00000000 </v>
   <v>       0.00000000       0.31578947       0.00000000 </v>
   <v>       0.00000000       0.34210526       0.00000000 </v>
   <v>       0.00000000       0.36842105       0.00000000 </v>
   <v>       0.00000000       0.39473684       0.00000000 </v>
   <v>       0.00000000       0.42105263       0.00000000 </v>
   <v>       0.00000000       0.44736842       0.00000000 </v>
   <v>       0.00000000       0.47368421       0.00000000 </v>
   <v>       0.00000000       0.50000000       0.00000000 </v>
   <v>       0.00000000       0.50000000       0.00000000 </v>
   <v>       0.00000000       0.50000000       0.02631579 </v>
   <v>       0.00000000       0.50000000       0.05263158 </v>
   <v>       0.00000000       0.50000000       0.07894737 </v>
   <v>       0.00000000       0.50000000       0.10526316 </v>
   <v>       0.00000000       0.50000000       0.13157895 </v>
   <v>       0.00000000       0.50000000       0.15789474 </v>
   <v>       0.00000000       0.50000000       0.18421053 </v>
   <v>       0.00000000       0.50000000       0.21052632 </v>
   <v>       0.00000000       0.50000000       0.23684211 </v>
   <v>       0.00000000       0.50000000       0.26315789 </v>
   <v>       0.00000000       0.50000000       0.28947368 </v>
   <v>       0.00000000       0.50000000       0.31578947 </v>
   <v>       0.00000000       0.50000000       0.34210526 </v>
   <v>       0.00000000       0.50000000       0.36842105 </v>
   <v>       0.00000000       0.50000000       0.39473684 </v>
   <v>       0.00000000       0.50000000       0.42105263 </v>
   <v>       0.00000000       0.50000000       0.44736842 </v>
   <v>       0.00000000       0.50000000       0.47368421 </v>
   <v>       0.00000000       0.50000000       0.50000000 </v>
   <v>       0.00000000       0.50000000       0.50000000 </v>
   <v>       0.00000000       0.47368421       0.50000000 </v>
   <v>       0.00000000       0.44736842       0.50000000 </v>
   <v>       0.00000000       0.42105263       0.50000000 </v>
   <v>       0.00000000       0.39473684       0.50000000 </v>
   <v>       0.00000000       0.36842105       0.50000000 </v>
   <v>       0.00000000       0.34210526       0.50000000 </v>
   <v>       0.00000000       0.31578947       0.50000000 </v>
   <v>       0.00000000       0.28947368       0.50000000 </v>
   <v>       0.00000000       0.26315789       0.50000000 </v>
   <v>       0.00000000       0.23684211       0.50000000 </v>
   <v>       0.00000000       0.21052632       0.50000000 </v>
   <v>       0.00000000       0.18421053       0.50000000 </v>
   <v>       0.00000000       0.15789474       0.50000000 </v>
   <v>       0.00000000       0.13157895       0.50000000 </v>
   <v>       0.00000000       0.10526316       0.50000000 </v>
   <v>       0.00000000       0.07894737       0.50000000 </v>
   <v>       0.00000000       0.05263158       0.50000000 </v>
   <v>       0.00000000       0.02631579       0.50000000 </v>
   <v>       0.00000000       0.00000000       0.50000000 </v>
   <v>       0.00000000       0.00000000       0.50000000 </v>
   <v>       0.00000000       0.00000000       0.47368421 </v>
   <v>       0.00000000       0.00000000       0.44736842 </v>
   <v>       0.00000000       0.00000000       0.42105263 </v>
   <v>       0.00000000       0.00000000       0.39473684 </v>
   <v>       0.00000000       0.00000000       0.36842105 </v>
   <v>       0.00000000       0.00000000       0.34210526 </v>
   <v>       0.00000000       0.00000000       0.31578947 </v>
   <v>       0.00000000       0.00000000       0.28947368 </v>
   <v>       0.00000000       0.00000000       0.26315789 </v>
   <v>       0.00000000       0.00000000       0.23684211 </v>
   <v>       0.00000000       0.00000000       0.21052632 </v>
   <v>       0.00000000       0.00000000       0.18421053 </v>
   <v>       0.00000000       0.00000000       0.15789474 </v>
   <v>       0.00000000       0.00000000       0.13157895 </v>
   <v>       0.00000000       0.00000000       0.10526316 </v>
   <v>       0.00000000       0.00000000       0.07894737 </v>
   <v>       0.00000000       0.00000000       0.05263158 </v>
   <v>       0.00000000       0.00000000       0.02631579 </v>
   <v>       0.00000000       0.00000000       0.00000000 </v>
  </varray>
  <varray name="weights" >
   <v>       0.01250000 </v>
   <v>       0.01250000 </v>
   <v>       0.01250000 </v>
   <v>       0.01250000 </v>
   <v>       0.01250000 </v>
   <v>       0.01250000 </v>
   <v>       0.01250000 </v>
   <v>       0.01250000 </v>
   <v>       0.01250000 </v>
   <v>       0.01250000 </v>
   <v>       0.01250000 </v>
   <v>       0.01250000 </v>
   <v>       0.01250000 </v>
   <v>       0.01250000 </v>
   <v>       0.01250000 </v>
   <v>       0.01250000 </v>
   <v>       0.01250000 </v>
   <v>       0.01250000 </v>
   <v>       0.01250000 </v>
   <v>       0.01250000 </v>
   <v>       0.01250000 </v>
   <v>       0.01250000 </v>
   <v>       0.01250000 </v>
   <v>       0.01250000 </v>
   <v>       0.01250000 </v>
   <v>       0.01250000 </v>
   <v>       0.01250000 </v>
   <v>       0.01250000 </v>
   <v>       0.01250000 </v>
   <v>       0.01250000 </v>
   <v>       0.01250000 </v>
   <v>       0.01250000 </v>
   <v>       0.01250000 </v>
   <v>       0.01250000 </v>
   <v>       0.01250000 </v>
   <v>       0.01250000 </v>
   <v>       0.01250000 </v>
   <v>       0.01250000 </v>
   <v>       0.01250000 </v>
   <v>       0.01250000 </v>
   <v>       0.01250000 </v>
   <v>       0.01250000 </v>
   <v>       0.01250000 </v>
   <v>       0.01250000 </v>
   <v>       0.01250000 </v>
   <v>       0.01250000 </v>
   <v>       0.01250000 </v>
   <v>       0.01250000 </v>
   <v>       0.01250000 </v>
   <v>       0.01250000 </v>
   <v>       0.01250000 </v>
   <v>       0.01250000 </v>
   <v>       0.01250000 </v>
   <v>       0.01250000 </v>
   <v>       0.01250000 </v>
   <v>       0.01250000 </v>
   <v>       0.01250000 </v>
   <v>       0.01250000 </v>
   <v>       0.01250000 </v>
   <v>       0.01250000 </v>
   <v>       0.01250000 </v>
   <v>       0.01250000 </v>
   <v>       0.01250000 </v>
   <v>       0.01250000 </v>
   <v>       0.01250000 </v>
   <v>       0.01250000 </v>
   <v>       0.01250000 </v>
   <v>       0.01250000 </v>
   <v>       0.01250000 </v>
   <v>       0.01250000 </v>
   <v>       0.01250000 </v>
   <v>       0.01250000 </v>
   <v>       0.01250000 </v>
   <v>       0.01250000 </v>
   <v>       0.01250000 </v>
   <v>       0.01250000 </v>
   <v>       0.01250000 </v>
   <v>       0.01250000 </v>
   <v>       0.01250000 </v>
   <v>       0.01250000 </v>
  </varray>
 </kpoints>
 <parameters>
  <separator name="general" >
   <i type="string" name="SYSTEM">unknown system</i>
   <i type="logical" name="LCOMPAT"> F  </i>
  </separator>
  <separator name="electronic" >
   <i type="string" name="PREC">normal</i>
   <i name="ENMAX">    500.00000000</i>
   <i name="ENAUG">    351.16500000</i>
   <i name="EDIFF">      0.00000100</i>
   <i type="int" name="IALGO">    38</i>
   <i type="int" name="IWAVPR">    10</i>
   <i type="int" name="NBANDS">   648</i>
   <i name="NELECT">   1080.00000000</i>
   <i type="int" name="TURBO">     0</i>
   <i type="int" name="IRESTART">     0</i>
   <i type="int" name="NREBOOT">     0</i>
   <i type="int" name="NMIN">     0</i>
   <i name="EREF">      0.00000000</i>
   <separator name="electronic smearing" >
    <i type="int" name="ISMEAR">     0</i>
    <i name="SIGMA">      0.01000000</i>
    <i name="KSPACING">      0.50000000</i>
    <i type="logical" name="KGAMMA"> T  </i>
   </separator>
   <separator name="electronic projectors" >
    <i type="logical" name="LREAL"> T  </i>
    <v name="ROPT">     -0.00050000     -0.00050000</v>
    <i type="int" name="LMAXPAW">  -100</i>
    <i type="int" name="LMAXMIX">     2</i>
    <i type="logical" name="NLSPLINE"> F  </i>
   </separator>
   <separator name="electronic startup" >
    <i type="int" name="ISTART">     0</i>
    <i type="int" name="ICHARG">    11</i>
    <i type="int" name="INIWAV">     1</i>
   </separator>
   <separator name="electronic spin" >
    <i type="int" name="ISPIN">     1</i>
    <i type="logical" name="LNONCOLLINEAR"> F  </i>
    <v name="MAGMOM">      1.00000000      1.00000000      1.00000000      1.00000000      1.00000000      1.00000000      1.00000000      1.00000000      1.00000000      1.00000000      1.00000000      1.00000000      1.00000000      1.00000000      1.00000000      1.00000000      1.00000000      1.00000000      1.00000000      1.00000000
      1.00000000      1.00000000      1.00000000      1.00000000      1.00000000      1.00000000      1.00000000      1.00000000      1.00000000      1.00000000      1.00000000      1.00000000      1.00000000      1.00000000      1.00000000      1.00000000      1.00000000      1.00000000      1.00000000      1.00000000
      1.00000000      1.00000000      1.00000000      1.00000000      1.00000000      1.00000000      1.00000000      1.00000000      1.00000000      1.00000000      1.00000000      1.00000000      1.00000000      1.00000000      1.00000000      1.00000000      1.00000000      1.00000000      1.00000000      1.00000000
      1.00000000      1.00000000      1.00000000      1.00000000      1.00000000      1.00000000      1.00000000      1.00000000      1.00000000      1.00000000      1.00000000      1.00000000      1.00000000      1.00000000      1.00000000      1.00000000      1.00000000      1.00000000      1.00000000      1.00000000
      1.00000000      1.00000000      1.00000000      1.00000000      1.00000000      1.00000000      1.00000000      1.00000000      1.00000000      1.00000000      1.00000000      1.00000000      1.00000000      1.00000000      1.00000000      1.00000000      1.00000000      1.00000000      1.00000000      1.00000000
      1.00000000      1.00000000      1.00000000      1.00000000      1.00000000      1.00000000      1.00000000      1.00000000      1.00000000      1.00000000      1.00000000      1.00000000      1.00000000      1.00000000      1.00000000      1.00000000      1.00000000      1.00000000      1.00000000      1.00000000
      1.00000000      1.00000000      1.00000000      1.00000000      1.00000000      1.00000000      1.00000000      1.00000000      1.00000000      1.00000000      1.00000000      1.00000000      1.00000000      1.00000000      1.00000000      1.00000000      1.00000000      1.00000000      1.00000000      1.00000000
      1.00000000      1.00000000      1.00000000      1.00000000      1.00000000      1.00000000      1.00000000      1.00000000      1.00000000      1.00000000      1.00000000      1.00000000      1.00000000      1.00000000      1.00000000      1.00000000      1.00000000      1.00000000      1.00000000      1.00000000
      1.00000000      1.00000000      1.00000000      1.00000000      1.00000000      1.00000000      1.00000000      1.00000000      1.00000000      1.00000000      1.00000000      1.00000000      1.00000000      1.00000000      1.00000000      1.00000000      1.00000000      1.00000000      1.00000000      1.00000000
</v>
    <i name="NUPDOWN">     -1.00000000</i>
    <i type="logical" name="LSORBIT"> F  </i>
    <v name="SAXIS">      0.00000000      0.00000000      1.00000000</v>
    <i type="logical" name="LSPIRAL"> F  </i>
    <v name="QSPIRAL">      0.00000000      0.00000000      0.00000000</v>
    <i type="logical" name="LZEROZ"> F  </i>
   </separator>
   <separator name="electronic exchange-correlation" >
    <i type="logical" name="LASPH"> T  </i>
    <i type="logical" name="LMETAGGA"> F  </i>
   </separator>
   <separator name="electronic convergence" >
    <i type="int" name="NELM">   100</i>
    <i type="int" name="NELMDL">    -5</i>
    <i type="int" name="NELMIN">     2</i>
    <i name="ENINI">    500.00000000</i>
    <separator name="electronic convergence detail" >
     <i type="logical" name="LDIAG"> T  </i>
     <i type="logical" name="LSUBROT"> F  </i>
     <i name="WEIMIN">      0.00000000</i>
     <i name="EBREAK">      0.00000000</i>
     <i name="DEPER">      0.30000000</i>
     <i type="int" name="NRMM">     4</i>
     <i name="TIME">      0.40000000</i>
    </separator>
   </separator>
   <separator name="electronic mixer" >
    <i name="AMIX">      0.40000000</i>
    <i name="BMIX">      1.00000000</i>
    <i name="AMIN">      0.10000000</i>
    <i name="AMIX_MAG">      1.60000000</i>
    <i name="BMIX_MAG">      1.00000000</i>
    <separator name="electronic mixer details" >
     <i type="int" name="IMIX">     4</i>
     <i type="logical" name="MIXFIRST"> F  </i>
     <i type="int" name="MAXMIX">   -45</i>
     <i name="WC">    100.00000000</i>
     <i type="int" name="INIMIX">     1</i>
     <i type="int" name="MIXPRE">     1</i>
     <i type="int" name="MREMOVE">     5</i>
    </separator>
   </separator>
   <separator name="electronic dipolcorrection" >
    <i type="logical" name="LDIPOL"> F  </i>
    <i type="logical" name="LMONO"> F  </i>
    <i type="int" name="IDIPOL">     0</i>
    <i name="EPSILON">      1.00000000</i>
    <v name="DIPOL">   -100.00000000   -100.00000000   -100.00000000</v>
    <i name="EFIELD">      0.00000000</i>
   </separator>
  </separator>
  <separator name="grids" >
   <i type="int" name="NGX">   448</i>
   <i type="int" name="NGY">    40</i>
   <i type="int" name="NGZ">    64</i>
   <i type="int" name="NGXF">   896</i>
   <i type="int" name="NGYF">    80</i>
   <i type="int" name="NGZF">   128</i>
   <i type="logical" name="ADDGRID"> F  </i>
  </separator>
  <separator name="ionic" >
   <i type="int" name="NSW">     0</i>
   <i type="int" name="IBRION">    -1</i>
   <i type="int" name="MDALGO">     0</i>
   <i type="int" name="ISIF">     2</i>
   <i name="PSTRESS">      0.00000000</i>
   <i name="EDIFFG">     -0.01000000</i>
   <i type="int" name="NFREE">     0</i>
   <i name="POTIM">      0.30000000</i>
   <i name="SMASS">     -3.00000000</i>
   <i name="SCALEE">      1.00000000</i>
  </separator>
  <separator name="ionic md" >
   <i name="TEBEG">      0.00010000</i>
   <i name="TEEND">      0.00010000</i>
   <i type="int" name="NBLOCK">     1</i>
   <i type="int" name="KBLOCK">     1</i>
   <i type="int" name="NPACO">   256</i>
   <i name="APACO">     16.00000000</i>
  </separator>
  <separator name="symmetry" >
   <i type="int" name="ISYM">     2</i>
   <i name="SYMPREC">      0.00001000</i>
  </separator>
  <separator name="dos" >
   <i type="int" name="LORBIT">     0</i>
   <v name="RWIGS">     -1.00000000     -1.00000000</v>
   <i type="int" name="NEDOS">   301</i>
   <i name="EMIN">     10.00000000</i>
   <i name="EMAX">    -10.00000000</i>
   <i name="EFERMI">      0.00000000</i>
  </separator>
  <separator name="writing" >
   <i type="int" name="NWRITE">     2</i>
   <i type="logical" name="LWAVE"> T  </i>
   <i type="logical" name="LDOWNSAMPLE"> F  </i>
   <i type="logical" name="LCHARG"> T  </i>
   <i type="logical" name="LPARD"> F  </i>
   <i type="logical" name="LVTOT"> F  </i>
   <i type="logical" name="LVHAR"> F  </i>
   <i type="logical" name="LELF"> F  </i>
   <i type="logical" name="LOPTICS"> F  </i>
   <v name="STM">      0.00000000      0.00000000      0.00000000      0.00000000      0.00000000      0.00000000      0.00000000</v>
  </separator>
  <separator name="performance" >
   <i type="int" name="NPAR">     8</i>
   <i type="int" name="NSIM">     4</i>
   <i type="int" name="NBLK">    -1</i>
   <i type="logical" name="LPLANE"> T  </i>
   <i type="logical" name="LSCALAPACK"> T  </i>
   <i type="logical" name="LSCAAWARE"> F  </i>
   <i type="logical" name="LSCALU"> F  </i>
   <i type="logical" name="LASYNC"> F  </i>
   <i type="logical" name="LORBITALREAL"> F  </i>
  </separator>
  <separator name="miscellaneous" >
   <i type="int" name="IDIOT">     3</i>
   <i type="int" name="ISPECIAL">     0</i>
   <i type="logical" name="LMUSIC"> F  </i>
   <v name="POMASS">    137.32700000     28.08500000</v>
   <v name="DARWINR">      0.00000000      0.00000000</v>
   <v name="DARWINV">      1.00000000      1.00000000</v>
   <i type="logical" name="LCORR"> T  </i>
  </separator>
  <i type="logical" name="GGA_COMPAT"> T  </i>
  <i type="logical" name="LBERRY"> F  </i>
  <i type="int" name="ICORELEVEL">     0</i>
  <i type="logical" name="LDAU"> F  </i>
  <i type="int" name="I_CONSTRAINED_M">     0</i>
  <separator name="electronic exchange-correlation" >
   <i type="string" name="GGA">MK</i>
   <i type="int" name="VOSKOWN">     0</i>
   <i type="logical" name="LHFCALC"> F  </i>
   <i type="string" name="PRECFOCK"></i>
   <i type="logical" name="LSYMGRAD"> F  </i>
   <i type="logical" name="LHFONE"> F  </i>
   <i type="logical" name="LRHFCALC"> F  </i>
   <i type="logical" name="LTHOMAS"> F  </i>
   <i type="logical" name="LMODELHF"> F  </i>
   <i name="ENCUT4O">     -1.00000000</i>
   <i type="int" name="EXXOEP">     0</i>
   <i type="int" name="FOURORBIT">     0</i>
   <i name="AEXX">      0.00000000</i>
   <i name="HFALPHA">      0.00000000</i>
   <i name="MCALPHA">      0.00000000</i>
   <i name="ALDAX">      1.00000000</i>
   <i name="AGGAX">      1.00000000</i>
   <i name="ALDAC">      1.00000000</i>
   <i name="AGGAC">      0.00000000</i>
   <i type="int" name="NKREDX">     1</i>
   <i type="int" name="NKREDY">     1</i>
   <i type="int" name="NKREDZ">     1</i>
   <i type="logical" name="SHIFTRED"> F  </i>
   <i type="logical" name="ODDONLY"> F  </i>
   <i type="logical" name="EVENONLY"> F  </i>
   <i type="int" name="LMAXFOCK">     0</i>
   <i type="int" name="NMAXFOCKAE">     0</i>
   <i type="logical" name="LFOCKAEDFT"> F  </i>
   <i name="HFSCREEN">      0.00000000</i>
   <i name="HFSCREENC">      0.00000000</i>
   <i type="int" name="NBANDSGWLOW">     0</i>
  </separator>
  <separator name="vdW DFT" >
   <i type="logical" name="LUSE_VDW"> T  </i>
   <i name="Zab_VDW">     -1.88670000</i>
   <i name="PARAM1">      0.12340000</i>
   <i name="PARAM2">      0.71135700</i>
   <i name="PARAM3">      0.00000000</i>
  </separator>
  <separator name="model GW" >
   <i type="int" name="MODEL_GW">     0</i>
   <i name="MODEL_EPS0">     20.97896698</i>
   <i name="MODEL_ALPHA">      1.00000000</i>
  </separator>
  <separator name="linear response parameters" >
   <i type="logical" name="LEPSILON"> F  </i>
   <i type="logical" name="LRPA"> F  </i>
   <i type="logical" name="LNABLA"> F  </i>
   <i type="logical" name="LVEL"> F  </i>
   <i type="int" name="KINTER">     0</i>
   <i name="CSHIFT">      0.10000000</i>
   <i name="OMEGAMAX">     -1.00000000</i>
   <i name="DEG_THRESHOLD">      0.00200000</i>
   <i name="RTIME">     -0.10000000</i>
   <i name="WPLASMAI">      0.00000000</i>
   <v name="DFIELD">      0.00000000      0.00000000      0.00000000</v>
   <v name="WPLASMA">      0.00000000      0.00000000      0.00000000      0.00000000      0.00000000      0.00000000      0.00000000      0.00000000      0.00000000</v>
  </separator>
  <separator name="orbital magnetization" >
   <i type="logical" name="NUCIND"> F  </i>
   <v name="MAGPOS">      0.00000000      0.00000000      0.00000000</v>
   <i type="logical" name="LNICSALL"> T  </i>
   <i type="logical" name="ORBITALMAG"> F  </i>
   <i type="logical" name="LMAGBLOCH"> F  </i>
   <i type="logical" name="LCHIMAG"> F  </i>
   <i type="logical" name="LGAUGE"> T  </i>
   <i type="int" name="MAGATOM">     0</i>
   <v name="MAGDIPOL">      0.00000000      0.00000000      0.00000000</v>
   <v name="AVECCONST">      0.00000000      0.00000000      0.00000000</v>
  </separator>
  <separator name="response functions" >
   <i type="logical" name="LADDER"> F  </i>
   <i type="logical" name="LRPAFORCE"> F  </i>
   <i type="logical" name="LFXC"> F  </i>
   <i type="logical" name="LHARTREE"> T  </i>
   <i type="int" name="IBSE">     0</i>
   <v type="int" name="KPOINT">    -1     0     0     0</v>
   <i type="logical" name="LTCTE"> F  </i>
   <i type="logical" name="LTETE"> F  </i>
   <i type="logical" name="LTRIPLET"> F  </i>
   <i type="logical" name="LFXCEPS"> F  </i>
   <i type="logical" name="LFXHEG"> F  </i>
   <i type="int" name="NATURALO">     2</i>
   <i type="logical" name="L2ORDER"> F  </i>
   <i type="logical" name="LMP2LT"> F  </i>
   <i type="logical" name="LUSEW"> F  </i>
   <i name="ENCUTGW">     -2.00000000</i>
   <i name="ENCUTGWSOFT">     -2.00000000</i>
   <i name="ENCUTLF">     -1.00000000</i>
   <i type="int" name="LMAXMP2">    -1</i>
   <i name="SCISSOR">      0.00000000</i>
   <i type="int" name="NOMEGA">     0</i>
   <i type="int" name="NOMEGAR">     0</i>
   <i type="int" name="NBANDSGW">    -1</i>
   <i type="int" name="NBANDSO">    -1</i>
   <i type="int" name="NBANDSV">    -1</i>
   <i type="int" name="NELM">   100</i>
   <i type="int" name="NELMHF">     1</i>
   <i type="int" name="DIM">     3</i>
   <i type="int" name="ANTIRES">     0</i>
   <i name="OMEGAMAX">    -30.00000000</i>
   <i name="OMEGAMIN">    -30.00000000</i>
   <i name="OMEGATL">   -200.00000000</i>
   <i type="int" name="OMEGAGRID">   140</i>
   <i name="CSHIFT">     -0.10000000</i>
   <i type="logical" name="SELFENERGY"> F  </i>
   <i type="logical" name="LSPECTRAL"> F  </i>
   <i type="logical" name="LSPECTRALGW"> F  </i>
   <i type="logical" name="LSINGLES"> F  </i>
   <i type="logical" name="LFERMIGW"> F  </i>
   <i type="logical" name="ODDONLYGW"> F  </i>
   <i type="logical" name="EVENONLYGW"> F  </i>
   <i type="int" name="NKREDLFX">     1</i>
   <i type="int" name="NKREDLFY">     1</i>
   <i type="int" name="NKREDLFZ">     1</i>
   <i type="int" name="MAXMEM">  2800</i>
   <i type="int" name="TELESCOPE">     0</i>
   <i type="int" name="TAUPAR">     1</i>
   <i type="int" name="OMEGAPAR">    -1</i>
   <i name="LAMBDA">      1.00000000</i>
  </separator>
  <separator name="External order field" >
   <i name="OFIELD_KAPPA">      0.00000000</i>
   <v name="OFIELD_K">      0.00000000      0.00000000      0.00000000</v>
   <i name="OFIELD_Q6_NEAR">      0.00000000</i>
   <i name="OFIELD_Q6_FAR">      0.00000000</i>
   <i name="OFIELD_A">      0.00000000</i>
  </separator>
 </parameters>
 <atominfo>
  <atoms>     180 </atoms>
  <types>       2 </types>
  <array name="atoms" >
   <dimension dim="1">ion</dimension>
   <field type="string">element</field>
   <field type="int">atomtype</field>
   <set>
    <rc><c>Ba</c><c>   1</c></rc>
    <rc><c>Ba</c><c>   1</c></rc>
    <rc><c>Ba</c><c>   1</c></rc>
    <rc><c>Ba</c><c>   1</c></rc>
    <rc><c>Ba</c><c>   1</c></rc>
    <rc><c>Ba</c><c>   1</c></rc>
    <rc><c>Ba</c><c>   1</c></rc>
    <rc><c>Ba</c><c>   1</c></rc>
    <rc><c>Ba</c><c>   1</c></rc>
    <rc><c>Ba</c><c>   1</c></rc>
    <rc><c>Ba</c><c>   1</c></rc>
    <rc><c>Ba</c><c>   1</c></rc>
    <rc><c>Ba</c><c>   1</c></rc>
    <rc><c>Ba</c><c>   1</c></rc>
    <rc><c>Ba</c><c>   1</c></rc>
    <rc><c>Ba</c><c>   1</c></rc>
    <rc><c>Ba</c><c>   1</c></rc>
    <rc><c>Ba</c><c>   1</c></rc>
    <rc><c>Ba</c><c>   1</c></rc>
    <rc><c>Ba</c><c>   1</c></rc>
    <rc><c>Ba</c><c>   1</c></rc>
    <rc><c>Ba</c><c>   1</c></rc>
    <rc><c>Ba</c><c>   1</c></rc>
    <rc><c>Ba</c><c>   1</c></rc>
    <rc><c>Ba</c><c>   1</c></rc>
    <rc><c>Ba</c><c>   1</c></rc>
    <rc><c>Ba</c><c>   1</c></rc>
    <rc><c>Ba</c><c>   1</c></rc>
    <rc><c>Ba</c><c>   1</c></rc>
    <rc><c>Ba</c><c>   1</c></rc>
    <rc><c>Ba</c><c>   1</c></rc>
    <rc><c>Ba</c><c>   1</c></rc>
    <rc><c>Ba</c><c>   1</c></rc>
    <rc><c>Ba</c><c>   1</c></rc>
    <rc><c>Ba</c><c>   1</c></rc>
    <rc><c>Ba</c><c>   1</c></rc>
    <rc><c>Ba</c><c>   1</c></rc>
    <rc><c>Ba</c><c>   1</c></rc>
    <rc><c>Ba</c><c>   1</c></rc>
    <rc><c>Ba</c><c>   1</c></rc>
    <rc><c>Ba</c><c>   1</c></rc>
    <rc><c>Ba</c><c>   1</c></rc>
    <rc><c>Ba</c><c>   1</c></rc>
    <rc><c>Ba</c><c>   1</c></rc>
    <rc><c>Ba</c><c>   1</c></rc>
    <rc><c>Ba</c><c>   1</c></rc>
    <rc><c>Ba</c><c>   1</c></rc>
    <rc><c>Ba</c><c>   1</c></rc>
    <rc><c>Ba</c><c>   1</c></rc>
    <rc><c>Ba</c><c>   1</c></rc>
    <rc><c>Ba</c><c>   1</c></rc>
    <rc><c>Ba</c><c>   1</c></rc>
    <rc><c>Ba</c><c>   1</c></rc>
    <rc><c>Ba</c><c>   1</c></rc>
    <rc><c>Ba</c><c>   1</c></rc>
    <rc><c>Ba</c><c>   1</c></rc>
    <rc><c>Ba</c><c>   1</c></rc>
    <rc><c>Ba</c><c>   1</c></rc>
    <rc><c>Ba</c><c>   1</c></rc>
    <rc><c>Ba</c><c>   1</c></rc>
    <rc><c>Si</c><c>   2</c></rc>
    <rc><c>Si</c><c>   2</c></rc>
    <rc><c>Si</c><c>   2</c></rc>
    <rc><c>Si</c><c>   2</c></rc>
    <rc><c>Si</c><c>   2</c></rc>
    <rc><c>Si</c><c>   2</c></rc>
    <rc><c>Si</c><c>   2</c></rc>
    <rc><c>Si</c><c>   2</c></rc>
    <rc><c>Si</c><c>   2</c></rc>
    <rc><c>Si</c><c>   2</c></rc>
    <rc><c>Si</c><c>   2</c></rc>
    <rc><c>Si</c><c>   2</c></rc>
    <rc><c>Si</c><c>   2</c></rc>
    <rc><c>Si</c><c>   2</c></rc>
    <rc><c>Si</c><c>   2</c></rc>
    <rc><c>Si</c><c>   2</c></rc>
    <rc><c>Si</c><c>   2</c></rc>
    <rc><c>Si</c><c>   2</c></rc>
    <rc><c>Si</c><c>   2</c></rc>
    <rc><c>Si</c><c>   2</c></rc>
    <rc><c>Si</c><c>   2</c></rc>
    <rc><c>Si</c><c>   2</c></rc>
    <rc><c>Si</c><c>   2</c></rc>
    <rc><c>Si</c><c>   2</c></rc>
    <rc><c>Si</c><c>   2</c></rc>
    <rc><c>Si</c><c>   2</c></rc>
    <rc><c>Si</c><c>   2</c></rc>
    <rc><c>Si</c><c>   2</c></rc>
    <rc><c>Si</c><c>   2</c></rc>
    <rc><c>Si</c><c>   2</c></rc>
    <rc><c>Si</c><c>   2</c></rc>
    <rc><c>Si</c><c>   2</c></rc>
    <rc><c>Si</c><c>   2</c></rc>
    <rc><c>Si</c><c>   2</c></rc>
    <rc><c>Si</c><c>   2</c></rc>
    <rc><c>Si</c><c>   2</c></rc>
    <rc><c>Si</c><c>   2</c></rc>
    <rc><c>Si</c><c>   2</c></rc>
    <rc><c>Si</c><c>   2</c></rc>
    <rc><c>Si</c><c>   2</c></rc>
    <rc><c>Si</c><c>   2</c></rc>
    <rc><c>Si</c><c>   2</c></rc>
    <rc><c>Si</c><c>   2</c></rc>
    <rc><c>Si</c><c>   2</c></rc>
    <rc><c>Si</c><c>   2</c></rc>
    <rc><c>Si</c><c>   2</c></rc>
    <rc><c>Si</c><c>   2</c></rc>
    <rc><c>Si</c><c>   2</c></rc>
    <rc><c>Si</c><c>   2</c></rc>
    <rc><c>Si</c><c>   2</c></rc>
    <rc><c>Si</c><c>   2</c></rc>
    <rc><c>Si</c><c>   2</c></rc>
    <rc><c>Si</c><c>   2</c></rc>
    <rc><c>Si</c><c>   2</c></rc>
    <rc><c>Si</c><c>   2</c></rc>
    <rc><c>Si</c><c>   2</c></rc>
    <rc><c>Si</c><c>   2</c></rc>
    <rc><c>Si</c><c>   2</c></rc>
    <rc><c>Si</c><c>   2</c></rc>
    <rc><c>Si</c><c>   2</c></rc>
    <rc><c>Si</c><c>   2</c></rc>
    <rc><c>Si</c><c>   2</c></rc>
    <rc><c>Si</c><c>   2</c></rc>
    <rc><c>Si</c><c>   2</c></rc>
    <rc><c>Si</c><c>   2</c></rc>
    <rc><c>Si</c><c>   2</c></rc>
    <rc><c>Si</c><c>   2</c></rc>
    <rc><c>Si</c><c>   2</c></rc>
    <rc><c>Si</c><c>   2</c></rc>
    <rc><c>Si</c><c>   2</c></rc>
    <rc><c>Si</c><c>   2</c></rc>
    <rc><c>Si</c><c>   2</c></rc>
    <rc><c>Si</c><c>   2</c></rc>
    <rc><c>Si</c><c>   2</c></rc>
    <rc><c>Si</c><c>   2</c></rc>
    <rc><c>Si</c><c>   2</c></rc>
    <rc><c>Si</c><c>   2</c></rc>
    <rc><c>Si</c><c>   2</c></rc>
    <rc><c>Si</c><c>   2</c></rc>
    <rc><c>Si</c><c>   2</c></rc>
    <rc><c>Si</c><c>   2</c></rc>
    <rc><c>Si</c><c>   2</c></rc>
    <rc><c>Si</c><c>   2</c></rc>
    <rc><c>Si</c><c>   2</c></rc>
    <rc><c>Si</c><c>   2</c></rc>
    <rc><c>Si</c><c>   2</c></rc>
    <rc><c>Si</c><c>   2</c></rc>
    <rc><c>Si</c><c>   2</c></rc>
    <rc><c>Si</c><c>   2</c></rc>
    <rc><c>Si</c><c>   2</c></rc>
    <rc><c>Si</c><c>   2</c></rc>
    <rc><c>Si</c><c>   2</c></rc>
    <rc><c>Si</c><c>   2</c></rc>
    <rc><c>Si</c><c>   2</c></rc>
    <rc><c>Si</c><c>   2</c></rc>
    <rc><c>Si</c><c>   2</c></rc>
    <rc><c>Si</c><c>   2</c></rc>
    <rc><c>Si</c><c>   2</c></rc>
    <rc><c>Si</c><c>   2</c></rc>
    <rc><c>Si</c><c>   2</c></rc>
    <rc><c>Si</c><c>   2</c></rc>
    <rc><c>Si</c><c>   2</c></rc>
    <rc><c>Si</c><c>   2</c></rc>
    <rc><c>Si</c><c>   2</c></rc>
    <rc><c>Si</c><c>   2</c></rc>
    <rc><c>Si</c><c>   2</c></rc>
    <rc><c>Si</c><c>   2</c></rc>
    <rc><c>Si</c><c>   2</c></rc>
    <rc><c>Si</c><c>   2</c></rc>
    <rc><c>Si</c><c>   2</c></rc>
    <rc><c>Si</c><c>   2</c></rc>
    <rc><c>Si</c><c>   2</c></rc>
    <rc><c>Si</c><c>   2</c></rc>
    <rc><c>Si</c><c>   2</c></rc>
    <rc><c>Si</c><c>   2</c></rc>
    <rc><c>Si</c><c>   2</c></rc>
    <rc><c>Si</c><c>   2</c></rc>
    <rc><c>Si</c><c>   2</c></rc>
    <rc><c>Si</c><c>   2</c></rc>
    <rc><c>Si</c><c>   2</c></rc>
   </set>
  </array>
  <array name="atomtypes" >
   <dimension dim="1">type</dimension>
   <field type="int">atomspertype</field>
   <field type="string">element</field>
   <field>mass</field>
   <field>valence</field>
   <field type="string">pseudopotential</field>
   <set>
    <rc><c>  60</c><c>Ba</c><c>    137.32700000</c><c>     10.00000000</c><c> PAW_PBE Ba_sv 06Sep2000                </c></rc>
    <rc><c> 120</c><c>Si</c><c>     28.08500000</c><c>      4.00000000</c><c> PAW_PBE Si 05Jan2001                   </c></rc>
   </set>
  </array>
 </atominfo>
 <structure name="initialpos" >
  <crystal>
   <varray name="basis" >
    <v>      81.85400242       0.00000000       0.00000000 </v>
    <v>       0.00000000       6.70101600       0.00000000 </v>
    <v>       0.00000000       0.00000000      11.47426244 </v>
   </varray>
   <i name="volume">   6293.69009459 </i>
   <varray name="rec_basis" >
    <v>       0.01221687       0.00000000       0.00000000 </v>
    <v>       0.00000000       0.14923110       0.00000000 </v>
    <v>       0.00000000       0.00000000       0.08715157 </v>
   </varray>
  </crystal>
  <varray name="positions" >
   <v>       0.00399910       0.25000000       0.70140655 </v>
   <v>       0.11102203       0.25000000       0.69051003 </v>
   <v>       0.22001400       0.25000000       0.69153018 </v>
   <v>       0.32903873       0.25000000       0.69140431 </v>
   <v>       0.43821195       0.25000000       0.69137781 </v>
   <v>       0.54727396       0.25000000       0.69154216 </v>
   <v>       0.65637893       0.25000000       0.69113573 </v>
   <v>       0.76672214       0.25000000       0.69311069 </v>
   <v>       0.10737751       0.75000002       0.30814372 </v>
   <v>       0.21655908       0.75000002       0.30849287 </v>
   <v>       0.32558001       0.75000002       0.30852015 </v>
   <v>       0.43471866       0.75000002       0.30852423 </v>
   <v>       0.54381740       0.75000002       0.30857722 </v>
   <v>       0.65288234       0.75000002       0.30853905 </v>
   <v>       0.76172406       0.75000002       0.30832174 </v>
   <v>       0.05161603       0.75000002       0.19311063 </v>
   <v>       0.16195924       0.75000002       0.19113567 </v>
   <v>       0.27106422       0.75000002       0.19154210 </v>
   <v>       0.38012623       0.75000002       0.19137775 </v>
   <v>       0.48929945       0.75000002       0.19140425 </v>
   <v>       0.59832418       0.75000002       0.19153011 </v>
   <v>       0.70731616       0.75000002       0.19050997 </v>
   <v>       0.81433909       0.75000002       0.20140649 </v>
   <v>       0.05661414       0.25000000       0.80832178 </v>
   <v>       0.16545585       0.25000000       0.80853909 </v>
   <v>       0.27452078       0.25000000       0.80857726 </v>
   <v>       0.38361952       0.25000000       0.80852427 </v>
   <v>       0.49275818       0.25000000       0.80852020 </v>
   <v>       0.60177910       0.25000000       0.80849291 </v>
   <v>       0.71096066       0.25000000       0.80814377 </v>
   <v>       0.02336729       0.75000002       0.91212039 </v>
   <v>       0.12695324       0.75000002       0.90570398 </v>
   <v>       0.23583743       0.75000002       0.90615746 </v>
   <v>       0.34483743       0.75000002       0.90586572 </v>
   <v>       0.45402493       0.75000002       0.90582015 </v>
   <v>       0.56309280       0.75000002       0.90617669 </v>
   <v>       0.67207676       0.75000002       0.90480132 </v>
   <v>       0.78065243       0.75000002       0.89587896 </v>
   <v>       0.09116665       0.25000000       0.09335982 </v>
   <v>       0.20071712       0.25000000       0.09395081 </v>
   <v>       0.30972654       0.25000000       0.09393346 </v>
   <v>       0.41890943       0.25000000       0.09428087 </v>
   <v>       0.52800515       0.25000000       0.09395578 </v>
   <v>       0.63702765       0.25000000       0.09371067 </v>
   <v>       0.74598735       0.25000000       0.09556894 </v>
   <v>       0.03768573       0.25000000       0.39587904 </v>
   <v>       0.14626139       0.25000000       0.40480140 </v>
   <v>       0.25524535       0.25000000       0.40617677 </v>
   <v>       0.36431323       0.25000000       0.40582023 </v>
   <v>       0.47350077       0.25000000       0.40586581 </v>
   <v>       0.58250077       0.25000000       0.40615754 </v>
   <v>       0.69138496       0.25000000       0.40570406 </v>
   <v>       0.79497086       0.25000000       0.41212047 </v>
   <v>       0.07235085       0.75000002       0.59556892 </v>
   <v>       0.18131055       0.75000002       0.59371065 </v>
   <v>       0.29033306       0.75000002       0.59395576 </v>
   <v>       0.39942875       0.75000002       0.59428085 </v>
   <v>       0.50861161       0.75000002       0.59393344 </v>
   <v>       0.61762103       0.75000002       0.59395079 </v>
   <v>       0.72717151       0.75000002       0.59335980 </v>
   <v>       0.01992652       0.07152308       0.14507561 </v>
   <v>       0.12997995       0.07022826       0.14563884 </v>
   <v>       0.23923539       0.07031189       0.14637498 </v>
   <v>       0.34822995       0.07027492       0.14601423 </v>
   <v>       0.45744718       0.07018230       0.14612969 </v>
   <v>       0.56649937       0.07029529       0.14647189 </v>
   <v>       0.67548250       0.07016835       0.14503988 </v>
   <v>       0.78446431       0.07135700       0.14232484 </v>
   <v>       0.08874719       0.93011940       0.85446957 </v>
   <v>       0.19734472       0.92973261       0.85368504 </v>
   <v>       0.30631429       0.92971789       0.85357380 </v>
   <v>       0.41551150       0.92982401       0.85408521 </v>
   <v>       0.52460136       0.92970944       0.85374708 </v>
   <v>       0.63358252       0.92975345       0.85349068 </v>
   <v>       0.74292673       0.93043144       0.85352297 </v>
   <v>       0.03387384       0.92864299       0.64232486 </v>
   <v>       0.14285569       0.92983164       0.64503990 </v>
   <v>       0.25183882       0.92970470       0.64647191 </v>
   <v>       0.36089100       0.92981769       0.64612971 </v>
   <v>       0.47010821       0.92972508       0.64601425 </v>
   <v>       0.57910277       0.92968810       0.64637500 </v>
   <v>       0.68835822       0.92977173       0.64563886 </v>
   <v>       0.79841164       0.92847691       0.64507563 </v>
   <v>       0.07541143       0.06956855       0.35352297 </v>
   <v>       0.18475564       0.07024654       0.35349068 </v>
   <v>       0.29373682       0.07029055       0.35374708 </v>
   <v>       0.40282668       0.07017598       0.35408521 </v>
   <v>       0.51202389       0.07028210       0.35357380 </v>
   <v>       0.62099348       0.07026738       0.35368504 </v>
   <v>       0.72959100       0.06988059       0.35446957 </v>
   <v>       0.08874719       0.56988060       0.85446957 </v>
   <v>       0.19734472       0.57026739       0.85368504 </v>
   <v>       0.30631429       0.57028211       0.85357380 </v>
   <v>       0.41551150       0.57017599       0.85408521 </v>
   <v>       0.52460136       0.57029056       0.85374708 </v>
   <v>       0.63358252       0.57024655       0.85349068 </v>
   <v>       0.74292673       0.56956856       0.85352297 </v>
   <v>       0.01992652       0.42847691       0.14507561 </v>
   <v>       0.12997995       0.42977173       0.14563884 </v>
   <v>       0.23923539       0.42968810       0.14637498 </v>
   <v>       0.34822995       0.42972508       0.14601423 </v>
   <v>       0.45744718       0.42981769       0.14612969 </v>
   <v>       0.56649937       0.42970470       0.14647189 </v>
   <v>       0.67548250       0.42983164       0.14503988 </v>
   <v>       0.78446431       0.42864299       0.14232484 </v>
   <v>       0.07541143       0.43043144       0.35352297 </v>
   <v>       0.18475564       0.42975345       0.35349068 </v>
   <v>       0.29373682       0.42970944       0.35374708 </v>
   <v>       0.40282668       0.42982401       0.35408521 </v>
   <v>       0.51202389       0.42971789       0.35357380 </v>
   <v>       0.62099348       0.42973261       0.35368504 </v>
   <v>       0.72959100       0.43011940       0.35446957 </v>
   <v>       0.03387384       0.57135701       0.64232486 </v>
   <v>       0.14285569       0.57016836       0.64503990 </v>
   <v>       0.25183882       0.57029530       0.64647191 </v>
   <v>       0.36089100       0.57018231       0.64612971 </v>
   <v>       0.47010821       0.57027492       0.64601425 </v>
   <v>       0.57910277       0.57031190       0.64637500 </v>
   <v>       0.68835822       0.57022827       0.64563886 </v>
   <v>       0.79841164       0.57152309       0.64507563 </v>
   <v>       0.00805153       0.75000002       0.61816695 </v>
   <v>       0.11830610       0.75000002       0.59102251 </v>
   <v>       0.22731403       0.75000002       0.59147445 </v>
   <v>       0.33636232       0.75000002       0.59154928 </v>
   <v>       0.44556875       0.75000002       0.59131038 </v>
   <v>       0.55457027       0.75000002       0.59158148 </v>
   <v>       0.66377711       0.75000002       0.59161304 </v>
   <v>       0.77339687       0.75000002       0.58263312 </v>
   <v>       0.09986119       0.25000000       0.40832522 </v>
   <v>       0.20928292       0.25000000       0.40834594 </v>
   <v>       0.31827134       0.25000000       0.40841480 </v>
   <v>       0.42737607       0.25000000       0.40838325 </v>
   <v>       0.53655194       0.25000000       0.40844107 </v>
   <v>       0.64552628       0.25000000       0.40839105 </v>
   <v>       0.75395270       0.25000000       0.40920058 </v>
   <v>       0.04494130       0.25000000       0.08263306 </v>
   <v>       0.15456106       0.25000000       0.09161298 </v>
   <v>       0.26376789       0.25000000       0.09158141 </v>
   <v>       0.37276941       0.25000000       0.09131031 </v>
   <v>       0.48197589       0.25000000       0.09154922 </v>
   <v>       0.59102418       0.25000000       0.09147438 </v>
   <v>       0.70003209       0.25000000       0.09102245 </v>
   <v>       0.81028666       0.25000000       0.11816689 </v>
   <v>       0.06438549       0.75000002       0.90920062 </v>
   <v>       0.17281192       0.75000002       0.90839109 </v>
   <v>       0.28178627       0.75000002       0.90844111 </v>
   <v>       0.39096211       0.75000002       0.90838329 </v>
   <v>       0.50006682       0.75000002       0.90841484 </v>
   <v>       0.60905524       0.75000002       0.90834598 </v>
   <v>       0.71847698       0.75000002       0.90832526 </v>
   <v>       0.02014524       0.25000000       0.96255028 </v>
   <v>       0.13049984       0.25000000       0.96397260 </v>
   <v>       0.23963577       0.25000000       0.96456332 </v>
   <v>       0.34866797       0.25000000       0.96418267 </v>
   <v>       0.45786908       0.25000000       0.96438890 </v>
   <v>       0.56687857       0.25000000       0.96462910 </v>
   <v>       0.67597735       0.25000000       0.96327408 </v>
   <v>       0.79001491       0.25000000       0.96219119 </v>
   <v>       0.08788767       0.75000002       0.03701720 </v>
   <v>       0.19692092       0.75000002       0.03552611 </v>
   <v>       0.30593751       0.75000002       0.03532628 </v>
   <v>       0.41503034       0.75000002       0.03581895 </v>
   <v>       0.52419527       0.75000002       0.03554595 </v>
   <v>       0.63319902       0.75000002       0.03528303 </v>
   <v>       0.74250795       0.75000002       0.03555582 </v>
   <v>       0.02832321       0.75000002       0.46219111 </v>
   <v>       0.14236080       0.75000002       0.46327400 </v>
   <v>       0.25145959       0.75000002       0.46462902 </v>
   <v>       0.36046908       0.75000002       0.46438882 </v>
   <v>       0.46967023       0.75000002       0.46418259 </v>
   <v>       0.57870243       0.75000002       0.46456324 </v>
   <v>       0.68783836       0.75000002       0.46397252 </v>
   <v>       0.79819295       0.75000002       0.46255020 </v>
   <v>       0.07583025       0.25000000       0.53555580 </v>
   <v>       0.18513918       0.25000000       0.53528301 </v>
   <v>       0.29414294       0.25000000       0.53554593 </v>
   <v>       0.40330784       0.25000000       0.53581893 </v>
   <v>       0.51240065       0.25000000       0.53532626 </v>
   <v>       0.62141724       0.25000000       0.53552610 </v>
   <v>       0.73045050       0.25000000       0.53701719 </v>
  </varray>
 </structure>
 <calculation>
  <scstep>
   <time name="dav">  327.95  328.73</time>
   <time name="total">  332.95  333.75</time>
   <energy>
    <i name="alphaZ">   2876.37826395 </i>
    <i name="ewald"> 262817.98293019 </i>
    <i name="hartreedc">-315884.28423450 </i>
    <i name="XCdc">    367.24394511 </i>
    <i name="pawpsdc">  28995.71141140 </i>
    <i name="pawaedc"> -26787.88183293 </i>
    <i name="eentropy">     -0.00259183 </i>
    <i name="bandstr">    249.42126678 </i>
    <i name="atom">  54518.63590606 </i>
    <i name="e_fr_energy">   7153.20506423 </i>
    <i name="e_wo_entrp">   7153.20765606 </i>
    <i name="e_0_energy">   7153.20636015 </i>
   </energy>
  </scstep>
  <scstep>
   <time name="dav">  414.48  415.46</time>
   <time name="total">  414.50  415.48</time>
   <energy>
    <i name="e_fr_energy">    151.18079845 </i>
    <i name="e_wo_entrp">    151.18235782 </i>
    <i name="e_0_energy">    151.18157814 </i>
   </energy>
  </scstep>
  <scstep>
   <time name="dav">  391.14  392.07</time>
   <time name="total">  391.16  392.08</time>
   <energy>
    <i name="e_fr_energy">   -678.03475438 </i>
    <i name="e_wo_entrp">   -678.03475438 </i>
    <i name="e_0_energy">   -678.03475438 </i>
   </energy>
  </scstep>
  <scstep>
   <time name="dav">  450.63  451.69</time>
   <time name="total">  450.64  451.71</time>
   <energy>
    <i name="e_fr_energy">   -722.38833971 </i>
    <i name="e_wo_entrp">   -722.38833971 </i>
    <i name="e_0_energy">   -722.38833971 </i>
   </energy>
  </scstep>
  <scstep>
   <time name="dav">  473.46  474.58</time>
   <time name="total">  473.47  474.59</time>
   <energy>
    <i name="e_fr_energy">   -724.28848545 </i>
    <i name="e_wo_entrp">   -724.28848545 </i>
    <i name="e_0_energy">   -724.28848545 </i>
   </energy>
  </scstep>
  <scstep>
   <time name="dav">  441.99  443.04</time>
   <time name="total">  442.00  443.05</time>
   <energy>
    <i name="e_fr_energy">   -724.34879961 </i>
    <i name="e_wo_entrp">   -724.34879961 </i>
    <i name="e_0_energy">   -724.34879961 </i>
   </energy>
  </scstep>
  <scstep>
   <time name="dav">  471.41  472.52</time>
   <time name="total">  471.43  472.54</time>
   <energy>
    <i name="e_fr_energy">   -724.35112507 </i>
    <i name="e_wo_entrp">   -724.35112507 </i>
    <i name="e_0_energy">   -724.35112507 </i>
   </energy>
  </scstep>
  <scstep>
   <time name="dav">  438.90  439.93</time>
   <time name="total">  438.91  439.95</time>
   <energy>
    <i name="e_fr_energy">   -724.35122141 </i>
    <i name="e_wo_entrp">   -724.35122141 </i>
    <i name="e_0_energy">   -724.35122141 </i>
   </energy>
  </scstep>
  <scstep>
   <time name="dav">  395.46  396.39</time>
   <time name="total">  395.47  396.41</time>
   <energy>
    <i name="e_fr_energy">   -724.35122632 </i>
    <i name="e_wo_entrp">   -724.35122632 </i>
    <i name="e_0_energy">   -724.35122632 </i>
   </energy>
  </scstep>
  <scstep>
   <time name="dav">  281.04  281.71</time>
   <time name="total">  281.06  281.72</time>
   <energy>
    <i name="alphaZ">   2876.37826395 </i>
    <i name="ewald"> 262817.98293019 </i>
    <i name="hartreedc">-315884.28423450 </i>
    <i name="XCdc">    367.24394511 </i>
    <i name="pawpsdc">  28995.71141140 </i>
    <i name="pawaedc"> -26787.88183293 </i>
    <i name="eentropy">     -0.00000000 </i>
    <i name="bandstr">  -7628.13761583 </i>
    <i name="atom">  54518.63590606 </i>
    <i name="e_fr_energy">   -724.35122655 </i>
    <i name="e_wo_entrp">   -724.35122655 </i>
    <i name="e_0_energy">   -724.35122655 </i>
   </energy>
  </scstep>
  <structure>
   <crystal>
    <varray name="basis" >
     <v>      81.85400242       0.00000000       0.00000000 </v>
     <v>       0.00000000       6.70101600       0.00000000 </v>
     <v>       0.00000000       0.00000000      11.47426244 </v>
    </varray>
    <i name="volume">   6293.69009459 </i>
    <varray name="rec_basis" >
     <v>       0.01221687       0.00000000       0.00000000 </v>
     <v>       0.00000000       0.14923110       0.00000000 </v>
     <v>       0.00000000       0.00000000       0.08715157 </v>
    </varray>
   </crystal>
   <varray name="positions" >
    <v>       0.00399910       0.25000000       0.70140655 </v>
    <v>       0.11102203       0.25000000       0.69051003 </v>
    <v>       0.22001400       0.25000000       0.69153018 </v>
    <v>       0.32903873       0.25000000       0.69140431 </v>
    <v>       0.43821195       0.25000000       0.69137781 </v>
    <v>       0.54727396       0.25000000       0.69154216 </v>
    <v>       0.65637893       0.25000000       0.69113573 </v>
    <v>       0.76672214       0.25000000       0.69311069 </v>
    <v>       0.10737751       0.75000002       0.30814372 </v>
    <v>       0.21655908       0.75000002       0.30849287 </v>
    <v>       0.32558001       0.75000002       0.30852015 </v>
    <v>       0.43471866       0.75000002       0.30852423 </v>
    <v>       0.54381740       0.75000002       0.30857722 </v>
    <v>       0.65288234       0.75000002       0.30853905 </v>
    <v>       0.76172406       0.75000002       0.30832174 </v>
    <v>       0.05161603       0.75000002       0.19311063 </v>
    <v>       0.16195924       0.75000002       0.19113567 </v>
    <v>       0.27106422       0.75000002       0.19154210 </v>
    <v>       0.38012623       0.75000002       0.19137775 </v>
    <v>       0.48929945       0.75000002       0.19140425 </v>
    <v>       0.59832418       0.75000002       0.19153011 </v>
    <v>       0.70731616       0.75000002       0.19050997 </v>
    <v>       0.81433909       0.75000002       0.20140649 </v>
    <v>       0.05661414       0.25000000       0.80832178 </v>
    <v>       0.16545585       0.25000000       0.80853909 </v>
    <v>       0.27452078       0.25000000       0.80857726 </v>
    <v>       0.38361952       0.25000000       0.80852427 </v>
    <v>       0.49275818       0.25000000       0.80852020 </v>
    <v>       0.60177910       0.25000000       0.80849291 </v>
    <v>       0.71096066       0.25000000       0.80814377 </v>
    <v>       0.02336729       0.75000002       0.91212039 </v>
    <v>       0.12695324       0.75000002       0.90570398 </v>
    <v>       0.23583743       0.75000002       0.90615746 </v>
    <v>       0.34483743       0.75000002       0.90586572 </v>
    <v>       0.45402493       0.75000002       0.90582015 </v>
    <v>       0.56309280       0.75000002       0.90617669 </v>
    <v>       0.67207676       0.75000002       0.90480132 </v>
    <v>       0.78065243       0.75000002       0.89587896 </v>
    <v>       0.09116665       0.25000000       0.09335982 </v>
    <v>       0.20071712       0.25000000       0.09395081 </v>
    <v>       0.30972654       0.25000000       0.09393346 </v>
    <v>       0.41890943       0.25000000       0.09428087 </v>
    <v>       0.52800515       0.25000000       0.09395578 </v>
    <v>       0.63702765       0.25000000       0.09371067 </v>
    <v>       0.74598735       0.25000000       0.09556894 </v>
    <v>       0.03768573       0.25000000       0.39587904 </v>
    <v>       0.14626139       0.25000000       0.40480140 </v>
    <v>       0.25524535       0.25000000       0.40617677 </v>
    <v>       0.36431323       0.25000000       0.40582023 </v>
    <v>       0.47350077       0.25000000       0.40586581 </v>
    <v>       0.58250077       0.25000000       0.40615754 </v>
    <v>       0.69138496       0.25000000       0.40570406 </v>
    <v>       0.79497086       0.25000000       0.41212047 </v>
    <v>       0.07235085       0.75000002       0.59556892 </v>
    <v>       0.18131055       0.75000002       0.59371065 </v>
    <v>       0.29033306       0.75000002       0.59395576 </v>
    <v>       0.39942875       0.75000002       0.59428085 </v>
    <v>       0.50861161       0.75000002       0.59393344 </v>
    <v>       0.61762103       0.75000002       0.59395079 </v>
    <v>       0.72717151       0.75000002       0.59335980 </v>
    <v>       0.01992652       0.07152308       0.14507561 </v>
    <v>       0.12997995       0.07022826       0.14563884 </v>
    <v>       0.23923539       0.07031189       0.14637498 </v>
    <v>       0.34822995       0.07027492       0.14601423 </v>
    <v>       0.45744718       0.07018230       0.14612969 </v>
    <v>       0.56649937       0.07029529       0.14647189 </v>
    <v>       0.67548250       0.07016835       0.14503988 </v>
    <v>       0.78446431       0.07135700       0.14232484 </v>
    <v>       0.08874719       0.93011940       0.85446957 </v>
    <v>       0.19734472       0.92973261       0.85368504 </v>
    <v>       0.30631429       0.92971789       0.85357380 </v>
    <v>       0.41551150       0.92982401       0.85408521 </v>
    <v>       0.52460136       0.92970944       0.85374708 </v>
    <v>       0.63358252       0.92975345       0.85349068 </v>
    <v>       0.74292673       0.93043144       0.85352297 </v>
    <v>       0.03387384       0.92864299       0.64232486 </v>
    <v>       0.14285569       0.92983164       0.64503990 </v>
    <v>       0.25183882       0.92970470       0.64647191 </v>
    <v>       0.36089100       0.92981769       0.64612971 </v>
    <v>       0.47010821       0.92972508       0.64601425 </v>
    <v>       0.57910277       0.92968810       0.64637500 </v>
    <v>       0.68835822       0.92977173       0.64563886 </v>
    <v>       0.79841164       0.92847691       0.64507563 </v>
    <v>       0.07541143       0.06956855       0.35352297 </v>
    <v>       0.18475564       0.07024654       0.35349068 </v>
    <v>       0.29373682       0.07029055       0.35374708 </v>
    <v>       0.40282668       0.07017598       0.35408521 </v>
    <v>       0.51202389       0.07028210       0.35357380 </v>
    <v>       0.62099348       0.07026738       0.35368504 </v>
    <v>       0.72959100       0.06988059       0.35446957 </v>
    <v>       0.08874719       0.56988060       0.85446957 </v>
    <v>       0.19734472       0.57026739       0.85368504 </v>
    <v>       0.30631429       0.57028211       0.85357380 </v>
    <v>       0.41551150       0.57017599       0.85408521 </v>
    <v>       0.52460136       0.57029056       0.85374708 </v>
    <v>       0.63358252       0.57024655       0.85349068 </v>
    <v>       0.74292673       0.56956856       0.85352297 </v>
    <v>       0.01992652       0.42847691       0.14507561 </v>
    <v>       0.12997995       0.42977173       0.14563884 </v>
    <v>       0.23923539       0.42968810       0.14637498 </v>
    <v>       0.34822995       0.42972508       0.14601423 </v>
    <v>       0.45744718       0.42981769       0.14612969 </v>
    <v>       0.56649937       0.42970470       0.14647189 </v>
    <v>       0.67548250       0.42983164       0.14503988 </v>
    <v>       0.78446431       0.42864299       0.14232484 </v>
    <v>       0.07541143       0.43043144       0.35352297 </v>
    <v>       0.18475564       0.42975345       0.35349068 </v>
    <v>       0.29373682       0.42970944       0.35374708 </v>
    <v>       0.40282668       0.42982401       0.35408521 </v>
    <v>       0.51202389       0.42971789       0.35357380 </v>
    <v>       0.62099348       0.42973261       0.35368504 </v>
    <v>       0.72959100       0.43011940       0.35446957 </v>
    <v>       0.03387384       0.57135701       0.64232486 </v>
    <v>       0.14285569       0.57016836       0.64503990 </v>
    <v>       0.25183882       0.57029530       0.64647191 </v>
    <v>       0.36089100       0.57018231       0.64612971 </v>
    <v>       0.47010821       0.57027492       0.64601425 </v>
    <v>       0.57910277       0.57031190       0.64637500 </v>
    <v>       0.68835822       0.57022827       0.64563886 </v>
    <v>       0.79841164       0.57152309       0.64507563 </v>
    <v>       0.00805153       0.75000002       0.61816695 </v>
    <v>       0.11830610       0.75000002       0.59102251 </v>
    <v>       0.22731403       0.75000002       0.59147445 </v>
    <v>       0.33636232       0.75000002       0.59154928 </v>
    <v>       0.44556875       0.75000002       0.59131038 </v>
    <v>       0.55457027       0.75000002       0.59158148 </v>
    <v>       0.66377711       0.75000002       0.59161304 </v>
    <v>       0.77339687       0.75000002       0.58263312 </v>
    <v>       0.09986119       0.25000000       0.40832522 </v>
    <v>       0.20928292       0.25000000       0.40834594 </v>
    <v>       0.31827134       0.25000000       0.40841480 </v>
    <v>       0.42737607       0.25000000       0.40838325 </v>
    <v>       0.53655194       0.25000000       0.40844107 </v>
    <v>       0.64552628       0.25000000       0.40839105 </v>
    <v>       0.75395270       0.25000000       0.40920058 </v>
    <v>       0.04494130       0.25000000       0.08263306 </v>
    <v>       0.15456106       0.25000000       0.09161298 </v>
    <v>       0.26376789       0.25000000       0.09158141 </v>
    <v>       0.37276941       0.25000000       0.09131031 </v>
    <v>       0.48197589       0.25000000       0.09154922 </v>
    <v>       0.59102418       0.25000000       0.09147438 </v>
    <v>       0.70003209       0.25000000       0.09102245 </v>
    <v>       0.81028666       0.25000000       0.11816689 </v>
    <v>       0.06438549       0.75000002       0.90920062 </v>
    <v>       0.17281192       0.75000002       0.90839109 </v>
    <v>       0.28178627       0.75000002       0.90844111 </v>
    <v>       0.39096211       0.75000002       0.90838329 </v>
    <v>       0.50006682       0.75000002       0.90841484 </v>
    <v>       0.60905524       0.75000002       0.90834598 </v>
    <v>       0.71847698       0.75000002       0.90832526 </v>
    <v>       0.02014524       0.25000000       0.96255028 </v>
    <v>       0.13049984       0.25000000       0.96397260 </v>
    <v>       0.23963577       0.25000000       0.96456332 </v>
    <v>       0.34866797       0.25000000       0.96418267 </v>
    <v>       0.45786908       0.25000000       0.96438890 </v>
    <v>       0.56687857       0.25000000       0.96462910 </v>
    <v>       0.67597735       0.25000000       0.96327408 </v>
    <v>       0.79001491       0.25000000       0.96219119 </v>
    <v>       0.08788767       0.75000002       0.03701720 </v>
    <v>       0.19692092       0.75000002       0.03552611 </v>
    <v>       0.30593751       0.75000002       0.03532628 </v>
    <v>       0.41503034       0.75000002       0.03581895 </v>
    <v>       0.52419527       0.75000002       0.03554595 </v>
    <v>       0.63319902       0.75000002       0.03528303 </v>
    <v>       0.74250795       0.75000002       0.03555582 </v>
    <v>       0.02832321       0.75000002       0.46219111 </v>
    <v>       0.14236080       0.75000002       0.46327400 </v>
    <v>       0.25145959       0.75000002       0.46462902 </v>
    <v>       0.36046908       0.75000002       0.46438882 </v>
    <v>       0.46967023       0.75000002       0.46418259 </v>
    <v>       0.57870243       0.75000002       0.46456324 </v>
    <v>       0.68783836       0.75000002       0.46397252 </v>
    <v>       0.79819295       0.75000002       0.46255020 </v>
    <v>       0.07583025       0.25000000       0.53555580 </v>
    <v>       0.18513918       0.25000000       0.53528301 </v>
    <v>       0.29414294       0.25000000       0.53554593 </v>
    <v>       0.40330784       0.25000000       0.53581893 </v>
    <v>       0.51240065       0.25000000       0.53532626 </v>
    <v>       0.62141724       0.25000000       0.53552610 </v>
    <v>       0.73045050       0.25000000       0.53701719 </v>
   </varray>
  </structure>
  <varray name="forces" >
   <v>       0.02163511      -0.00000000      -0.02853727 </v>
   <v>       0.03399868      -0.00000000      -0.01984974 </v>
   <v>       0.03306931      -0.00000000      -0.02585806 </v>
   <v>       0.03538680      -0.00000000      -0.02258783 </v>
   <v>       0.03818857      -0.00000000      -0.01484999 </v>
   <v>       0.03548521      -0.00000000      -0.02214136 </v>
   <v>       0.03372361      -0.00000000      -0.02215741 </v>
   <v>       0.05626188      -0.00000000      -0.02168260 </v>
   <v>      -0.03767272      -0.00000000       0.01764053 </v>
   <v>      -0.03476876      -0.00000000       0.02377424 </v>
   <v>      -0.03840143      -0.00000000       0.01915212 </v>
   <v>      -0.03420836      -0.00000000       0.02280207 </v>
   <v>      -0.03281453      -0.00000000       0.01938419 </v>
   <v>      -0.03888725      -0.00000000       0.01744296 </v>
   <v>      -0.04382128      -0.00000000       0.01385038 </v>
   <v>      -0.05626188      -0.00000000      -0.02168260 </v>
   <v>      -0.03372361      -0.00000000      -0.02215741 </v>
   <v>      -0.03548521      -0.00000000      -0.02214136 </v>
   <v>      -0.03818857      -0.00000000      -0.01484999 </v>
   <v>      -0.03538680      -0.00000000      -0.02258783 </v>
   <v>      -0.03306931      -0.00000000      -0.02585806 </v>
   <v>      -0.03399868      -0.00000000      -0.01984974 </v>
   <v>      -0.02163511      -0.00000000      -0.02853727 </v>
   <v>       0.04382128      -0.00000000       0.01385038 </v>
   <v>       0.03888725      -0.00000000       0.01744296 </v>
   <v>       0.03281453      -0.00000000       0.01938419 </v>
   <v>       0.03420836      -0.00000000       0.02280207 </v>
   <v>       0.03840143      -0.00000000       0.01915212 </v>
   <v>       0.03476876      -0.00000000       0.02377424 </v>
   <v>       0.03767272      -0.00000000       0.01764053 </v>
   <v>       0.01109762      -0.00000000      -0.01153528 </v>
   <v>       0.00836950      -0.00000000       0.02717402 </v>
   <v>       0.01368278      -0.00000000       0.02738406 </v>
   <v>       0.01646460      -0.00000000       0.02541118 </v>
   <v>       0.01650580      -0.00000000       0.02731938 </v>
   <v>       0.01292796      -0.00000000       0.02679562 </v>
   <v>       0.01210835      -0.00000000       0.02817135 </v>
   <v>       0.01726700      -0.00000000       0.02397055 </v>
   <v>      -0.01393779      -0.00000000      -0.02601770 </v>
   <v>      -0.01230733      -0.00000000      -0.02828821 </v>
   <v>      -0.01143184      -0.00000000      -0.02887795 </v>
   <v>      -0.01334803      -0.00000000      -0.02819289 </v>
   <v>      -0.01134819      -0.00000000      -0.02932615 </v>
   <v>      -0.01703789      -0.00000000      -0.02659320 </v>
   <v>      -0.01340483      -0.00000000      -0.02460331 </v>
[...]
       <r>   -11.7694     0.0000   120.0000 </r>
       <r>   -11.6537     3.4822   120.4029 </r>
       <r>   -11.5379    34.5720   128.0001 </r>
       <r>   -11.4222    19.0139   132.0000 </r>
       <r>   -11.3065     0.0000   132.0000 </r>
       <r>   -11.1908     0.0000   132.0000 </r>
       <r>   -11.0751     0.0000   132.0000 </r>
       <r>   -10.9594     0.0000   132.0000 </r>
       <r>   -10.8437    40.7073   136.7100 </r>
       <r>   -10.7280   317.1472   189.3454 </r>
       <r>   -10.6123   471.5703   266.4129 </r>
       <r>   -10.4966   373.0794   333.0171 </r>
       <r>   -10.3809   850.4550   458.1517 </r>
       <r>   -10.2652     0.0000   480.0000 </r>
       <r>   -10.1495     0.0000   480.0000 </r>
       <r>   -10.0338     0.0000   480.0000 </r>
       <r>    -9.9181     0.0000   480.0000 </r>
       <r>    -9.8024     0.0000   480.0000 </r>
       <r>    -9.6867     0.0000   480.0000 </r>
       <r>    -9.5710     0.0000   480.0000 </r>
       <r>    -9.4553     0.0000   480.0000 </r>
       <r>    -9.3396     0.0000   480.0000 </r>
       <r>    -9.2239     0.0000   480.0000 </r>
       <r>    -9.1081     0.0000   480.0000 </r>
       <r>    -8.9924     0.0000   480.0000 </r>
       <r>    -8.8767     0.0000   480.0000 </r>
       <r>    -8.7610     0.0000   480.0000 </r>
       <r>    -8.6453     0.0000   480.0000 </r>
       <r>    -8.5296     0.0000   480.0000 </r>
       <r>    -8.4139    12.9800   481.5018 </r>
       <r>    -8.2982    31.8832   486.0890 </r>
       <r>    -8.1825   212.7678   513.5932 </r>
       <r>    -8.0668    15.1247   536.0000 </r>
       <r>    -7.9511     0.0000   536.0000 </r>
       <r>    -7.8354     0.3967   536.0459 </r>
       <r>    -7.7197    19.6619   540.0000 </r>
       <r>    -7.6040     0.0000   540.0000 </r>
       <r>    -7.4883     0.0000   540.0000 </r>
       <r>    -7.3726     0.0000   540.0000 </r>
       <r>    -7.2569     0.0000   540.0000 </r>
       <r>    -7.1412     0.0000   540.0000 </r>
       <r>    -7.0255     0.0000   540.0000 </r>
       <r>    -6.9098     0.0000   540.0000 </r>
       <r>    -6.7941     0.0000   540.0000 </r>
       <r>    -6.6783     0.0000   540.0000 </r>
       <r>    -6.5626     0.0000   540.0000 </r>
       <r>    -6.4469     0.0000   540.0000 </r>
       <r>    -6.3312     0.0000   540.0000 </r>
       <r>    -6.2155     0.0000   540.0000 </r>
       <r>    -6.0998     0.0000   540.0000 </r>
       <r>    -5.9841     0.0000   540.0000 </r>
       <r>    -5.8684     0.0000   540.0000 </r>
       <r>    -5.7527     0.0000   540.0000 </r>
       <r>    -5.6370     0.0000   540.0000 </r>
       <r>    -5.5213     0.0000   540.0000 </r>
       <r>    -5.4056     0.0000   540.0000 </r>
       <r>    -5.2899     0.0000   540.0000 </r>
       <r>    -5.1742     0.0000   540.0000 </r>
       <r>    -5.0585     0.0000   540.0000 </r>
       <r>    -4.9428     0.0000   540.0000 </r>
       <r>    -4.8271     0.0000   540.0000 </r>
       <r>    -4.7114     0.0000   540.0000 </r>
       <r>    -4.5957     0.0000   540.0000 </r>
       <r>    -4.4800     0.0000   540.0000 </r>
       <r>    -4.3643     0.0000   540.0000 </r>
       <r>    -4.2485     0.0000   540.0000 </r>
       <r>    -4.1328     0.0000   540.0000 </r>
       <r>    -4.0171     0.0000   540.0000 </r>
       <r>    -3.9014     0.0000   540.0000 </r>
       <r>    -3.7857   111.5522   553.4571 </r>
       <r>    -3.6700   118.0562   575.8347 </r>
       <r>    -3.5543    67.7363   588.4874 </r>
       <r>    -3.4386   137.4352   608.7019 </r>
       <r>    -3.3229   272.6855   655.6010 </r>
       <r>    -3.2072   215.6410   692.4757 </r>
       <r>    -3.0915    83.2903   708.0371 </r>
       <r>    -2.9758    33.4565   713.6711 </r>
       <r>    -2.8601    22.3829   718.1398 </r>
       <r>    -2.7444    13.8283   720.0000 </r>
       <r>    -2.6287     0.0000   720.0000 </r>
       <r>    -2.5130     0.0000   720.0000 </r>
       <r>    -2.3973     0.0000   720.0000 </r>
       <r>    -2.2816     0.0000   720.0000 </r>
       <r>    -2.1659     0.0000   720.0000 </r>
       <r>    -2.0502     0.0000   720.0000 </r>
       <r>    -1.9345     0.0000   720.0000 </r>
       <r>    -1.8187     0.0000   720.0000 </r>
       <r>    -1.7030     0.0000   720.0000 </r>
       <r>    -1.5873     0.0000   720.0000 </r>
       <r>    -1.4716     0.0000   720.0000 </r>
       <r>    -1.3559     0.0000   720.0000 </r>
       <r>    -1.2402     0.8721   720.1009 </r>
       <r>    -1.1245     3.5077   720.6059 </r>
       <r>    -1.0088     3.9706   721.3344 </r>
       <r>    -0.8931     4.7955   722.1049 </r>
       <r>    -0.7774     5.3756   722.9970 </r>
       <r>    -0.6617     6.5469   724.0575 </r>
       <r>    -0.5460    13.4560   726.3069 </r>
       <r>    -0.4303    15.9028   729.0400 </r>
       <r>    -0.3146    16.5361   732.0633 </r>
       <r>    -0.1989    56.7409   739.9652 </r>
       <r>    -0.0832    83.3469   752.5436 </r>
       <r>     0.0325    88.2350   767.4092 </r>
       <r>     0.1482    83.9914   781.2182 </r>
       <r>     0.2639    84.2193   794.2196 </r>
       <r>     0.3796    75.0049   807.2784 </r>
       <r>     0.4953    88.9821   821.6207 </r>
       <r>     0.6111    88.3776   836.8757 </r>
       <r>     0.7268   154.5345   862.0804 </r>
       <r>     0.8425   156.5854   887.1927 </r>
       <r>     0.9582   140.6935   910.1539 </r>
       <r>     1.0739   131.8822   933.1094 </r>
       <r>     1.1896    97.4392   951.7992 </r>
       <r>     1.3053   116.3216   970.5340 </r>
       <r>     1.4210   170.7916  1000.0114 </r>
       <r>     1.5367    54.4573  1011.2260 </r>
       <r>     1.6524    70.5760  1023.4660 </r>
       <r>     1.7681    85.8488  1039.9081 </r>
       <r>     1.8838    85.8409  1053.5822 </r>
       <r>     1.9995    72.8594  1066.3552 </r>
       <r>     2.1152    72.3546  1078.4218 </r>
       <r>     2.2309     3.8573  1079.7963 </r>
       <r>     2.3466     0.8643  1080.0000 </r>
       <r>     2.4623     0.0000  1080.0000 </r>
       <r>     2.5780     0.0000  1080.0000 </r>
       <r>     2.6937     0.0000  1080.0000 </r>
       <r>     2.8094     0.0000  1080.0000 </r>
       <r>     2.9251     0.0000  1080.0000 </r>
       <r>     3.0409     8.5408  1080.9882 </r>
       <r>     3.1566    47.5715  1088.3042 </r>
       <r>     3.2723    57.8594  1098.1446 </r>
       <r>     3.3880    70.0655  1109.5569 </r>
       <r>     3.5037    67.8809  1120.6791 </r>
       <r>     3.6194    84.6968  1135.2998 </r>
       <r>     3.7351    74.4348  1148.1875 </r>
       <r>     3.8508    76.0882  1161.7038 </r>
       <r>     3.9665    84.0732  1175.5027 </r>
       <r>     4.0822    72.6805  1188.8095 </r>
       <r>     4.1979    73.7718  1200.6857 </r>
       <r>     4.3136    86.9776  1215.1387 </r>
       <r>     4.4293    89.3462  1230.0628 </r>
       <r>     4.5450    68.8565  1241.6920 </r>
       <r>     4.6607    91.3215  1255.5413 </r>
       <r>     4.7764    87.0222  1270.4189 </r>
       <r>     4.8921    81.8466  1284.1200 </r>
       <r>     5.0078    40.4716  1291.8828 </r>
       <r>     5.1235    15.3240  1294.9981 </r>
       <r>     5.2392     4.7186  1295.9210 </r>
       <r>     5.3549     0.2161  1296.0000 </r>
       <r>     5.4707     0.0000  1296.0000 </r>
       <r>     5.5864     0.0000  1296.0000 </r>
       <r>     5.7021     0.0000  1296.0000 </r>
       <r>     5.8178     0.0000  1296.0000 </r>
       <r>     5.9335     0.0000  1296.0000 </r>
       <r>     6.0492     0.0000  1296.0000 </r>
       <r>     6.1649     0.0000  1296.0000 </r>
       <r>     6.2806     0.0000  1296.0000 </r>
       <r>     6.3963     0.0000  1296.0000 </r>
       <r>     6.5120     0.0000  1296.0000 </r>
       <r>     6.6277     0.0000  1296.0000 </r>
       <r>     6.7434     0.0000  1296.0000 </r>
       <r>     6.8591     0.0000  1296.0000 </r>
      </set>
     </set>
    </array>
   </total>
  </dos>
 </calculation>
 <structure name="finalpos" >
  <crystal>
   <varray name="basis" >
    <v>      81.85400242       0.00000000       0.00000000 </v>
    <v>       0.00000000       6.70101600       0.00000000 </v>
    <v>       0.00000000       0.00000000      11.47426244 </v>
   </varray>
   <i name="volume">   6293.69009459 </i>
   <varray name="rec_basis" >
    <v>       0.01221687       0.00000000       0.00000000 </v>
    <v>       0.00000000       0.14923110       0.00000000 </v>
    <v>       0.00000000       0.00000000       0.08715157 </v>
   </varray>
  </crystal>
  <varray name="positions" >
   <v>       0.00399910       0.25000000       0.70140655 </v>
   <v>       0.11102203       0.25000000       0.69051003 </v>
   <v>       0.22001400       0.25000000       0.69153018 </v>
   <v>       0.32903873       0.25000000       0.69140431 </v>
   <v>       0.43821195       0.25000000       0.69137781 </v>
   <v>       0.54727396       0.25000000       0.69154216 </v>
   <v>       0.65637893       0.25000000       0.69113573 </v>
   <v>       0.76672214       0.25000000       0.69311069 </v>
   <v>       0.10737751       0.75000002       0.30814372 </v>
   <v>       0.21655908       0.75000002       0.30849287 </v>
   <v>       0.32558001       0.75000002       0.30852015 </v>
   <v>       0.43471866       0.75000002       0.30852423 </v>
   <v>       0.54381740       0.75000002       0.30857722 </v>
   <v>       0.65288234       0.75000002       0.30853905 </v>
   <v>       0.76172406       0.75000002       0.30832174 </v>
   <v>       0.05161603       0.75000002       0.19311063 </v>
   <v>       0.16195924       0.75000002       0.19113567 </v>
   <v>       0.27106422       0.75000002       0.19154210 </v>
   <v>       0.38012623       0.75000002       0.19137775 </v>
   <v>       0.48929945       0.75000002       0.19140425 </v>
   <v>       0.59832418       0.75000002       0.19153011 </v>
   <v>       0.70731616       0.75000002       0.19050997 </v>
   <v>       0.81433909       0.75000002       0.20140649 </v>
   <v>       0.05661414       0.25000000       0.80832178 </v>
   <v>       0.16545585       0.25000000       0.80853909 </v>
   <v>       0.27452078       0.25000000       0.80857726 </v>
   <v>       0.38361952       0.25000000       0.80852427 </v>
   <v>       0.49275818       0.25000000       0.80852020 </v>
   <v>       0.60177910       0.25000000       0.80849291 </v>
   <v>       0.71096066       0.25000000       0.80814377 </v>
   <v>       0.02336729       0.75000002       0.91212039 </v>
   <v>       0.12695324       0.75000002       0.90570398 </v>
   <v>       0.23583743       0.75000002       0.90615746 </v>
   <v>       0.34483743       0.75000002       0.90586572 </v>
   <v>       0.45402493       0.75000002       0.90582015 </v>
   <v>       0.56309280       0.75000002       0.90617669 </v>
   <v>       0.67207676       0.75000002       0.90480132 </v>
   <v>       0.78065243       0.75000002       0.89587896 </v>
   <v>       0.09116665       0.25000000       0.09335982 </v>
   <v>       0.20071712       0.25000000       0.09395081 </v>
   <v>       0.30972654       0.25000000       0.09393346 </v>
   <v>       0.41890943       0.25000000       0.09428087 </v>
   <v>       0.52800515       0.25000000       0.09395578 </v>
   <v>       0.63702765       0.25000000       0.09371067 </v>
   <v>       0.74598735       0.25000000       0.09556894 </v>
   <v>       0.03768573       0.25000000       0.39587904 </v>
   <v>       0.14626139       0.25000000       0.40480140 </v>
   <v>       0.25524535       0.25000000       0.40617677 </v>
   <v>       0.36431323       0.25000000       0.40582023 </v>
   <v>       0.47350077       0.25000000       0.40586581 </v>
   <v>       0.58250077       0.25000000       0.40615754 </v>
   <v>       0.69138496       0.25000000       0.40570406 </v>
   <v>       0.79497086       0.25000000       0.41212047 </v>
   <v>       0.07235085       0.75000002       0.59556892 </v>
   <v>       0.18131055       0.75000002       0.59371065 </v>
   <v>       0.29033306       0.75000002       0.59395576 </v>
   <v>       0.39942875       0.75000002       0.59428085 </v>
   <v>       0.50861161       0.75000002       0.59393344 </v>
   <v>       0.61762103       0.75000002       0.59395079 </v>
   <v>       0.72717151       0.75000002       0.59335980 </v>
   <v>       0.01992652       0.07152308       0.14507561 </v>
   <v>       0.12997995       0.07022826       0.14563884 </v>
   <v>       0.23923539       0.07031189       0.14637498 </v>
   <v>       0.34822995       0.07027492       0.14601423 </v>
   <v>       0.45744718       0.07018230       0.14612969 </v>
   <v>       0.56649937       0.07029529       0.14647189 </v>
   <v>       0.67548250       0.07016835       0.14503988 </v>
   <v>       0.78446431       0.07135700       0.14232484 </v>
   <v>       0.08874719       0.93011940       0.85446957 </v>
   <v>       0.19734472       0.92973261       0.85368504 </v>
   <v>       0.30631429       0.92971789       0.85357380 </v>
   <v>       0.41551150       0.92982401       0.85408521 </v>
   <v>       0.52460136       0.92970944       0.85374708 </v>
   <v>       0.63358252       0.92975345       0.85349068 </v>
   <v>       0.74292673       0.93043144       0.85352297 </v>
   <v>       0.03387384       0.92864299       0.64232486 </v>
   <v>       0.14285569       0.92983164       0.64503990 </v>
   <v>       0.25183882       0.92970470       0.64647191 </v>
   <v>       0.36089100       0.92981769       0.64612971 </v>
   <v>       0.47010821       0.92972508       0.64601425 </v>
   <v>       0.57910277       0.92968810       0.64637500 </v>
   <v>       0.68835822       0.92977173       0.64563886 </v>
   <v>       0.79841164       0.92847691       0.64507563 </v>
   <v>       0.07541143       0.06956855       0.35352297 </v>
   <v>       0.18475564       0.07024654       0.35349068 </v>
   <v>       0.29373682       0.07029055       0.35374708 </v>
   <v>       0.40282668       0.07017598       0.35408521 </v>
   <v>       0.51202389       0.07028210       0.35357380 </v>
   <v>       0.62099348       0.07026738       0.35368504 </v>
   <v>       0.72959100       0.06988059       0.35446957 </v>
   <v>       0.08874719       0.56988060       0.85446957 </v>
   <v>       0.19734472       0.57026739       0.85368504 </v>
   <v>       0.30631429       0.57028211       0.85357380 </v>
   <v>       0.41551150       0.57017599       0.85408521 </v>
   <v>       0.52460136       0.57029056       0.85374708 </v>
   <v>       0.63358252       0.57024655       0.85349068 </v>
   <v>       0.74292673       0.56956856       0.85352297 </v>
   <v>       0.01992652       0.42847691       0.14507561 </v>
   <v>       0.12997995       0.42977173       0.14563884 </v>
   <v>       0.23923539       0.42968810       0.14637498 </v>
   <v>       0.34822995       0.42972508       0.14601423 </v>
   <v>       0.45744718       0.42981769       0.14612969 </v>
   <v>       0.56649937       0.42970470       0.14647189 </v>
   <v>       0.67548250       0.42983164       0.14503988 </v>
   <v>       0.78446431       0.42864299       0.14232484 </v>
   <v>       0.07541143       0.43043144       0.35352297 </v>
   <v>       0.18475564       0.42975345       0.35349068 </v>
   <v>       0.29373682       0.42970944       0.35374708 </v>
   <v>       0.40282668       0.42982401       0.35408521 </v>
   <v>       0.51202389       0.42971789       0.35357380 </v>
   <v>       0.62099348       0.42973261       0.35368504 </v>
   <v>       0.72959100       0.43011940       0.35446957 </v>
   <v>       0.03387384       0.57135701       0.64232486 </v>
   <v>       0.14285569       0.57016836       0.64503990 </v>
   <v>       0.25183882       0.57029530       0.64647191 </v>
   <v>       0.36089100       0.57018231       0.64612971 </v>
   <v>       0.47010821       0.57027492       0.64601425 </v>
   <v>       0.57910277       0.57031190       0.64637500 </v>
   <v>       0.68835822       0.57022827       0.64563886 </v>
   <v>       0.79841164       0.57152309       0.64507563 </v>
   <v>       0.00805153       0.75000002       0.61816695 </v>
   <v>       0.11830610       0.75000002       0.59102251 </v>
   <v>       0.22731403       0.75000002       0.59147445 </v>
   <v>       0.33636232       0.75000002       0.59154928 </v>
   <v>       0.44556875       0.75000002       0.59131038 </v>
   <v>       0.55457027       0.75000002       0.59158148 </v>
   <v>       0.66377711       0.75000002       0.59161304 </v>
   <v>       0.77339687       0.75000002       0.58263312 </v>
   <v>       0.09986119       0.25000000       0.40832522 </v>
   <v>       0.20928292       0.25000000       0.40834594 </v>
   <v>       0.31827134       0.25000000       0.40841480 </v>
   <v>       0.42737607       0.25000000       0.40838325 </v>
   <v>       0.53655194       0.25000000       0.40844107 </v>
   <v>       0.64552628       0.25000000       0.40839105 </v>
   <v>       0.75395270       0.25000000       0.40920058 </v>
   <v>       0.04494130       0.25000000       0.08263306 </v>
   <v>       0.15456106       0.25000000       0.09161298 </v>
   <v>       0.26376789       0.25000000       0.09158141 </v>
   <v>       0.37276941       0.25000000       0.09131031 </v>
   <v>       0.48197589       0.25000000       0.09154922 </v>
   <v>       0.59102418       0.25000000       0.09147438 </v>
   <v>       0.70003209       0.25000000       0.09102245 </v>
   <v>       0.81028666       0.25000000       0.11816689 </v>
   <v>       0.06438549       0.75000002       0.90920062 </v>
   <v>       0.17281192       0.75000002       0.90839109 </v>
   <v>       0.28178627       0.75000002       0.90844111 </v>
   <v>       0.39096211       0.75000002       0.90838329 </v>
   <v>       0.50006682       0.75000002       0.90841484 </v>
   <v>       0.60905524       0.75000002       0.90834598 </v>
   <v>       0.71847698       0.75000002       0.90832526 </v>
   <v>       0.02014524       0.25000000       0.96255028 </v>
   <v>       0.13049984       0.25000000       0.96397260 </v>
   <v>       0.23963577       0.25000000       0.96456332 </v>
   <v>       0.34866797       0.25000000       0.96418267 </v>
   <v>       0.45786908       0.25000000       0.96438890 </v>
   <v>       0.56687857       0.25000000       0.96462910 </v>
   <v>       0.67597735       0.25000000       0.96327408 </v>
   <v>       0.79001491       0.25000000       0.96219119 </v>
   <v>       0.08788767       0.75000002       0.03701720 </v>
   <v>       0.19692092       0.75000002       0.03552611 </v>
   <v>       0.30593751       0.75000002       0.03532628 </v>
   <v>       0.41503034       0.75000002       0.03581895 </v>
   <v>       0.52419527       0.75000002       0.03554595 </v>
   <v>       0.63319902       0.75000002       0.03528303 </v>
   <v>       0.74250795       0.75000002       0.03555582 </v>
   <v>       0.02832321       0.75000002       0.46219111 </v>
   <v>       0.14236080       0.75000002       0.46327400 </v>
   <v>       0.25145959       0.75000002       0.46462902 </v>
   <v>       0.36046908       0.75000002       0.46438882 </v>
   <v>       0.46967023       0.75000002       0.46418259 </v>
   <v>       0.57870243       0.75000002       0.46456324 </v>
   <v>       0.68783836       0.75000002       0.46397252 </v>
   <v>       0.79819295       0.75000002       0.46255020 </v>
   <v>       0.07583025       0.25000000       0.53555580 </v>
   <v>       0.18513918       0.25000000       0.53528301 </v>
   <v>       0.29414294       0.25000000       0.53554593 </v>
   <v>       0.40330784       0.25000000       0.53581893 </v>
   <v>       0.51240065       0.25000000       0.53532626 </v>
   <v>       0.62141724       0.25000000       0.53552610 </v>
   <v>       0.73045050       0.25000000       0.53701719 </v>
  </varray>
 </structure>
</modeling>
