 vasp.5.4.4.18Apr17-6-g9f103f2a35 (build Nov 21 2017 15:30:27) complex          
  
 executed on             LinuxIFC date 2020.09.15  07:51:17
 running on   64 total cores
 distrk:  each k-point on   32 cores,    2 groups
 distr:  one band on NCORES_PER_BAND=   4 cores,    8 groups


--------------------------------------------------------------------------------------------------------


 INCAR:
 POTCAR:   PAW Ba_sv 17Apr2000                    
 POTCAR:   PAW Si 02Apr1999                       

 ----------------------------------------------------------------------------- 
|                                                                             |
|           W    W    AA    RRRRR   N    N  II  N    N   GGGG   !!!           |
|           W    W   A  A   R    R  NN   N  II  NN   N  G    G  !!!           |
|           W    W  A    A  R    R  N N  N  II  N N  N  G       !!!           |
|           W WW W  AAAAAA  RRRRR   N  N N  II  N  N N  G  GGG   !            |
|           WW  WW  A    A  R   R   N   NN  II  N   NN  G    G                |
|           W    W  A    A  R    R  N    N  II  N    N   GGGG   !!!           |
|                                                                             |
|      You have enabled k-point parallelism (KPAR>1).                         |
|      This developmental code was originally  written by Paul Kent at ORNL,  |
|      and carefully double checked in Vienna.                                |
|      GW as well as linear response parallelism added by Martijn Marsman     |
|      and Georg Kresse.                                                      |
|      Carefully verify results versus KPAR=1.                                |
|      Report problems to Paul Kent and Vienna.                               |
|                                                                             |
 ----------------------------------------------------------------------------- 

 POTCAR:   PAW Ba_sv 17Apr2000                    
   VRHFIN =Ba: s2p6s2                                                           
   LEXCH  = CA                                                                  
   EATOM  =   704.0172 eV,   51.7438 Ry                                         
                                                                                
   TITEL  = PAW Ba_sv 17Apr2000                                                 
   LULTRA =        F    use ultrasoft PP ?                                      
   IUNSCR =        1    unscreen: 0-lin 1-nonlin 2-no                           
   RPACOR =    2.400    partial core radius                                     
   POMASS =  137.327; ZVAL   =   10.000    mass and valenz                      
   RCORE  =    2.800    outmost cutoff radius                                   
   RWIGS  =    3.740; RWIGS  =    1.979    wigner-seitz radius (au A)           
   ENMAX  =  186.981; ENMIN  =  140.236 eV                                      
   RCLOC  =    2.516    cutoff for local pot                                    
   LCOR   =        T    correct aug charges                                     
   LPAW   =        T    paw PP                                                  
   EAUG   =  351.165                                                            
   DEXC   =     .000                                                            
   RMAX   =    3.372    core radius for proj-oper                               
   RAUG   =    1.300    factor for augmentation sphere                          
   RDEP   =    2.976    core radius for depl-charge                             
   QCUT   =   -3.707; QGAM   =    7.414    optimization parameters              
                                                                                
   Description                                                                  
     l     E      TYP  RCUT    TYP  RCUT                                        
     0   .000     23  2.800                                                     
     0   .000     23  2.800                                                     
     1   .000     23  2.700                                                     
     1  2.000     23  2.700                                                     
     2   .000     23  2.700                                                     
     2   .000     23  2.700                                                     
  local pseudopotential read in
  partial core-charges read in
  atomic valenz-charges read in
  non local Contribution for L=           0  read in
    real space projection operators read in
  non local Contribution for L=           0  read in
    real space projection operators read in
  non local Contribution for L=           1  read in
    real space projection operators read in
  non local Contribution for L=           1  read in
    real space projection operators read in
  non local Contribution for L=           2  read in
    real space projection operators read in
  non local Contribution for L=           2  read in
    real space projection operators read in
    PAW grid and wavefunctions read in
 
   number of l-projection  operators is LMAX  =           6
   number of lm-projection operators is LMMAX =          18
 
 POTCAR:   PAW Si 02Apr1999                       
   VRHFIN =Si: s2p2                                                             
   LEXCH  = CA                                                                  
   EATOM  =   103.4338 eV,    7.6022 Ry                                         
                                                                                
   TITEL  = PAW Si 02Apr1999                                                    
   LULTRA =        F    use ultrasoft PP ?                                      
   IUNSCR =        1    unscreen: 0-lin 1-nonlin 2-no                           
   RPACOR =    1.500    partial core radius                                     
   POMASS =   28.085; ZVAL   =    4.000    mass and valenz                      
   RCORE  =    1.900    outmost cutoff radius                                   
   RWIGS  =    2.480; RWIGS  =    1.312    wigner-seitz radius (au A)           
   ENMAX  =  245.704; ENMIN  =  184.278 eV                                      
   ICORE  =        2    local potential                                         
   LCOR   =        T    correct aug charges                                     
   LPAW   =        T    paw PP                                                  
   EAUG   =  322.069                                                            
   DEXC   =    -.006                                                            
   RMAX   =    2.941    core radius for proj-oper                               
   RAUG   =    1.300    factor for augmentation sphere                          
   RDEP   =    1.993    core radius for depl-charge                             
   QCUT   =   -4.250; QGAM   =    8.499    optimization parameters              
                                                                                
   Description                                                                  
     l     E      TYP  RCUT    TYP  RCUT                                        
     0   .000     23  1.900                                                     
     0   .000     23  1.900                                                     
     1   .000     23  1.900                                                     
     1   .000     23  1.900                                                     
     2   .000      7  1.900                                                     
  local pseudopotential read in
  partial core-charges read in
  atomic valenz-charges read in
  non local Contribution for L=           0  read in
    real space projection operators read in
  non local Contribution for L=           0  read in
    real space projection operators read in
  non local Contribution for L=           1  read in
    real space projection operators read in
  non local Contribution for L=           1  read in
    real space projection operators read in
    PAW grid and wavefunctions read in
 
   number of l-projection  operators is LMAX  =           4
   number of lm-projection operators is LMMAX =           8
 
 Optimization of the real space projectors (new method)

 maximal supplied QI-value         = 13.42
 optimisation between [QCUT,QGAM] = [ 11.40, 22.81] = [ 36.42,145.68] Ry 
 Optimized for a Real-space Cutoff    1.56 Angstroem

   l    n(q)    QCUT    max X(q) W(low)/X(q) W(high)/X(q)  e(spline) 
   0     11    11.404     7.180    0.12E-04    0.23E-04    0.91E-07
   0     11    11.404    14.700    0.33E-04    0.82E-04    0.45E-06
   1     10    11.404     3.780    0.19E-04    0.22E-04    0.42E-07
   1     10    11.404     4.341    0.22E-03    0.98E-04    0.21E-06
   2     10    11.404     5.806    0.81E-04    0.60E-05    0.26E-06
   2     10    11.404    65.524    0.41E-03    0.30E-04    0.12E-05
 Optimization of the real space projectors (new method)

 maximal supplied QI-value         = 19.84
 optimisation between [QCUT,QGAM] = [ 11.31, 22.82] = [ 35.82,145.81] Ry 
 Optimized for a Real-space Cutoff    1.16 Angstroem

   l    n(q)    QCUT    max X(q) W(low)/X(q) W(high)/X(q)  e(spline) 
   0      8    11.310     8.540    0.14E-04    0.11E-04    0.43E-08
   0      8    11.310   104.916    0.28E-03    0.31E-03    0.39E-07
   1      7    11.310     5.806    0.79E-05    0.47E-04    0.19E-07
   1      7    11.310    72.249    0.28E-03    0.28E-03    0.75E-07
 PAW Ba_sv 17Apr2000                    :
 energy of atom  1       EATOM= -704.0172
 kinetic energy error for atom=    0.0005 (will be added to EATOM!!)
 PAW Si 02Apr1999                       :
 energy of atom  2       EATOM= -103.4338
 kinetic energy error for atom=    0.0006 (will be added to EATOM!!)
 
 
 POSCAR: ba8 si16                                
  positions in direct lattice
  velocities in cartesian coordinates
 exchange correlation table for  LEXCH =        2
   RHO(1)=    0.500       N(1)  =     2000
   RHO(2)=  100.500       N(2)  =     4000
 


--------------------------------------------------------------------------------------------------------


 ion  position               nearest neighbor table
   1  0.006  0.250  0.708-  21 3.35  16 3.45  11 3.45  17 3.64  17 3.64   5 4.36   5 4.36   7 4.69

   2  0.382  0.750  0.292-  22 3.35  12 3.45  15 3.45  18 3.64  18 3.64   6 4.36   6 4.36   8 4.69

   3  0.182  0.750  0.184-  20 3.29   9 3.45  14 3.45  12 3.56  15 3.56  22 3.57  19 3.65  19 3.65
                            23 3.83   5 4.28   7 4.36   7 4.36
   4  0.206  0.250  0.816-  19 3.29  13 3.45  10 3.45  16 3.56  11 3.56  21 3.57  20 3.65  20 3.65
                            24 3.83   6 4.28   8 4.36   8 4.36
   5  0.060  0.750  0.916-   9 3.42  14 3.42  11 3.43  16 3.43  21 3.44  21 3.44  17 3.65   3 4.28
                             1 4.36   1 4.36
   6  0.328  0.250  0.084-  13 3.42  10 3.42  15 3.43  12 3.43  22 3.44  22 3.44  18 3.65   4 4.28
                             2 4.36   2 4.36
   7  0.128  0.250  0.393-  14 3.43   9 3.43  23 3.56  23 3.56  19 3.69  15 3.75  12 3.75  24 3.80
                            16 3.84  11 3.84   3 4.36   3 4.36   1 4.69
   8  0.260  0.750  0.607-  10 3.43  13 3.43  24 3.56  24 3.56  20 3.69  11 3.75  16 3.75  23 3.80
                            12 3.84  15 3.84   4 4.36   4 4.36   2 4.69
   9  0.073  0.074  0.140-  14 2.39  21 2.41  19 2.44   5 3.42   7 3.43   3 3.45
  10  0.315  0.926  0.860-  13 2.39  22 2.41  20 2.44   6 3.42   8 3.43   4 3.45
  11  0.115  0.928  0.664-  16 2.41  23 2.42  17 2.43   5 3.43   1 3.45   4 3.56   8 3.75   7 3.84

  12  0.273  0.072  0.336-  15 2.41  24 2.42  18 2.43   6 3.43   2 3.45   3 3.56   7 3.75   8 3.84

  13  0.315  0.574  0.860-  10 2.39  22 2.41  20 2.44   6 3.42   8 3.43   4 3.45
  14  0.073  0.426  0.140-   9 2.39  21 2.41  19 2.44   5 3.42   7 3.43   3 3.45
  15  0.273  0.428  0.336-  12 2.41  24 2.42  18 2.43   6 3.43   2 3.45   3 3.56   7 3.75   8 3.84

  16  0.115  0.572  0.664-  11 2.41  23 2.42  17 2.43   5 3.43   1 3.45   4 3.56   8 3.75   7 3.84

  17  0.031  0.750  0.607-  11 2.43  16 2.43  23 2.45   1 3.64   1 3.64   5 3.65
  18  0.357  0.250  0.393-  15 2.43  12 2.43  24 2.45   2 3.64   2 3.64   6 3.65
  19  0.157  0.250  0.080-  21 2.42  14 2.44   9 2.44   4 3.29   3 3.65   3 3.65   7 3.69
  20  0.231  0.750  0.920-  22 2.42  10 2.44  13 2.44   3 3.29   4 3.65   4 3.65   8 3.69
  21  0.074  0.250  0.960-  14 2.41   9 2.41  19 2.42   1 3.35   5 3.44   5 3.44   4 3.57
  22  0.314  0.750  0.040-  10 2.41  13 2.41  20 2.42   2 3.35   6 3.44   6 3.44   3 3.57
  23  0.113  0.750  0.483-  11 2.42  16 2.42  17 2.45   7 3.56   7 3.56   8 3.80   3 3.83
  24  0.274  0.250  0.517-  15 2.42  12 2.42  18 2.45   8 3.56   8 3.56   7 3.80   4 3.83
 
  LATTYP: Found a simple orthorhombic cell.
 ALAT       =     6.7778496742
 B/A-ratio  =     1.7117734747
 C/A-ratio  =     3.5423429602
  
  Lattice vectors:
  
 A1 = (   0.0000000000,   6.7778496742,   0.0000000000)
 A2 = (   0.0000000000,   0.0000000000, -11.6021432877)
 A3 = ( -24.0094680786,   0.0000000000,   0.0000000000)


Analysis of symmetry for initial positions (statically):
=====================================================================
 Subroutine PRICEL returns:
 Original cell was already a primitive cell.
 

 Routine SETGRP: Setting up the symmetry group for a 
 simple orthorhombic supercell.


 Subroutine GETGRP returns: Found  4 space group operations
 (whereof  1 operations were pure point group operations)
 out of a pool of  8 trial point group operations.


The static configuration has the point symmetry C_1 .
 The point group associated with its full space group is C_2h.


Analysis of symmetry for dynamics (positions and initial velocities):
=====================================================================
 Subroutine PRICEL returns:
 Original cell was already a primitive cell.
 

 Routine SETGRP: Setting up the symmetry group for a 
 simple orthorhombic supercell.


 Subroutine GETGRP returns: Found  4 space group operations
 (whereof  1 operations were pure point group operations)
 out of a pool of  8 trial point group operations.


The dynamic configuration has the point symmetry C_1 .
 The point group associated with its full space group is C_2h.


Analysis of constrained symmetry for selective dynamics:
=====================================================================
 Subroutine PRICEL returns:
 Original cell was already a primitive cell.
 

 Routine SETGRP: Setting up the symmetry group for a 
 simple orthorhombic supercell.


 Subroutine GETGRP returns: Found  4 space group operations
 (whereof  1 operations were pure point group operations)
 out of a pool of  8 trial point group operations.


The constrained configuration has the point symmetry C_1 .
 The point group associated with its full space group is C_2h.


 Subroutine INISYM returns: Found  4 space group operations
 (whereof  1 operations are pure point group operations),
 and found     1 'primitive' translations

 
 
 KPOINTS: k-density: 8.0                          

Automatic generation of k-mesh.
Space group operators:
 irot       det(A)        alpha          n_x          n_y          n_z        tau_x        tau_y        tau_z
    1     1.000000     0.000000     1.000000     0.000000     0.000000     0.000000     0.000000     0.000000
    2    -1.000000     0.000000     1.000000     0.000000     0.000000    -0.612258     0.000000     0.000000
    3     1.000000   180.000000     0.000000     1.000000     0.000000    -0.612258     0.500000     0.000000
    4    -1.000000   180.000000     0.000000     1.000000     0.000000     0.000000     0.500000     0.000000
 
 Subroutine IBZKPT returns following result:
 ===========================================
 
 Found     15 irreducible k-points:
 
 Following reciprocal coordinates:
            Coordinates               Weight
  0.000000  0.000000  0.000000      1.000000
  0.000000  0.125000  0.000000      2.000000
  0.000000  0.250000  0.000000      2.000000
  0.000000  0.375000  0.000000      2.000000
  0.000000  0.500000  0.000000      1.000000
  0.000000  0.000000  0.200000      2.000000
  0.000000  0.125000  0.200000      4.000000
  0.000000  0.250000  0.200000      4.000000
  0.000000  0.375000  0.200000      4.000000
  0.000000  0.500000  0.200000      2.000000
  0.000000  0.000000  0.400000      2.000000
  0.000000  0.125000  0.400000      4.000000
  0.000000  0.250000  0.400000      4.000000
  0.000000  0.375000  0.400000      4.000000
  0.000000  0.500000  0.400000      2.000000
 
 Following cartesian coordinates:
            Coordinates               Weight
  0.000000  0.000000  0.000000      1.000000
  0.000000  0.018442  0.000000      2.000000
  0.000000  0.036885  0.000000      2.000000
  0.000000  0.055327  0.000000      2.000000
  0.000000  0.073770  0.000000      1.000000
  0.000000  0.000000  0.017238      2.000000
  0.000000  0.018442  0.017238      4.000000
  0.000000  0.036885  0.017238      4.000000
  0.000000  0.055327  0.017238      4.000000
  0.000000  0.073770  0.017238      2.000000
  0.000000  0.000000  0.034476      2.000000
  0.000000  0.018442  0.034476      4.000000
  0.000000  0.036885  0.034476      4.000000
  0.000000  0.055327  0.034476      4.000000
  0.000000  0.073770  0.034476      2.000000
 
 TETIRR: Found    108 inequivalent tetrahedra from      240


--------------------------------------------------------------------------------------------------------




 Dimension of arrays:
   k-points           NKPTS =     15   k-points in BZ     NKDIM =     15   number of bands    NBANDS=     88
   number of dos      NEDOS =    301   number of ions     NIONS =     24
   non local maximal  LDIM  =      6   non local SUM 2l+1 LMDIM =     18
   total plane-waves  NPLWV = 358400
   max r-space proj   IRMAX =   3093   max aug-charges    IRDMAX=  12081
   dimension x,y,z NGX =   140 NGY =   40 NGZ =   64
   dimension x,y,z NGXF=   280 NGYF=   80 NGZF=  128
   support grid    NGXF=   280 NGYF=   80 NGZF=  128
   ions per type =               8  16
   NGX,Y,Z   is equivalent  to a cutoff of   9.69,  9.81,  9.17 a.u.
   NGXF,Y,Z  is equivalent  to a cutoff of  19.39, 19.62, 18.34 a.u.

 SYSTEM =  unknown system                          
 POSCAR =  ba8 si16                                

 Startparameter for this run:
   NWRITE =      2    write-flag & timer
   PREC   = normal    normal or accurate (medium, high low for compatibility)
   ISTART =      0    job   : 0-new  1-cont  2-samecut
   ICHARG =      2    charge: 1-file 2-atom 10-const
   ISPIN  =      1    spin polarized calculation?
   LNONCOLLINEAR =      F non collinear calculations
   LSORBIT =      F    spin-orbit coupling
   INIWAV =      1    electr: 0-lowe 1-rand  2-diag
   LASPH  =      F    aspherical Exc in radial PAW
   METAGGA=      F    non-selfconsistent MetaGGA calc.

 Electronic Relaxation 1
   ENCUT  =  500.0 eV  36.75 Ry    6.06 a.u.  43.77 12.36 21.15*2*pi/ulx,y,z
   ENINI  =  500.0     initial cutoff
   ENAUG  =  351.2 eV  augmentation charge cutoff
   NELM   =    100;   NELMIN=  2; NELMDL= -5     # of ELM steps 
   EDIFF  = 0.1E-05   stopping-criterion for ELM
   LREAL  =      T    real-space projection
   NLSPLINE    = F    spline interpolate recip. space projectors
   LCOMPAT=      F    compatible to vasp.4.4
   GGA_COMPAT  = T    GGA compatible to vasp.4.4-vasp.4.6
   LMAXPAW     = -100 max onsite density
   LMAXMIX     =    2 max onsite mixed and CHGCAR
   VOSKOWN=      0    Vosko Wilk Nusair interpolation
   ROPT   =   -0.00050  -0.00050
 Ionic relaxation
   EDIFFG = -.1E-02   stopping-criterion for IOM
   NSW    =      0    number of steps for IOM
   NBLOCK =      1;   KBLOCK =      1    inner block; outer block 
   IBRION =     -1    ionic relax: 0-MD 1-quasi-New 2-CG
   NFREE  =      0    steps in history (QN), initial steepest desc. (CG)
   ISIF   =      2    stress and relaxation
   IWAVPR =     10    prediction:  0-non 1-charg 2-wave 3-comb
   ISYM   =      2    0-nonsym 1-usesym 2-fastsym
   LCORR  =      T    Harris-Foulkes like correction to forces

   POTIM  = 0.3000    time-step for ionic-motion
   TEIN   =    0.0    initial temperature
   TEBEG  =    0.0;   TEEND  =   0.0 temperature during run
   SMASS  =  -3.00    Nose mass-parameter (am)
   estimated Nose-frequenzy (Omega)   =  0.10E-29 period in steps =****** mass=  -0.132E-25a.u.
   SCALEE = 1.0000    scale energy and forces
   NPACO  =    256;   APACO  = 16.0  distance and # of slots for P.C.
   PSTRESS=    0.0 pullay stress

  Mass of Ions in am
   POMASS = 137.33 28.09
  Ionic Valenz
   ZVAL   =  10.00  4.00
  Atomic Wigner-Seitz radii
   RWIGS  =  -1.00 -1.00
  virtual crystal weights 
   VCA    =   1.00  1.00
   NELECT =     144.0000    total number of electrons
   NUPDOWN=      -1.0000    fix difference up-down

 DOS related values:
   EMIN   =  10.00;   EMAX   =-10.00  energy-range for DOS
   EFERMI =   0.00
   ISMEAR =    -5;   SIGMA  =   0.01  broadening in eV -4-tet -1-fermi 0-gaus

 Electronic relaxation 2 (details)
   IALGO  =     38    algorithm
   LDIAG  =      T    sub-space diagonalisation (order eigenvalues)
   LSUBROT=      F    optimize rotation matrix (better conditioning)
   TURBO    =      0    0=normal 1=particle mesh
   IRESTART =      0    0=no restart 2=restart with 2 vectors
   NREBOOT  =      0    no. of reboots
   NMIN     =      0    reboot dimension
   EREF     =   0.00    reference energy to select bands
   IMIX   =      4    mixing-type and parameters
     AMIX     =   0.40;   BMIX     =  1.00
     AMIX_MAG =   1.60;   BMIX_MAG =  1.00
     AMIN     =   0.10
     WC   =   100.;   INIMIX=   1;  MIXPRE=   1;  MAXMIX= -45

 Intra band minimization:
   WEIMIN = 0.0000     energy-eigenvalue tresh-hold
   EBREAK =  0.28E-08  absolut break condition
   DEPER  =   0.30     relativ break condition  

   TIME   =   0.40     timestep for ELM

  volume/ion in A,a.u.               =      78.67       530.88
  Fermi-wavevector in a.u.,A,eV,Ry     =   0.694264  1.311969  6.558046  0.482003
  Thomas-Fermi vector in A             =   1.776709
 
 Write flags
   LWAVE        =      T    write WAVECAR
   LDOWNSAMPLE  =      F    k-point downsampling of WAVECAR
   LCHARG       =      T    write CHGCAR
   LVTOT        =      F    write LOCPOT, total local potential
   LVHAR        =      F    write LOCPOT, Hartree potential only
   LELF         =      F    write electronic localiz. function (ELF)
   LORBIT       =      0    0 simple, 1 ext, 2 COOP (PROOUT), +10 PAW based schemes


 Dipole corrections
   LMONO  =      F    monopole corrections only (constant potential shift)
   LDIPOL =      F    correct potential (dipole corrections)
   IDIPOL =      0    1-x, 2-y, 3-z, 4-all directions 
   EPSILON=  1.0000000 bulk dielectric constant

 Exchange correlation treatment:
   GGA     =    --    GGA type
   LEXCH   =     2    internal setting for exchange type
   VOSKOWN=      0    Vosko Wilk Nusair interpolation
   LHFCALC =     F    Hartree Fock is set to
   LHFONE  =     F    Hartree Fock one center treatment
   AEXX    =    0.0000 exact exchange contribution

 Linear response parameters
   LEPSILON=     F    determine dielectric tensor
   LRPA    =     F    only Hartree local field effects (RPA)
   LNABLA  =     F    use nabla operator in PAW spheres
   LVEL    =     F    velocity operator in full k-point grid
   LINTERFAST=   F  fast interpolation
   KINTER  =     0    interpolate to denser k-point grid
   CSHIFT  =0.1000    complex shift for real part using Kramers Kronig
   OMEGAMAX=  -1.0    maximum frequency
   DEG_THRESHOLD= 0.2000000E-02 threshold for treating states as degnerate
   RTIME   =   -0.100 relaxation time in fs
  (WPLASMAI=    0.000 imaginary part of plasma frequency in eV, 0.658/RTIME)
   DFIELD  = 0.0000000 0.0000000 0.0000000 field for delta impulse in time
 
 Orbital magnetization related:
   ORBITALMAG=     F  switch on orbital magnetization
   LCHIMAG   =     F  perturbation theory with respect to B field
   DQ        =  0.001000  dq finite difference perturbation B field
   LLRAUG    =     F  two centre corrections for induced B field



--------------------------------------------------------------------------------------------------------


 Static calculation
 charge density and potential will be updated during run
 non-spin polarized calculation
 Variant of blocked Davidson
 Davidson routine will perform the subspace rotation
 perform sub-space diagonalisation
    after iterative eigenvector-optimisation
 modified Broyden-mixing scheme, WC =      100.0
 initial mixing is a Kerker type mixing with AMIX =  0.4000 and BMIX =      1.0000
 Hartree-type preconditioning will be used
 using additional bands           16
 real space projection scheme for non local part
 use partial core corrections
 calculate Harris-corrections to forces 
   (improved forces if not selfconsistent)
 use of overlap-Matrix (Vanderbilt PP)
 Fermi weights with tetrahedron method with Bloechl corrections


--------------------------------------------------------------------------------------------------------


  energy-cutoff  :      500.00
  volume of cell :     1888.05
      direct lattice vectors                 reciprocal lattice vectors
    24.009468079  0.000000000  0.000000000     0.041650236  0.000000000  0.000000000
     0.000000000  6.777849674  0.000000000     0.000000000  0.147539419  0.000000000
     0.000000000  0.000000000 11.602143288     0.000000000  0.000000000  0.086190971

  length of vectors
    24.009468079  6.777849674 11.602143288     0.041650236  0.147539419  0.086190971


 
 k-points in units of 2pi/SCALE and weight: k-density: 8.0                          
   0.00000000  0.00000000  0.00000000       0.025
   0.00000000  0.01844243  0.00000000       0.050
   0.00000000  0.03688485  0.00000000       0.050
   0.00000000  0.05532728  0.00000000       0.050
   0.00000000  0.07376971  0.00000000       0.025
   0.00000000  0.00000000  0.01723819       0.050
   0.00000000  0.01844243  0.01723819       0.100
   0.00000000  0.03688485  0.01723819       0.100
   0.00000000  0.05532728  0.01723819       0.100
   0.00000000  0.07376971  0.01723819       0.050
   0.00000000  0.00000000  0.03447639       0.050
   0.00000000  0.01844243  0.03447639       0.100
   0.00000000  0.03688485  0.03447639       0.100
   0.00000000  0.05532728  0.03447639       0.100
   0.00000000  0.07376971  0.03447639       0.050
 
 k-points in reciprocal lattice and weights: k-density: 8.0                          
   0.00000000  0.00000000  0.00000000       0.025
   0.00000000  0.12500000  0.00000000       0.050
   0.00000000  0.25000000  0.00000000       0.050
   0.00000000  0.37500000  0.00000000       0.050
   0.00000000  0.50000000  0.00000000       0.025
   0.00000000  0.00000000  0.20000000       0.050
   0.00000000  0.12500000  0.20000000       0.100
   0.00000000  0.25000000  0.20000000       0.100
   0.00000000  0.37500000  0.20000000       0.100
   0.00000000  0.50000000  0.20000000       0.050
   0.00000000  0.00000000  0.40000000       0.050
   0.00000000  0.12500000  0.40000000       0.100
   0.00000000  0.25000000  0.40000000       0.100
   0.00000000  0.37500000  0.40000000       0.100
   0.00000000  0.50000000  0.40000000       0.050
 
 position of ions in fractional coordinates (direct lattice) 
   0.00569361  0.25000000  0.70787471
   0.38204792  0.75000002  0.29212529
   0.18192962  0.75000002  0.18419602
   0.20581192  0.25000000  0.81580396
   0.05978014  0.75000002  0.91587136
   0.32796140  0.25000000  0.08412862
   0.12784309  0.25000000  0.39273908
   0.25989845  0.75000002  0.60726097
   0.07289913  0.07388827  0.14045604
   0.31484240  0.92611172  0.85954394
   0.11472410  0.92774980  0.66360637
   0.27301744  0.07225019  0.33639363
   0.31484240  0.57388828  0.85954394
   0.07289913  0.42611172  0.14045604
   0.27301744  0.42774980  0.33639363
   0.11472410  0.57225020  0.66360637
   0.03110981  0.75000002  0.60689353
   0.35663172  0.25000000  0.39310647
   0.15651343  0.25000000  0.08038301
   0.23122812  0.75000002  0.91961697
   0.07418398  0.25000000  0.95981620
   0.31355756  0.75000002  0.04018382
   0.11343925  0.75000002  0.48260901
   0.27430228  0.25000000  0.51739091
 
 position of ions in cartesian coordinates  (Angst):
   0.13670066  1.69446242  8.21286376
   9.17276745  5.08338737  3.38927953
   4.36803341  5.08338737  2.13706859
   4.94143467  1.69446242  9.46507446
   1.43528938  5.08338737 10.62607079
   7.87417870  1.69446242  0.97607226
   3.06944466  1.69446242  4.55661503
   6.24002342  5.08338737  7.04552874
   1.75026941  0.50080356  1.62959110
   7.55919867  6.27704605  9.97255195
   2.75446463  6.28814869  7.69925616
   6.55500345  0.48970092  3.90288713
   7.55919867  3.88972846  9.97255195
   1.75026941  2.88812122  1.62959110
   6.55500345  2.89922385  3.90288713
   2.75446463  3.87862582  7.69925616
   0.74692994  5.08338737  7.04126568
   8.56253796  1.69446242  4.56087760
   3.75780416  1.69446242  0.93261524
   5.55166416  5.08338737 10.66952781
   1.78111780  1.69446242 11.13592503
   7.52835016  5.08338737  0.46621843
   2.72361612  5.08338737  5.59929886
   6.58585195  1.69446242  6.00284347
 


--------------------------------------------------------------------------------------------------------


 k-point  1 :   0.0000 0.0000 0.0000  plane waves:   47989
 k-point  2 :   0.0000 0.1250 0.0000  plane waves:   47929
 k-point  3 :   0.0000 0.2500 0.0000  plane waves:   47901
 k-point  4 :   0.0000 0.3750 0.0000  plane waves:   47910
 k-point  5 :   0.0000 0.5000 0.0000  plane waves:   47868
 k-point  6 :   0.0000 0.0000 0.2000  plane waves:   48006
 k-point  7 :   0.0000 0.1250 0.2000  plane waves:   47967
 k-point  8 :   0.0000 0.2500 0.2000  plane waves:   47907
 k-point  9 :   0.0000 0.3750 0.2000  plane waves:   47884
 k-point 10 :   0.0000 0.5000 0.2000  plane waves:   47884
 k-point 11 :   0.0000 0.0000 0.4000  plane waves:   47922
 k-point 12 :   0.0000 0.1250 0.4000  plane waves:   47954
 k-point 13 :   0.0000 0.2500 0.4000  plane waves:   47967
 k-point 14 :   0.0000 0.3750 0.4000  plane waves:   47928
 k-point 15 :   0.0000 0.5000 0.4000  plane waves:   47890

 maximum and minimum number of plane-waves per node :     12077    11868

 maximum number of plane-waves:     48006
 maximum index in each direction: 
   IXMAX=   43   IYMAX=   12   IZMAX=   21
   IXMIN=  -43   IYMIN=  -12   IZMIN=  -21


 real space projection operators:
  total allocation   :       4541.17 KBytes
  max/ min on nodes  :       1139.28       1127.98


 parallel 3D FFT for wavefunctions:
    minimum data exchange during FFTs selected (reduces bandwidth)
 parallel 3D FFT for charge:
    minimum data exchange during FFTs selected (reduces bandwidth)


 total amount of memory used by VASP MPI-rank0    79358. kBytes
=======================================================================

   base      :      30000. kBytes
   nonlr-proj:       2652. kBytes
   fftplans  :       5898. kBytes
   grid      :       8824. kBytes
   one-center:         93. kBytes
   wavefun   :      31891. kBytes
 
     INWAV:  cpu time    0.0000: real time    0.0000
 Broyden mixing: mesh for mixing (old mesh)
   NGX = 87   NGY = 25   NGZ = 43
  (NGX  =280   NGY  = 80   NGZ  =128)
  gives a total of  93525 points

 initial charge density was supplied:
 charge density of overlapping atoms calculated
 number of electron     144.0000000 magnetization 
 keeping initial charge density in first step


--------------------------------------------------------------------------------------------------------


 Maximum index for non-local projection operator          745
 Maximum index for augmentation-charges          598 (set IRDMAX)


--------------------------------------------------------------------------------------------------------


 First call to EWALD:  gamma=   0.143
 Maximum number of real-space cells 2x 5x 3
 Maximum number of reciprocal cells 5x 2x 3

    FEWALD:  cpu time    0.0021: real time    0.0021


--------------------------------------- Iteration      1(   1)  ---------------------------------------


    POTLOK:  cpu time    0.0396: real time    0.0469
    SETDIJ:  cpu time    0.0030: real time    0.0032
     EDDAV:  cpu time    3.0963: real time    3.1309
 BZINTS: Fermi energy:  6.938991;144.000000 electrons
         Band energy:-494.872569;  BLOECHL correction: -0.027917
       DOS:  cpu time    0.0125: real time    0.0125
    --------------------------------------------
      LOOP:  cpu time    3.1515: real time    3.1934

 eigenvalue-minimisations  :  2776
 total energy-change (2. order) : 0.1163448E+04  (-0.4799356E+04)
 number of electron     144.0000000 magnetization 
 augmentation part      144.0000000 magnetization 

 Free energy of the ion-electron system (eV)
  ---------------------------------------------------
  alpha Z        PSCENC =       166.34077906
  Ewald energy   TEWEN  =     11677.76219690
  -Hartree energ DENC   =    -17807.32080773
  -exchange      EXHF   =         0.00000000
  -V(xc)+E(xc)   XCENC  =        46.22489011
  PAW double counting   =      3711.26622449    -3423.01674647
  entropy T*S    EENTRO =         0.00000000
  eigenvalues    EBANDS =      -494.87256855
  atomic energy  EATOM  =      7287.06411261
  Solvation  Ediel_sol  =         0.00000000
  ---------------------------------------------------
  free energy    TOTEN  =      1163.44808041 eV

  energy without entropy =     1163.44808041  energy(sigma->0) =     1163.44808041


--------------------------------------------------------------------------------------------------------




--------------------------------------- Iteration      1(   2)  ---------------------------------------


     EDDAV:  cpu time    3.6402: real time    3.6612
 BZINTS: Fermi energy: -1.969093;144.000000 electrons
         Band energy:***********;  BLOECHL correction:  0.000000
       DOS:  cpu time    0.0031: real time    0.0031
    --------------------------------------------
      LOOP:  cpu time    3.6432: real time    3.6643

 eigenvalue-minimisations  :  3784
 total energy-change (2. order) :-0.1115903E+04  (-0.1086270E+04)
 number of electron     144.0000000 magnetization 
 augmentation part      144.0000000 magnetization 

 Free energy of the ion-electron system (eV)
  ---------------------------------------------------
  alpha Z        PSCENC =       166.34077906
  Ewald energy   TEWEN  =     11677.76219690
  -Hartree energ DENC   =    -17807.32080773
  -exchange      EXHF   =         0.00000000
  -V(xc)+E(xc)   XCENC  =        46.22489011
  PAW double counting   =      3711.26622449    -3423.01674647
  entropy T*S    EENTRO =         0.00000000
  eigenvalues    EBANDS =     -1610.77573384
  atomic energy  EATOM  =      7287.06411261
  Solvation  Ediel_sol  =         0.00000000
  ---------------------------------------------------
  free energy    TOTEN  =        47.54491513 eV

  energy without entropy =       47.54491513  energy(sigma->0) =       47.54491513


--------------------------------------------------------------------------------------------------------




--------------------------------------- Iteration      1(   3)  ---------------------------------------


     EDDAV:  cpu time    3.2419: real time    3.2650
 BZINTS: Fermi energy: -3.423880;144.000000 electrons
         Band energy:***********;  BLOECHL correction:  0.000000
       DOS:  cpu time    0.0020: real time    0.0020
    --------------------------------------------
      LOOP:  cpu time    3.2439: real time    3.2670

 eigenvalue-minimisations  :  3224
 total energy-change (2. order) :-0.1661708E+03  (-0.1654477E+03)
 number of electron     144.0000000 magnetization 
 augmentation part      144.0000000 magnetization 

 Free energy of the ion-electron system (eV)
  ---------------------------------------------------
  alpha Z        PSCENC =       166.34077906
  Ewald energy   TEWEN  =     11677.76219690
  -Hartree energ DENC   =    -17807.32080773
  -exchange      EXHF   =         0.00000000
  -V(xc)+E(xc)   XCENC  =        46.22489011
  PAW double counting   =      3711.26622449    -3423.01674647
  entropy T*S    EENTRO =         0.00000000
  eigenvalues    EBANDS =     -1776.94657221
  atomic energy  EATOM  =      7287.06411261
  Solvation  Ediel_sol  =         0.00000000
  ---------------------------------------------------
  free energy    TOTEN  =      -118.62592324 eV

  energy without entropy =     -118.62592324  energy(sigma->0) =     -118.62592324


--------------------------------------------------------------------------------------------------------




--------------------------------------- Iteration      1(   4)  ---------------------------------------


     EDDAV:  cpu time    3.5620: real time    3.5857
 BZINTS: Fermi energy: -3.462269;144.000000 electrons
         Band energy:***********;  BLOECHL correction:  0.000000
       DOS:  cpu time    0.0025: real time    0.0025
    --------------------------------------------
      LOOP:  cpu time    3.5645: real time    3.5882

 eigenvalue-minimisations  :  3768
 total energy-change (2. order) :-0.6223768E+01  (-0.6204681E+01)
 number of electron     144.0000000 magnetization 
 augmentation part      144.0000000 magnetization 

 Free energy of the ion-electron system (eV)
  ---------------------------------------------------
  alpha Z        PSCENC =       166.34077906
  Ewald energy   TEWEN  =     11677.76219690
  -Hartree energ DENC   =    -17807.32080773
  -exchange      EXHF   =         0.00000000
  -V(xc)+E(xc)   XCENC  =        46.22489011
  PAW double counting   =      3711.26622449    -3423.01674647
  entropy T*S    EENTRO =         0.00000000
  eigenvalues    EBANDS =     -1783.17034015
  atomic energy  EATOM  =      7287.06411261
  Solvation  Ediel_sol  =         0.00000000
  ---------------------------------------------------
  free energy    TOTEN  =      -124.84969118 eV

  energy without entropy =     -124.84969118  energy(sigma->0) =     -124.84969118


--------------------------------------------------------------------------------------------------------




--------------------------------------- Iteration      1(   5)  ---------------------------------------


     EDDAV:  cpu time    4.1995: real time    4.2222
 BZINTS: Fermi energy: -3.506961;144.000000 electrons
         Band energy:***********;  BLOECHL correction:  0.000000
       DOS:  cpu time    0.0021: real time    0.0021
    CHARGE:  cpu time    0.1704: real time    0.1711
    MIXING:  cpu time    0.0107: real time    0.0111
    --------------------------------------------
      LOOP:  cpu time    4.3827: real time    4.4065

 eigenvalue-minimisations  :  4200
 total energy-change (2. order) :-0.3285730E+00  (-0.3284641E+00)
 number of electron     144.0000002 magnetization 
 augmentation part      -16.8580254 magnetization 

 Broyden mixing:
  rms(total) = 0.95513E+00    rms(broyden)= 0.95513E+00
  rms(prec ) = 0.12306E+01
  weight for this iteration     100.00

 Free energy of the ion-electron system (eV)
  ---------------------------------------------------
  alpha Z        PSCENC =       166.34077906
  Ewald energy   TEWEN  =     11677.76219690
  -Hartree energ DENC   =    -17807.32080773
  -exchange      EXHF   =         0.00000000
  -V(xc)+E(xc)   XCENC  =        46.22489011
  PAW double counting   =      3711.26622449    -3423.01674647
  entropy T*S    EENTRO =         0.00000000
  eigenvalues    EBANDS =     -1783.49891317
  atomic energy  EATOM  =      7287.06411261
  Solvation  Ediel_sol  =         0.00000000
  ---------------------------------------------------
  free energy    TOTEN  =      -125.17826420 eV

  energy without entropy =     -125.17826420  energy(sigma->0) =     -125.17826420


--------------------------------------------------------------------------------------------------------




--------------------------------------- Iteration      1(   6)  ---------------------------------------


    POTLOK:  cpu time    0.0289: real time    0.0411
    SETDIJ:  cpu time    0.0029: real time    0.0029
     EDDAV:  cpu time    3.2561: real time    3.2638
 BZINTS: Fermi energy: -2.356787;144.000000 electrons
         Band energy:***********;  BLOECHL correction:  0.000000
       DOS:  cpu time    0.0024: real time    0.0024
    CHARGE:  cpu time    0.2182: real time    0.2187
    MIXING:  cpu time    0.0069: real time    0.0069
    --------------------------------------------
      LOOP:  cpu time    3.5154: real time    3.5358

 eigenvalue-minimisations  :  3000
 total energy-change (2. order) : 0.8916446E+01  (-0.2281191E+01)
 number of electron     144.0000001 magnetization 
 augmentation part      -16.7327743 magnetization 

 Broyden mixing:
  rms(total) = 0.47269E+00    rms(broyden)= 0.47269E+00
  rms(prec ) = 0.58743E+00
  weight for this iteration     100.00

 eigenvalues of (default mixing * dielectric matrix)
  average eigenvalue GAMMA=   1.5217
  1.5217

 Free energy of the ion-electron system (eV)
  ---------------------------------------------------
  alpha Z        PSCENC =       166.34077906
  Ewald energy   TEWEN  =     11677.76219690
  -Hartree energ DENC   =    -17899.39236429
  -exchange      EXHF   =         0.00000000
  -V(xc)+E(xc)   XCENC  =        48.84838596
  PAW double counting   =      3744.60230401    -3464.17450191
  entropy T*S    EENTRO =         0.00000000
  eigenvalues    EBANDS =     -1677.31273103
  atomic energy  EATOM  =      7287.06411261
  Solvation  Ediel_sol  =         0.00000000
  ---------------------------------------------------
  free energy    TOTEN  =      -116.26181870 eV

  energy without entropy =     -116.26181870  energy(sigma->0) =     -116.26181870


--------------------------------------------------------------------------------------------------------




--------------------------------------- Iteration      1(   7)  ---------------------------------------


    POTLOK:  cpu time    0.0211: real time    0.0320
    SETDIJ:  cpu time    0.0019: real time    0.0019
     EDDAV:  cpu time    3.5651: real time    3.5736
 BZINTS: Fermi energy: -1.567238;144.000000 electrons
         Band energy:***********;  BLOECHL correction:  0.000000
       DOS:  cpu time    0.0032: real time    0.0032
    CHARGE:  cpu time    0.1353: real time    0.1357
    MIXING:  cpu time    0.0079: real time    0.0082
    --------------------------------------------
      LOOP:  cpu time    3.7345: real time    3.7546

 eigenvalue-minimisations  :  3584
 total energy-change (2. order) : 0.1345001E+01  (-0.1019752E+01)
 number of electron     144.0000000 magnetization 
 augmentation part      -16.8869294 magnetization 

 Broyden mixing:
  rms(total) = 0.23940E+00    rms(broyden)= 0.23940E+00
  rms(prec ) = 0.29006E+00
  weight for this iteration     100.00

 eigenvalues of (default mixing * dielectric matrix)
  average eigenvalue GAMMA=   1.7654
  1.7654  1.7654

 Free energy of the ion-electron system (eV)
  ---------------------------------------------------
  alpha Z        PSCENC =       166.34077906
  Ewald energy   TEWEN  =     11677.76219690
  -Hartree energ DENC   =    -17972.93543514
  -exchange      EXHF   =         0.00000000
  -V(xc)+E(xc)   XCENC  =        50.95331317
  PAW double counting   =      3787.64530546    -3513.47168638
  entropy T*S    EENTRO =         0.00000000
  eigenvalues    EBANDS =     -1598.27540361
  atomic energy  EATOM  =      7287.06411261
  Solvation  Ediel_sol  =         0.00000000
  ---------------------------------------------------
  free energy    TOTEN  =      -114.91681795 eV

  energy without entropy =     -114.91681795  energy(sigma->0) =     -114.91681795


--------------------------------------------------------------------------------------------------------




--------------------------------------- Iteration      1(   8)  ---------------------------------------


    POTLOK:  cpu time    0.0406: real time    0.0512
    SETDIJ:  cpu time    0.0026: real time    0.0026
     EDDAV:  cpu time    2.9776: real time    2.9851
 BZINTS: Fermi energy: -1.420916;144.000000 electrons
         Band energy:***********;  BLOECHL correction:  0.000000
       DOS:  cpu time    0.0023: real time    0.0023
    CHARGE:  cpu time    0.1630: real time    0.1634
    MIXING:  cpu time    0.0095: real time    0.0098
    --------------------------------------------
      LOOP:  cpu time    3.1956: real time    3.2144

 eigenvalue-minimisations  :  3104
 total energy-change (2. order) : 0.2842266E+00  (-0.3656932E+00)
 number of electron     144.0000000 magnetization 
 augmentation part      -17.0384035 magnetization 

 Broyden mixing:
  rms(total) = 0.11715E+00    rms(broyden)= 0.11715E+00
  rms(prec ) = 0.18982E+00
  weight for this iteration     100.00

 eigenvalues of (default mixing * dielectric matrix)
  average eigenvalue GAMMA=   1.6385
  2.5206  1.1975  1.1975

 Free energy of the ion-electron system (eV)
  ---------------------------------------------------
  alpha Z        PSCENC =       166.34077906
  Ewald energy   TEWEN  =     11677.76219690
  -Hartree energ DENC   =    -18004.44723123
  -exchange      EXHF   =         0.00000000
  -V(xc)+E(xc)   XCENC  =        51.82250689
  PAW double counting   =      3833.52905614    -3561.26023643
  entropy T*S    EENTRO =         0.00000000
  eigenvalues    EBANDS =     -1565.44377523
  atomic energy  EATOM  =      7287.06411261
  Solvation  Ediel_sol  =         0.00000000
  ---------------------------------------------------
  free energy    TOTEN  =      -114.63259130 eV

  energy without entropy =     -114.63259130  energy(sigma->0) =     -114.63259130


--------------------------------------------------------------------------------------------------------




--------------------------------------- Iteration      1(   9)  ---------------------------------------


    POTLOK:  cpu time    0.0368: real time    0.0479
    SETDIJ:  cpu time    0.0038: real time    0.0038
     EDDAV:  cpu time    3.3063: real time    3.3141
 BZINTS: Fermi energy: -1.081365;144.000000 electrons
         Band energy:***********;  BLOECHL correction:  0.000000
       DOS:  cpu time    0.0020: real time    0.0020
    CHARGE:  cpu time    0.1686: real time    0.1690
    MIXING:  cpu time    0.0054: real time    0.0055
    --------------------------------------------
      LOOP:  cpu time    3.5230: real time    3.5423

 eigenvalue-minimisations  :  3112
 total energy-change (2. order) : 0.2896563E+00  (-0.1133365E+00)
 number of electron     144.0000000 magnetization 
 augmentation part      -17.0216933 magnetization 

 Broyden mixing:
  rms(total) = 0.54845E-01    rms(broyden)= 0.54845E-01
  rms(prec ) = 0.80311E-01
  weight for this iteration     100.00

 eigenvalues of (default mixing * dielectric matrix)
  average eigenvalue GAMMA=   1.3838
  2.3930  1.1782  1.1782  0.7857

 Free energy of the ion-electron system (eV)
  ---------------------------------------------------
  alpha Z        PSCENC =       166.34077906
  Ewald energy   TEWEN  =     11677.76219690
  -Hartree energ DENC   =    -18044.54625957
  -exchange      EXHF   =         0.00000000
  -V(xc)+E(xc)   XCENC  =        52.69248892
  PAW double counting   =      3845.52907318    -3574.74820592
  entropy T*S    EENTRO =         0.00000000
  eigenvalues    EBANDS =     -1524.43712018
  atomic energy  EATOM  =      7287.06411261
  Solvation  Ediel_sol  =         0.00000000
  ---------------------------------------------------
  free energy    TOTEN  =      -114.34293501 eV

  energy without entropy =     -114.34293501  energy(sigma->0) =     -114.34293501


--------------------------------------------------------------------------------------------------------




--------------------------------------- Iteration      1(  10)  ---------------------------------------


    POTLOK:  cpu time    0.0224: real time    0.0339
    SETDIJ:  cpu time    0.0018: real time    0.0018
     EDDAV:  cpu time    3.3082: real time    3.3160
 BZINTS: Fermi energy: -1.035131;144.000000 electrons
         Band energy:***********;  BLOECHL correction:  0.000000
       DOS:  cpu time    0.0022: real time    0.0022
    CHARGE:  cpu time    0.1659: real time    0.1663
    MIXING:  cpu time    0.0085: real time    0.0086
    --------------------------------------------
      LOOP:  cpu time    3.5090: real time    3.5288

 eigenvalue-minimisations  :  3632
 total energy-change (2. order) :-0.4633698E-02  (-0.2403467E-01)
 number of electron     144.0000000 magnetization 
 augmentation part      -17.0603511 magnetization 

 Broyden mixing:
  rms(total) = 0.41297E-01    rms(broyden)= 0.41297E-01
  rms(prec ) = 0.62233E-01
  weight for this iteration     100.00

 eigenvalues of (default mixing * dielectric matrix)
  average eigenvalue GAMMA=   1.5870
  2.4623  2.4623  1.0931  0.9585  0.9585

 Free energy of the ion-electron system (eV)
  ---------------------------------------------------
  alpha Z        PSCENC =       166.34077906
  Ewald energy   TEWEN  =     11677.76219690
  -Hartree energ DENC   =    -18054.74631730
  -exchange      EXHF   =         0.00000000
  -V(xc)+E(xc)   XCENC  =        52.69554458
  PAW double counting   =      3841.22341944    -3570.08876137
  entropy T*S    EENTRO =         0.00000000
  eigenvalues    EBANDS =     -1514.59854262
  atomic energy  EATOM  =      7287.06411261
  Solvation  Ediel_sol  =         0.00000000
  ---------------------------------------------------
  free energy    TOTEN  =      -114.34756870 eV

  energy without entropy =     -114.34756870  energy(sigma->0) =     -114.34756870


--------------------------------------------------------------------------------------------------------




--------------------------------------- Iteration      1(  11)  ---------------------------------------


    POTLOK:  cpu time    0.0462: real time    0.0560
    SETDIJ:  cpu time    0.0044: real time    0.0044
     EDDAV:  cpu time    3.5050: real time    3.5133
 BZINTS: Fermi energy: -0.904559;144.000000 electrons
         Band energy:***********;  BLOECHL correction:  0.000000
       DOS:  cpu time    0.0020: real time    0.0020
    CHARGE:  cpu time    0.1666: real time    0.1670
    MIXING:  cpu time    0.0068: real time    0.0069
    --------------------------------------------
      LOOP:  cpu time    3.7310: real time    3.7496

 eigenvalue-minimisations  :  3272
 total energy-change (2. order) : 0.1921863E-01  (-0.5359752E-02)
 number of electron     144.0000000 magnetization 
 augmentation part      -17.0712665 magnetization 

 Broyden mixing:
  rms(total) = 0.14899E-01    rms(broyden)= 0.14899E-01
  rms(prec ) = 0.31331E-01
  weight for this iteration     100.00

 eigenvalues of (default mixing * dielectric matrix)
  average eigenvalue GAMMA=   1.5986
  2.7855  2.7855  1.0566  1.0566  0.9538  0.9538

 Free energy of the ion-electron system (eV)
  ---------------------------------------------------
  alpha Z        PSCENC =       166.34077906
  Ewald energy   TEWEN  =     11677.76219690
  -Hartree energ DENC   =    -18075.86000136
  -exchange      EXHF   =         0.00000000
  -V(xc)+E(xc)   XCENC  =        52.87617047
  PAW double counting   =      3842.77449821    -3571.29629818
  entropy T*S    EENTRO =         0.00000000
  eigenvalues    EBANDS =     -1493.98980777
  atomic energy  EATOM  =      7287.06411261
  Solvation  Ediel_sol  =         0.00000000
  ---------------------------------------------------
  free energy    TOTEN  =      -114.32835007 eV

  energy without entropy =     -114.32835007  energy(sigma->0) =     -114.32835007


--------------------------------------------------------------------------------------------------------




--------------------------------------- Iteration      1(  12)  ---------------------------------------


    POTLOK:  cpu time    0.0217: real time    0.0333
    SETDIJ:  cpu time    0.0018: real time    0.0018
     EDDAV:  cpu time    3.4145: real time    3.4226
 BZINTS: Fermi energy: -0.746225;144.000000 electrons
         Band energy:***********;  BLOECHL correction:  0.000000
       DOS:  cpu time    0.0024: real time    0.0024
    CHARGE:  cpu time    0.1896: real time    0.1900
    MIXING:  cpu time    0.0058: real time    0.0059
    --------------------------------------------
      LOOP:  cpu time    3.6358: real time    3.6561

 eigenvalue-minimisations  :  3256
 total energy-change (2. order) :-0.6891098E-03  (-0.1174011E-02)
 number of electron     144.0000000 magnetization 
 augmentation part      -17.0671364 magnetization 

 Broyden mixing:
  rms(total) = 0.12372E-01    rms(broyden)= 0.12372E-01
  rms(prec ) = 0.21459E-01
  weight for this iteration     100.00

 eigenvalues of (default mixing * dielectric matrix)
  average eigenvalue GAMMA=   1.7233
  3.7896  2.1270  2.1270  1.1136  1.1136  0.8960  0.8960

 Free energy of the ion-electron system (eV)
  ---------------------------------------------------
  alpha Z        PSCENC =       166.34077906
  Ewald energy   TEWEN  =     11677.76219690
  -Hartree energ DENC   =    -18088.44094318
  -exchange      EXHF   =         0.00000000
  -V(xc)+E(xc)   XCENC  =        52.94562438
  PAW double counting   =      3841.66297813    -3570.04781445
  entropy T*S    EENTRO =         0.00000000
  eigenvalues    EBANDS =     -1481.61597261
  atomic energy  EATOM  =      7287.06411261
  Solvation  Ediel_sol  =         0.00000000
  ---------------------------------------------------
  free energy    TOTEN  =      -114.32903918 eV

  energy without entropy =     -114.32903918  energy(sigma->0) =     -114.32903918


--------------------------------------------------------------------------------------------------------




--------------------------------------- Iteration      1(  13)  ---------------------------------------


    POTLOK:  cpu time    0.0311: real time    0.0436
    SETDIJ:  cpu time    0.0023: real time    0.0023
     EDDAV:  cpu time    3.2772: real time    3.2850
 BZINTS: Fermi energy: -0.681831;144.000000 electrons
         Band energy:***********;  BLOECHL correction:  0.000000
       DOS:  cpu time    0.0025: real time    0.0025
    CHARGE:  cpu time    0.1557: real time    0.1561
    MIXING:  cpu time    0.0068: real time    0.0069
    --------------------------------------------
      LOOP:  cpu time    3.4756: real time    3.4963

 eigenvalue-minimisations  :  3296
 total energy-change (2. order) :-0.6447775E-02  (-0.1015625E-02)
 number of electron     144.0000000 magnetization 
 augmentation part      -17.0675110 magnetization 

 Broyden mixing:
  rms(total) = 0.68466E-02    rms(broyden)= 0.68466E-02
  rms(prec ) = 0.11724E-01
  weight for this iteration     100.00

 eigenvalues of (default mixing * dielectric matrix)
  average eigenvalue GAMMA=   1.8157
  4.4018  2.5380  2.5380  1.1997  1.1997  0.8853  0.8853  0.8782

 Free energy of the ion-electron system (eV)
  ---------------------------------------------------
  alpha Z        PSCENC =       166.34077906
  Ewald energy   TEWEN  =     11677.76219690
  -Hartree energ DENC   =    -18100.10434299
  -exchange      EXHF   =         0.00000000
  -V(xc)+E(xc)   XCENC  =        53.02892025
  PAW double counting   =      3840.62773000    -3569.13976569
  entropy T*S    EENTRO =         0.00000000
  eigenvalues    EBANDS =     -1469.91511708
  atomic energy  EATOM  =      7287.06411261
  Solvation  Ediel_sol  =         0.00000000
  ---------------------------------------------------
  free energy    TOTEN  =      -114.33548695 eV

  energy without entropy =     -114.33548695  energy(sigma->0) =     -114.33548695


--------------------------------------------------------------------------------------------------------




--------------------------------------- Iteration      1(  14)  ---------------------------------------


    POTLOK:  cpu time    0.0243: real time    0.0364
    SETDIJ:  cpu time    0.0022: real time    0.0022
     EDDAV:  cpu time    3.2498: real time    3.2575
 BZINTS: Fermi energy: -0.659997;144.000000 electrons
         Band energy:***********;  BLOECHL correction:  0.000000
       DOS:  cpu time    0.0027: real time    0.0027
    CHARGE:  cpu time    0.1622: real time    0.1626
    MIXING:  cpu time    0.0060: real time    0.0061
    --------------------------------------------
      LOOP:  cpu time    3.4472: real time    3.4674

 eigenvalue-minimisations  :  3168
 total energy-change (2. order) :-0.4823313E-02  (-0.2507181E-03)
 number of electron     144.0000000 magnetization 
 augmentation part      -17.0675475 magnetization 

 Broyden mixing:
  rms(total) = 0.52473E-02    rms(broyden)= 0.52473E-02
  rms(prec ) = 0.85080E-02
  weight for this iteration     100.00

 eigenvalues of (default mixing * dielectric matrix)
  average eigenvalue GAMMA=   1.8459
  4.8565  2.7837  2.2193  1.4298  1.4298  0.9084  0.9084  1.0386  1.0386

 Free energy of the ion-electron system (eV)
  ---------------------------------------------------
  alpha Z        PSCENC =       166.34077906
  Ewald energy   TEWEN  =     11677.76219690
  -Hartree energ DENC   =    -18104.04498883
  -exchange      EXHF   =         0.00000000
  -V(xc)+E(xc)   XCENC  =        53.03133605
  PAW double counting   =      3839.48458889    -3567.98267240
  entropy T*S    EENTRO =         0.00000000
  eigenvalues    EBANDS =     -1465.99566254
  atomic energy  EATOM  =      7287.06411261
  Solvation  Ediel_sol  =         0.00000000
  ---------------------------------------------------
  free energy    TOTEN  =      -114.34031027 eV

  energy without entropy =     -114.34031027  energy(sigma->0) =     -114.34031027


--------------------------------------------------------------------------------------------------------




--------------------------------------- Iteration      1(  15)  ---------------------------------------


    POTLOK:  cpu time    0.0245: real time    0.0367
    SETDIJ:  cpu time    0.0020: real time    0.0020
     EDDAV:  cpu time    3.1199: real time    3.1273
 BZINTS: Fermi energy: -0.644641;144.000000 electrons
         Band energy:***********;  BLOECHL correction:  0.000000
       DOS:  cpu time    0.0023: real time    0.0024
    CHARGE:  cpu time    0.1580: real time    0.1584
    MIXING:  cpu time    0.0070: real time    0.0071
    --------------------------------------------
      LOOP:  cpu time    3.3137: real time    3.3338

 eigenvalue-minimisations  :  3136
 total energy-change (2. order) :-0.1904578E-02  (-0.1569414E-03)
 number of electron     144.0000000 magnetization 
 augmentation part      -17.0688180 magnetization 

 Broyden mixing:
  rms(total) = 0.21772E-02    rms(broyden)= 0.21772E-02
  rms(prec ) = 0.41338E-02
  weight for this iteration     100.00

 eigenvalues of (default mixing * dielectric matrix)
  average eigenvalue GAMMA=   1.9445
  5.6189  3.4713  2.3472  0.9046  0.9046  1.5120  1.3256  1.3256  1.0176  1.0176

 Free energy of the ion-electron system (eV)
  ---------------------------------------------------
  alpha Z        PSCENC =       166.34077906
  Ewald energy   TEWEN  =     11677.76219690
  -Hartree energ DENC   =    -18105.73707531
  -exchange      EXHF   =         0.00000000
  -V(xc)+E(xc)   XCENC  =        53.02630096
  PAW double counting   =      3839.69246061    -3568.15393209
  entropy T*S    EENTRO =         0.00000000
  eigenvalues    EBANDS =     -1464.33705758
  atomic energy  EATOM  =      7287.06411261
  Solvation  Ediel_sol  =         0.00000000
  ---------------------------------------------------
  free energy    TOTEN  =      -114.34221485 eV

  energy without entropy =     -114.34221485  energy(sigma->0) =     -114.34221485


--------------------------------------------------------------------------------------------------------




--------------------------------------- Iteration      1(  16)  ---------------------------------------


    POTLOK:  cpu time    0.0242: real time    0.0368
    SETDIJ:  cpu time    0.0020: real time    0.0020
     EDDAV:  cpu time    3.1223: real time    3.1297
 BZINTS: Fermi energy: -0.634374;144.000000 electrons
         Band energy:***********;  BLOECHL correction:  0.000000
       DOS:  cpu time    0.0024: real time    0.0024
    CHARGE:  cpu time    0.2264: real time    0.2270
    MIXING:  cpu time    0.0062: real time    0.0063
    --------------------------------------------
      LOOP:  cpu time    3.3836: real time    3.4042

 eigenvalue-minimisations  :  3120
 total energy-change (2. order) :-0.1259487E-02  (-0.6868423E-04)
 number of electron     144.0000000 magnetization 
 augmentation part      -17.0684439 magnetization 

 Broyden mixing:
  rms(total) = 0.14844E-02    rms(broyden)= 0.14844E-02
  rms(prec ) = 0.27255E-02
  weight for this iteration     100.00

 eigenvalues of (default mixing * dielectric matrix)
  average eigenvalue GAMMA=   1.9917
  5.7668  3.9905  2.2417  1.9337  1.6757  0.9078  0.9078  1.2637  1.2637  0.9785
  0.9785

 Free energy of the ion-electron system (eV)
  ---------------------------------------------------
  alpha Z        PSCENC =       166.34077906
  Ewald energy   TEWEN  =     11677.76219690
  -Hartree energ DENC   =    -18106.99864105
  -exchange      EXHF   =         0.00000000
  -V(xc)+E(xc)   XCENC  =        53.02412893
  PAW double counting   =      3839.68176776    -3568.15306369
  entropy T*S    EENTRO =         0.00000000
  eigenvalues    EBANDS =     -1463.06475484
  atomic energy  EATOM  =      7287.06411261
  Solvation  Ediel_sol  =         0.00000000
  ---------------------------------------------------
  free energy    TOTEN  =      -114.34347433 eV

  energy without entropy =     -114.34347433  energy(sigma->0) =     -114.34347433


--------------------------------------------------------------------------------------------------------




--------------------------------------- Iteration      1(  17)  ---------------------------------------


    POTLOK:  cpu time    0.0214: real time    0.0324
    SETDIJ:  cpu time    0.0015: real time    0.0015
     EDDAV:  cpu time    3.1453: real time    3.1528
 BZINTS: Fermi energy: -0.628885;144.000000 electrons
         Band energy:***********;  BLOECHL correction:  0.000000
       DOS:  cpu time    0.0024: real time    0.0024
    CHARGE:  cpu time    0.1644: real time    0.1648
    MIXING:  cpu time    0.0073: real time    0.0073
    --------------------------------------------
      LOOP:  cpu time    3.3423: real time    3.3612

 eigenvalue-minimisations  :  2912
 total energy-change (2. order) :-0.7881825E-03  (-0.3038465E-04)
 number of electron     144.0000000 magnetization 
 augmentation part      -17.0685195 magnetization 

 Broyden mixing:
  rms(total) = 0.86530E-03    rms(broyden)= 0.86529E-03
  rms(prec ) = 0.17156E-02
  weight for this iteration     100.00

 eigenvalues of (default mixing * dielectric matrix)
  average eigenvalue GAMMA=   2.0488
  6.0665  4.5429  2.5212  2.3500  1.6078  0.9069  0.9069  1.3077  1.3077  1.0486
  1.0486  0.9703

 Free energy of the ion-electron system (eV)
  ---------------------------------------------------
  alpha Z        PSCENC =       166.34077906
  Ewald energy   TEWEN  =     11677.76219690
  -Hartree energ DENC   =    -18107.72138813
  -exchange      EXHF   =         0.00000000
  -V(xc)+E(xc)   XCENC  =        53.02384288
  PAW double counting   =      3839.70822694    -3568.17734359
  entropy T*S    EENTRO =         0.00000000
  eigenvalues    EBANDS =     -1462.34468917
  atomic energy  EATOM  =      7287.06411261
  Solvation  Ediel_sol  =         0.00000000
  ---------------------------------------------------
  free energy    TOTEN  =      -114.34426251 eV

  energy without entropy =     -114.34426251  energy(sigma->0) =     -114.34426251


--------------------------------------------------------------------------------------------------------




--------------------------------------- Iteration      1(  18)  ---------------------------------------


    POTLOK:  cpu time    0.0199: real time    0.0312
    SETDIJ:  cpu time    0.0018: real time    0.0018
     EDDAV:  cpu time    3.0457: real time    3.0529
 BZINTS: Fermi energy: -0.625749;144.000000 electrons
         Band energy:***********;  BLOECHL correction:  0.000000
       DOS:  cpu time    0.0025: real time    0.0025
    CHARGE:  cpu time    0.1403: real time    0.1406
    MIXING:  cpu time    0.0070: real time    0.0070
    --------------------------------------------
      LOOP:  cpu time    3.2171: real time    3.2360

 eigenvalue-minimisations  :  2936
 total energy-change (2. order) :-0.7626058E-03  (-0.1593778E-04)
 number of electron     144.0000000 magnetization 
 augmentation part      -17.0686652 magnetization 

 Broyden mixing:
  rms(total) = 0.55381E-03    rms(broyden)= 0.55381E-03
  rms(prec ) = 0.99239E-03
  weight for this iteration     100.00

 eigenvalues of (default mixing * dielectric matrix)
  average eigenvalue GAMMA=   2.1208
  6.1637  5.4252  2.9025  2.3939  1.8832  0.9064  0.9064  1.3791  1.3791  1.1658
  1.1658  0.9497  0.9497

 Free energy of the ion-electron system (eV)
  ---------------------------------------------------
  alpha Z        PSCENC =       166.34077906
  Ewald energy   TEWEN  =     11677.76219690
  -Hartree energ DENC   =    -18108.31907852
  -exchange      EXHF   =         0.00000000
  -V(xc)+E(xc)   XCENC  =        53.02464164
  PAW double counting   =      3839.70710869    -3568.17572945
  entropy T*S    EENTRO =         0.00000000
  eigenvalues    EBANDS =     -1461.74905605
  atomic energy  EATOM  =      7287.06411261
  Solvation  Ediel_sol  =         0.00000000
  ---------------------------------------------------
  free energy    TOTEN  =      -114.34502512 eV

  energy without entropy =     -114.34502512  energy(sigma->0) =     -114.34502512


--------------------------------------------------------------------------------------------------------




--------------------------------------- Iteration      1(  19)  ---------------------------------------


    POTLOK:  cpu time    0.0206: real time    0.0320
    SETDIJ:  cpu time    0.0022: real time    0.0022
     EDDAV:  cpu time    2.6447: real time    2.6510
 BZINTS: Fermi energy: -0.624967;144.000000 electrons
         Band energy:***********;  BLOECHL correction:  0.000000
       DOS:  cpu time    0.0024: real time    0.0024
    CHARGE:  cpu time    0.1525: real time    0.1528
    MIXING:  cpu time    0.0125: real time    0.0125
    --------------------------------------------
      LOOP:  cpu time    2.8349: real time    2.8530

 eigenvalue-minimisations  :  2664
 total energy-change (2. order) :-0.6985352E-03  (-0.9598113E-05)
 number of electron     144.0000000 magnetization 
 augmentation part      -17.0688958 magnetization 

 Broyden mixing:
  rms(total) = 0.43314E-03    rms(broyden)= 0.43314E-03
  rms(prec ) = 0.64316E-03
  weight for this iteration     100.00

 eigenvalues of (default mixing * dielectric matrix)
  average eigenvalue GAMMA=   2.2138
  6.3042  6.3042  3.2455  2.5417  2.2326  1.5642  1.5642  0.9064  0.9064  1.2277
  1.2277  0.9920  0.9920  0.9848

 Free energy of the ion-electron system (eV)
  ---------------------------------------------------
  alpha Z        PSCENC =       166.34077906
  Ewald energy   TEWEN  =     11677.76219690
  -Hartree energ DENC   =    -18108.57859784
  -exchange      EXHF   =         0.00000000
  -V(xc)+E(xc)   XCENC  =        53.02399394
  PAW double counting   =      3839.69512437    -3568.16332196
  entropy T*S    EENTRO =         0.00000000
  eigenvalues    EBANDS =     -1461.49001073
  atomic energy  EATOM  =      7287.06411261
  Solvation  Ediel_sol  =         0.00000000
  ---------------------------------------------------
  free energy    TOTEN  =      -114.34572366 eV

  energy without entropy =     -114.34572366  energy(sigma->0) =     -114.34572366


--------------------------------------------------------------------------------------------------------




--------------------------------------- Iteration      1(  20)  ---------------------------------------


    POTLOK:  cpu time    0.0474: real time    0.0574
    SETDIJ:  cpu time    0.0052: real time    0.0052
     EDDAV:  cpu time    2.8253: real time    2.8320
 BZINTS: Fermi energy: -0.624725;144.000000 electrons
         Band energy:***********;  BLOECHL correction:  0.000000
       DOS:  cpu time    0.0024: real time    0.0024
    CHARGE:  cpu time    0.1339: real time    0.1342
    MIXING:  cpu time    0.0068: real time    0.0069
    --------------------------------------------
      LOOP:  cpu time    3.0211: real time    3.0382

 eigenvalue-minimisations  :  2704
 total energy-change (2. order) :-0.3988222E-03  (-0.6020087E-05)
 number of electron     144.0000000 magnetization 
 augmentation part      -17.0689895 magnetization 

 Broyden mixing:
  rms(total) = 0.16295E-03    rms(broyden)= 0.16295E-03
  rms(prec ) = 0.22674E-03
  weight for this iteration     100.00

 eigenvalues of (default mixing * dielectric matrix)
  average eigenvalue GAMMA=   2.3028
  7.0507  7.0507  3.6880  2.7612  2.3081  1.6291  1.6291  0.9064  0.9064  1.2352
  1.2352  1.1134  1.1134  0.9574  0.9574

 Free energy of the ion-electron system (eV)
  ---------------------------------------------------
  alpha Z        PSCENC =       166.34077906
  Ewald energy   TEWEN  =     11677.76219690
  -Hartree energ DENC   =    -18108.67027718
  -exchange      EXHF   =         0.00000000
  -V(xc)+E(xc)   XCENC  =        53.02358493
  PAW double counting   =      3839.69803963    -3568.16505074
  entropy T*S    EENTRO =         0.00000000
  eigenvalues    EBANDS =     -1461.39950767
  atomic energy  EATOM  =      7287.06411261
  Solvation  Ediel_sol  =         0.00000000
  ---------------------------------------------------
  free energy    TOTEN  =      -114.34612248 eV

  energy without entropy =     -114.34612248  energy(sigma->0) =     -114.34612248


--------------------------------------------------------------------------------------------------------




--------------------------------------- Iteration      1(  21)  ---------------------------------------


    POTLOK:  cpu time    0.0218: real time    0.0345
    SETDIJ:  cpu time    0.0015: real time    0.0015
     EDDAV:  cpu time    2.5715: real time    2.5776
 BZINTS: Fermi energy: -0.624875;144.000000 electrons
         Band energy:***********;  BLOECHL correction:  0.000000
       DOS:  cpu time    0.0056: real time    0.0057
    CHARGE:  cpu time    0.1512: real time    0.1515
    MIXING:  cpu time    0.0124: real time    0.0124
    --------------------------------------------
      LOOP:  cpu time    2.7639: real time    2.7832

 eigenvalue-minimisations  :  2440
 total energy-change (2. order) :-0.1236823E-03  (-0.1424430E-05)
 number of electron     144.0000000 magnetization 
 augmentation part      -17.0689313 magnetization 

 Broyden mixing:
  rms(total) = 0.10229E-03    rms(broyden)= 0.10229E-03
  rms(prec ) = 0.12665E-03
  weight for this iteration     100.00

 eigenvalues of (default mixing * dielectric matrix)
  average eigenvalue GAMMA=   2.3778
  8.4549  6.9298  3.9435  2.9543  2.3587  1.8586  1.8586  0.9064  0.9064  1.2631
  1.2631  1.2120  1.2120  0.9631  0.9631  0.9968

 Free energy of the ion-electron system (eV)
  ---------------------------------------------------
  alpha Z        PSCENC =       166.34077906
  Ewald energy   TEWEN  =     11677.76219690
  -Hartree energ DENC   =    -18108.69328302
  -exchange      EXHF   =         0.00000000
  -V(xc)+E(xc)   XCENC  =        53.02333804
  PAW double counting   =      3839.68437554    -3568.15130570
  entropy T*S    EENTRO =         0.00000000
  eigenvalues    EBANDS =     -1461.37645957
  atomic energy  EATOM  =      7287.06411261
  Solvation  Ediel_sol  =         0.00000000
  ---------------------------------------------------
  free energy    TOTEN  =      -114.34624616 eV

  energy without entropy =     -114.34624616  energy(sigma->0) =     -114.34624616


--------------------------------------------------------------------------------------------------------




--------------------------------------- Iteration      1(  22)  ---------------------------------------


    POTLOK:  cpu time    0.0266: real time    0.0370
    SETDIJ:  cpu time    0.0092: real time    0.0092
     EDDAV:  cpu time    2.3358: real time    2.3413
 BZINTS: Fermi energy: -0.625154;144.000000 electrons
         Band energy:***********;  BLOECHL correction:  0.000000
       DOS:  cpu time    0.0028: real time    0.0028
    CHARGE:  cpu time    0.1374: real time    0.1377
    MIXING:  cpu time    0.0073: real time    0.0073
    --------------------------------------------
      LOOP:  cpu time    2.5190: real time    2.5353

 eigenvalue-minimisations  :  2328
 total energy-change (2. order) :-0.4019383E-04  (-0.3798010E-06)
 number of electron     144.0000000 magnetization 
 augmentation part      -17.0689173 magnetization 

 Broyden mixing:
  rms(total) = 0.47338E-04    rms(broyden)= 0.47338E-04
  rms(prec ) = 0.61926E-04
  weight for this iteration     100.00

 eigenvalues of (default mixing * dielectric matrix)
  average eigenvalue GAMMA=   2.3636
  8.7465  7.0414  4.0799  3.0674  2.4862  1.8968  1.8968  0.9064  0.9064  1.2612
  1.2612  1.3227  1.3227  1.0421  1.0421  0.9510  0.9510

 Free energy of the ion-electron system (eV)
  ---------------------------------------------------
  alpha Z        PSCENC =       166.34077906
  Ewald energy   TEWEN  =     11677.76219690
  -Hartree energ DENC   =    -18108.68163803
  -exchange      EXHF   =         0.00000000
  -V(xc)+E(xc)   XCENC  =        53.02300440
  PAW double counting   =      3839.66978806    -3568.13687276
  entropy T*S    EENTRO =         0.00000000
  eigenvalues    EBANDS =     -1461.38765659
  atomic energy  EATOM  =      7287.06411261
  Solvation  Ediel_sol  =         0.00000000
  ---------------------------------------------------
  free energy    TOTEN  =      -114.34628635 eV

  energy without entropy =     -114.34628635  energy(sigma->0) =     -114.34628635


--------------------------------------------------------------------------------------------------------




--------------------------------------- Iteration      1(  23)  ---------------------------------------


    POTLOK:  cpu time    0.0185: real time    0.0311
    SETDIJ:  cpu time    0.0023: real time    0.0023
     EDDAV:  cpu time    2.4081: real time    2.4138
 BZINTS: Fermi energy: -0.625215;144.000000 electrons
         Band energy:***********;  BLOECHL correction:  0.000000
       DOS:  cpu time    0.0025: real time    0.0025
    CHARGE:  cpu time    0.1646: real time    0.1650
    MIXING:  cpu time    0.0078: real time    0.0079
    --------------------------------------------
      LOOP:  cpu time    2.6039: real time    2.6226

 eigenvalue-minimisations  :  2024
 total energy-change (2. order) :-0.1059719E-04  (-0.7096591E-07)
 number of electron     144.0000000 magnetization 
 augmentation part      -17.0689183 magnetization 

 Broyden mixing:
  rms(total) = 0.24064E-04    rms(broyden)= 0.24064E-04
  rms(prec ) = 0.32329E-04
  weight for this iteration     100.00

 eigenvalues of (default mixing * dielectric matrix)
  average eigenvalue GAMMA=   2.3869
  8.9745  7.0653  4.2051  3.3233  2.4974  2.2486  1.9488  1.9488  0.9064  0.9064
  1.2611  1.2611  1.2314  1.2314  1.0617  0.9640  0.9640  0.9653

 Free energy of the ion-electron system (eV)
  ---------------------------------------------------
  alpha Z        PSCENC =       166.34077906
  Ewald energy   TEWEN  =     11677.76219690
  -Hartree energ DENC   =    -18108.68676019
  -exchange      EXHF   =         0.00000000
  -V(xc)+E(xc)   XCENC  =        53.02306722
  PAW double counting   =      3839.66943066    -3568.13663993
  entropy T*S    EENTRO =         0.00000000
  eigenvalues    EBANDS =     -1461.38248327
  atomic energy  EATOM  =      7287.06411261
  Solvation  Ediel_sol  =         0.00000000
  ---------------------------------------------------
  free energy    TOTEN  =      -114.34629695 eV

  energy without entropy =     -114.34629695  energy(sigma->0) =     -114.34629695


--------------------------------------------------------------------------------------------------------




--------------------------------------- Iteration      1(  24)  ---------------------------------------


    POTLOK:  cpu time    0.0250: real time    0.0363
    SETDIJ:  cpu time    0.0021: real time    0.0021
     EDDAV:  cpu time    2.1561: real time    2.1612
 BZINTS: Fermi energy: -0.625285;144.000000 electrons
         Band energy:***********;  BLOECHL correction:  0.000000
       DOS:  cpu time    0.0025: real time    0.0025
    CHARGE:  cpu time    0.1640: real time    0.1644
    MIXING:  cpu time    0.0102: real time    0.0103
    --------------------------------------------
      LOOP:  cpu time    2.3599: real time    2.3768

 eigenvalue-minimisations  :  1888
 total energy-change (2. order) :-0.3469138E-05  (-0.3206716E-07)
 number of electron     144.0000000 magnetization 
 augmentation part      -17.0689199 magnetization 

 Broyden mixing:
  rms(total) = 0.92423E-05    rms(broyden)= 0.92423E-05
  rms(prec ) = 0.14487E-04
  weight for this iteration     100.00

 eigenvalues of (default mixing * dielectric matrix)
  average eigenvalue GAMMA=   2.3592
  9.0664  7.0564  4.3153  3.5023  2.6586  2.4930  1.8864  1.8864  0.9064  0.9064
  1.2624  1.2624  1.3046  1.3046  1.0818  0.9532  0.9532  1.0121  1.0121

 Free energy of the ion-electron system (eV)
  ---------------------------------------------------
  alpha Z        PSCENC =       166.34077906
  Ewald energy   TEWEN  =     11677.76219690
  -Hartree energ DENC   =    -18108.68406922
  -exchange      EXHF   =         0.00000000
  -V(xc)+E(xc)   XCENC  =        53.02302073
  PAW double counting   =      3839.67076670    -3568.13797741
  entropy T*S    EENTRO =         0.00000000
  eigenvalues    EBANDS =     -1461.38512979
  atomic energy  EATOM  =      7287.06411261
  Solvation  Ediel_sol  =         0.00000000
  ---------------------------------------------------
  free energy    TOTEN  =      -114.34630042 eV

  energy without entropy =     -114.34630042  energy(sigma->0) =     -114.34630042


--------------------------------------------------------------------------------------------------------




--------------------------------------- Iteration      1(  25)  ---------------------------------------


    POTLOK:  cpu time    0.0239: real time    0.0354
    SETDIJ:  cpu time    0.0023: real time    0.0023
     EDDAV:  cpu time    2.2932: real time    2.2986
 BZINTS: Fermi energy: -0.625340;144.000000 electrons
         Band energy:***********;  BLOECHL correction:  0.000000
       DOS:  cpu time    0.0024: real time    0.0024
    --------------------------------------------
      LOOP:  cpu time    2.3218: real time    2.3388

 eigenvalue-minimisations  :  1904
 total energy-change (2. order) :-0.7942062E-06  (-0.1368782E-07)
 number of electron     144.0000000 magnetization 
 augmentation part      -17.0689199 magnetization 

 Free energy of the ion-electron system (eV)
  ---------------------------------------------------
  alpha Z        PSCENC =       166.34077906
  Ewald energy   TEWEN  =     11677.76219690
  -Hartree energ DENC   =    -18108.68315260
  -exchange      EXHF   =         0.00000000
  -V(xc)+E(xc)   XCENC  =        53.02299694
  PAW double counting   =      3839.67072156    -3568.13792909
  entropy T*S    EENTRO =         0.00000000
  eigenvalues    EBANDS =     -1461.38602659
  atomic energy  EATOM  =      7287.06411261
  Solvation  Ediel_sol  =         0.00000000
  ---------------------------------------------------
  free energy    TOTEN  =      -114.34630121 eV

[...]
      7     -28.1391      2.00000
      8     -28.1387      2.00000
      9     -14.9592      2.00000
     10     -14.9590      2.00000
     11     -14.9014      2.00000
     12     -14.9014      2.00000
     13     -14.8343      2.00000
     14     -14.8343      2.00000
     15     -14.0607      2.00000
     16     -14.0516      2.00000
     17     -14.0298      2.00000
     18     -14.0280      2.00000
     19     -14.0107      2.00000
     20     -14.0095      2.00000
     21     -13.9617      2.00000
     22     -13.9534      2.00000
     23     -13.9019      2.00000
     24     -13.8999      2.00000
     25     -13.8952      2.00000
     26     -13.8949      2.00000
     27     -13.4479      2.00000
     28     -13.4386      2.00000
     29     -13.3988      2.00000
     30     -13.3909      2.00000
     31     -13.3727      2.00000
     32     -13.3713      2.00000
     33     -11.2029      2.00000
     34     -11.1934      2.00000
     35     -10.8928      2.00000
     36     -10.8792      2.00000
     37      -6.5585      2.00000
     38      -6.5461      2.00000
     39      -6.3470      2.00000
     40      -6.2956      2.00000
     41      -6.2691      2.00000
     42      -6.2288      2.00000
     43      -6.0241      2.00000
     44      -6.0094      2.00000
     45      -5.9737      2.00000
     46      -5.9289      2.00000
     47      -5.9082      2.00000
     48      -5.8081      2.00000
     49      -2.9411      2.00000
     50      -2.8548      2.00000
     51      -2.7025      2.00000
     52      -2.6613      2.00000
     53      -2.3397      2.00000
     54      -2.2915      2.00000
     55      -2.2715      2.00000
     56      -2.2217      2.00000
     57      -2.1101      2.00000
     58      -2.0865      2.00000
     59      -1.9364      2.00000
     60      -1.8696      2.00000
     61      -1.8112      2.00000
     62      -1.7335      2.00000
     63      -1.6248      2.00000
     64      -1.5846      2.00000
     65      -1.4643      2.00000
     66      -1.4014      2.00000
     67      -1.3090      2.00000
     68      -1.1802      2.00000
     69      -1.0891      2.00000
     70      -1.0174      2.00000
     71      -0.9551      2.00000
     72      -0.8969      2.00000
     73       0.2015      0.00000
     74       0.2329      0.00000
     75       0.3529      0.00000
     76       0.3952      0.00000
     77       0.4651      0.00000
     78       0.5628      0.00000
     79       0.6930      0.00000
     80       0.7392      0.00000
     81       0.7720      0.00000
     82       0.8954      0.00000
     83       1.0546      0.00000
     84       1.1343      0.00000
     85       1.2089      0.00000
     86       1.3312      0.00000
     87       1.4368      0.00000
     88       1.5551      0.00000

 k-point    15 :       0.0000    0.5000    0.4000
  band No.  band energies     occupation 
      1     -29.6860      2.00000
      2     -29.6860      2.00000
      3     -28.7639      2.00000
      4     -28.7639      2.00000
      5     -28.6675      2.00000
      6     -28.6675      2.00000
      7     -28.1389      2.00000
      8     -28.1389      2.00000
      9     -14.9586      2.00000
     10     -14.9586      2.00000
     11     -14.9023      2.00000
     12     -14.9023      2.00000
     13     -14.8365      2.00000
     14     -14.8365      2.00000
     15     -14.0581      2.00000
     16     -14.0581      2.00000
     17     -14.0272      2.00000
     18     -14.0272      2.00000
     19     -14.0123      2.00000
     20     -14.0123      2.00000
     21     -13.9589      2.00000
     22     -13.9589      2.00000
     23     -13.9006      2.00000
     24     -13.9006      2.00000
     25     -13.8969      2.00000
     26     -13.8969      2.00000
     27     -13.4430      2.00000
     28     -13.4430      2.00000
     29     -13.3949      2.00000
     30     -13.3949      2.00000
     31     -13.3715      2.00000
     32     -13.3715      2.00000
     33     -11.1929      2.00000
     34     -11.1928      2.00000
     35     -10.8763      2.00000
     36     -10.8763      2.00000
     37      -6.5807      2.00000
     38      -6.5806      2.00000
     39      -6.3032      2.00000
     40      -6.3031      2.00000
     41      -6.2449      2.00000
     42      -6.2449      2.00000
     43      -5.9914      2.00000
     44      -5.9914      2.00000
     45      -5.9572      2.00000
     46      -5.9571      2.00000
     47      -5.8579      2.00000
     48      -5.8578      2.00000
     49      -2.8486      2.00000
     50      -2.8485      2.00000
     51      -2.7007      2.00000
     52      -2.7007      2.00000
     53      -2.3234      2.00000
     54      -2.3234      2.00000
     55      -2.2499      2.00000
     56      -2.2499      2.00000
     57      -2.1052      2.00000
     58      -2.1052      2.00000
     59      -1.8424      2.00000
     60      -1.8424      2.00000
     61      -1.6814      2.00000
     62      -1.6814      2.00000
     63      -1.6541      2.00000
     64      -1.6541      2.00000
     65      -1.4471      2.00000
     66      -1.4471      2.00000
     67      -1.2461      2.00000
     68      -1.2460      2.00000
     69      -1.0763      2.00000
     70      -1.0763      2.00000
     71      -0.9312      2.00000
     72      -0.9312      2.00000
     73       0.1180      0.00000
     74       0.1180      0.00000
     75       0.3397      0.00000
     76       0.3397      0.00000
     77       0.5194      0.00000
     78       0.5194      0.00000
     79       0.6720      0.00000
     80       0.6720      0.00000
     81       0.7480      0.00000
     82       0.7480      0.00000
     83       1.0955      0.00000
     84       1.0955      0.00000
     85       1.3121      0.00000
     86       1.3121      0.00000
     87       1.4139      0.00000
     88       1.4139      0.00000


--------------------------------------------------------------------------------------------------------


 soft charge-density along one line, spin component           1
         0         1         2         3         4         5         6         7         8         9
 total charge-density along one line
 
 pseudopotential strength for first ion, spin component:           1
  3.733  -5.734  -0.000  -0.009  -0.038  -0.000  -0.004  -0.018
 -5.734  -3.004   0.000   0.002   0.009  -0.000  -0.002  -0.007
 -0.000   0.000  -7.159  -0.000  -0.000   1.857  -0.000  -0.000
 -0.009   0.002  -0.000  -7.155  -0.001  -0.000   1.868  -0.004
 -0.038   0.009  -0.000  -0.001  -7.154  -0.000  -0.004   1.868
 -0.000  -0.000   1.857  -0.000  -0.000   7.202  -0.000  -0.000
 -0.004  -0.002  -0.000   1.868  -0.004  -0.000   7.203  -0.000
 -0.018  -0.007  -0.000  -0.004   1.868  -0.000  -0.000   7.203
 -0.000   0.000  -0.013  -0.000  -0.000  -0.010  -0.000  -0.000
 -0.000   0.000  -0.002  -0.000  -0.000  -0.001  -0.000  -0.000
  0.002  -0.001   0.000  -0.004   0.007   0.000  -0.003   0.005
 -0.002   0.001  -0.000  -0.013  -0.003  -0.000  -0.009  -0.002
  0.003  -0.001   0.000  -0.001  -0.012   0.000  -0.001  -0.009
  0.000   0.000   0.001   0.000   0.000   0.000   0.000   0.000
  0.000   0.000   0.000   0.000   0.000  -0.000   0.000   0.000
 -0.000  -0.000  -0.000   0.000  -0.000  -0.000   0.000  -0.000
  0.000   0.000   0.000   0.001   0.000   0.000   0.000   0.000
 -0.000  -0.000  -0.000   0.000   0.001  -0.000   0.000   0.000
 total augmentation occupancy for first ion, spin component:           1
  2.117  -0.284   0.000   0.014   0.054   0.000  -0.006  -0.019   0.000   0.000   0.013  -0.014   0.036   0.000   0.000  -0.006
 -0.284   0.655   0.000  -0.036  -0.136   0.000   0.014   0.034   0.000   0.000  -0.021   0.020  -0.068  -0.000   0.000   0.031
  0.000   0.000   2.012   0.000   0.000  -0.011   0.000   0.000  -0.082   0.019   0.000   0.000  -0.000   0.059  -0.040   0.000
  0.014  -0.036   0.000   1.999   0.003  -0.000  -0.003  -0.002   0.000   0.000  -0.044  -0.069  -0.014   0.000   0.000   0.038
  0.054  -0.136   0.000   0.003   1.995   0.000  -0.002  -0.000   0.000   0.000   0.033  -0.008  -0.052   0.000   0.000  -0.022
  0.000   0.000  -0.011   0.000   0.000   0.008   0.000   0.000   0.022  -0.008   0.000   0.000   0.000  -0.030   0.013   0.000
 -0.006   0.014   0.000  -0.003  -0.002   0.000   0.005   0.001   0.000   0.000   0.016   0.017   0.005   0.000   0.000  -0.023
 -0.019   0.034   0.000  -0.002  -0.000   0.000   0.001   0.005   0.000   0.000  -0.006   0.001   0.009  -0.000   0.000   0.008
  0.000   0.000  -0.082  -0.000   0.000   0.022  -0.000  -0.000   0.146  -0.010   0.000   0.000   0.000  -0.184   0.016   0.000
 -0.000   0.000   0.019  -0.000   0.000  -0.008   0.000   0.000  -0.010   0.070   0.000   0.000   0.000   0.014  -0.087   0.000
  0.013  -0.021   0.000  -0.044   0.033   0.000   0.016  -0.006   0.000   0.000   0.124   0.053   0.022  -0.000   0.000  -0.154
 -0.014   0.020   0.000  -0.069  -0.008  -0.000   0.017   0.001   0.000   0.000   0.053   0.091   0.009  -0.000   0.000  -0.073
  0.036  -0.068  -0.000  -0.014  -0.052  -0.000   0.005   0.009  -0.000   0.000   0.022   0.009   0.099   0.000   0.000  -0.030
  0.000   0.000   0.059   0.000   0.000  -0.030   0.000   0.000  -0.184   0.014   0.000  -0.000   0.000   0.261  -0.028  -0.000
  0.000  -0.000  -0.040   0.000   0.000   0.013   0.000   0.000   0.016  -0.087   0.000   0.000  -0.000  -0.028   0.119   0.000
 -0.006   0.031  -0.000   0.038  -0.022   0.000  -0.023   0.008   0.000   0.000  -0.154  -0.073  -0.030   0.000   0.000   0.212
  0.009  -0.041  -0.000   0.048  -0.002   0.000  -0.024  -0.002   0.000  -0.000  -0.071  -0.117  -0.013   0.000  -0.000   0.110
 -0.028   0.085   0.000   0.020   0.034  -0.000  -0.008  -0.012   0.000   0.000  -0.031  -0.015  -0.131  -0.000   0.000   0.050


------------------------ aborting loop because EDIFF is reached ----------------------------------------


    CHARGE:  cpu time    0.1588: real time    0.1592
    FORLOC:  cpu time    0.0102: real time    0.0102
    FORNL :  cpu time    0.5138: real time    0.5151
    STRESS:  cpu time    1.5784: real time    1.5822
    FORCOR:  cpu time    0.0367: real time    0.0367
    FORHAR:  cpu time    0.0335: real time    0.0336
    MIXING:  cpu time    0.0101: real time    0.0102
    OFIELD:  cpu time    0.0000: real time    0.0000

  FORCE on cell =-STRESS in cart. coord.  units (eV):
  Direction    XX          YY          ZZ          XY          YZ          ZX
  --------------------------------------------------------------------------------------
  Alpha Z   166.34078   166.34078   166.34078
  Ewald  -19380.73249 15813.61187 15244.86948    -0.00002     0.00000   174.26930
  Hartree-16320.86305 17442.77391 16986.76930     0.00000    -0.00000   134.12376
  E(xc)    -456.74981  -457.16406  -457.13975    -0.00000    -0.00000     0.07250
  Local   34286.56138-34692.39776-33660.95840     0.00001    -0.00000  -307.05884
  n-local   344.50486   345.28392   346.55940     0.06616    -0.21164    -1.28178
  augment  -171.38414  -171.87410  -171.91488    -0.00000    -0.00000     0.26768
  Kinetic  1515.21014  1532.91599  1527.45889    -0.06305    -0.82575    -0.41695
  Fock        0.00000     0.00000     0.00000     0.00000     0.00000     0.00000
  -------------------------------------------------------------------------------------
  Total     -17.11234   -20.50945   -18.01518     0.00000     0.00000    -0.02433
  in kB     -14.52136   -17.40411   -15.28750     0.00000     0.00000    -0.02065
  external pressure =      -15.74 kB  Pullay stress =        0.00 kB


 VOLUME and BASIS-vectors are now :
 -----------------------------------------------------------------------------
  energy-cutoff  :      500.00
  volume of cell :     1888.05
      direct lattice vectors                 reciprocal lattice vectors
    24.009468079  0.000000000  0.000000000     0.041650236  0.000000000  0.000000000
     0.000000000  6.777849674  0.000000000     0.000000000  0.147539419  0.000000000
     0.000000000  0.000000000 11.602143288     0.000000000  0.000000000  0.086190971

  length of vectors
    24.009468079  6.777849674 11.602143288     0.041650236  0.147539419  0.086190971


 FORCES acting on ions
    electron-ion (+dipol)            ewald-force                    non-local-force                 convergence-correction
 -----------------------------------------------------------------------------------------------
   0.777E+03 0.101E-04 0.504E+02   -.772E+03 0.101E-04 -.495E+02   -.421E+01 -.644E-18 -.895E+00   -.122E-04 -.923E-09 0.441E-04
   -.777E+03 -.615E-04 -.504E+02   0.772E+03 -.130E-04 0.495E+02   0.421E+01 -.648E-18 0.895E+00   0.122E-04 0.104E-08 -.441E-04
   0.878E+02 -.592E-04 -.467E+02   -.874E+02 -.184E-04 0.453E+02   -.147E+00 0.282E-18 0.136E+01   0.132E-03 0.158E-08 -.115E-03
   -.878E+02 0.111E-04 0.467E+02   0.874E+02 0.130E-04 -.453E+02   0.147E+00 -.415E-18 -.136E+01   -.132E-03 -.144E-08 0.115E-03
   0.625E+03 -.596E-04 -.521E+02   -.623E+03 -.168E-04 0.523E+02   -.183E+01 -.672E-18 -.232E+00   0.803E-04 0.127E-08 -.165E-03
   -.625E+03 0.896E-05 0.521E+02   0.623E+03 0.146E-04 -.523E+02   0.183E+01 -.337E-18 0.232E+00   -.802E-04 -.118E-08 0.165E-03
   0.362E+03 0.115E-04 -.187E+02   -.361E+03 0.128E-04 0.178E+02   -.699E+00 0.169E-17 0.872E+00   0.114E-03 -.141E-08 0.498E-04
   -.362E+03 -.610E-04 0.187E+02   0.361E+03 -.127E-04 -.178E+02   0.699E+00 0.716E-18 -.872E+00   -.114E-03 0.143E-08 -.498E-04
   0.274E+03 0.381E+02 -.500E+02   -.274E+03 -.391E+02 0.505E+02   -.225E+00 0.945E+00 -.491E+00   0.798E-04 0.458E-04 -.598E-04
   -.274E+03 -.381E+02 0.500E+02   0.274E+03 0.391E+02 -.505E+02   0.225E+00 -.945E+00 0.491E+00   -.798E-04 -.458E-04 0.598E-04
   0.118E+03 -.354E+02 0.689E+01   -.118E+03 0.359E+02 -.599E+01   0.549E-01 -.559E+00 -.902E+00   -.165E-04 -.733E-04 -.216E-06
   -.118E+03 0.354E+02 -.689E+01   0.118E+03 -.359E+02 0.599E+01   -.549E-01 0.559E+00 0.902E+00   0.165E-04 0.733E-04 0.218E-06
   -.274E+03 0.381E+02 0.500E+02   0.274E+03 -.391E+02 -.505E+02   0.225E+00 0.945E+00 0.491E+00   -.798E-04 0.458E-04 0.598E-04
   0.274E+03 -.381E+02 -.500E+02   -.274E+03 0.391E+02 0.505E+02   -.225E+00 -.945E+00 -.491E+00   0.798E-04 -.458E-04 -.598E-04
   -.118E+03 -.354E+02 -.689E+01   0.118E+03 0.359E+02 0.599E+01   -.549E-01 -.559E+00 0.902E+00   0.165E-04 -.733E-04 0.218E-06
   0.118E+03 0.354E+02 0.689E+01   -.118E+03 -.359E+02 -.599E+01   0.549E-01 0.559E+00 -.902E+00   -.165E-04 0.733E-04 -.216E-06
   0.329E+03 -.516E-05 0.492E+02   -.330E+03 -.609E-05 -.495E+02   0.106E+01 0.862E-19 0.356E+00   0.801E-04 0.403E-09 0.552E-04
   -.329E+03 0.620E-05 -.492E+02   0.330E+03 0.635E-05 0.495E+02   -.106E+01 -.129E-18 -.356E+00   -.801E-04 -.399E-09 -.552E-04
   0.324E+02 0.923E-05 -.128E+02   -.313E+02 0.758E-05 0.120E+02   -.978E+00 -.989E-19 0.871E+00   0.103E-05 -.558E-09 -.241E-04
   -.324E+02 -.304E-05 0.128E+02   0.313E+02 -.721E-05 -.120E+02   0.978E+00 0.818E-19 -.871E+00   -.103E-05 0.542E-09 0.241E-04
   0.240E+03 0.435E-05 0.126E+02   -.240E+03 0.810E-05 -.133E+02   -.250E+00 0.143E-18 0.711E+00   0.600E-04 -.483E-09 -.258E-05
   -.240E+03 -.654E-05 -.126E+02   0.240E+03 -.817E-05 0.133E+02   0.250E+00 -.142E-18 -.711E+00   -.600E-04 0.478E-09 0.258E-05
   0.154E+03 -.731E-05 0.628E+02   -.154E+03 -.720E-05 -.638E+02   -.643E+00 0.151E-17 0.105E+01   0.863E-05 0.524E-09 0.122E-03
   -.154E+03 0.366E-05 -.628E+02   0.154E+03 0.709E-05 0.638E+02   0.643E+00 -.324E-17 -.105E+01   -.863E-05 -.509E-09 -.122E-03
 -----------------------------------------------------------------------------------------------
   0.240E-03 -.208E-03 0.712E-04   -.171E-12 -.167E-14 0.497E-13   -.222E-15 0.109E-15 -.444E-15   0.323E-07 0.364E-09 -.304E-08
 
 
 POSITION                                       TOTAL-FORCE (eV/Angst)
 -----------------------------------------------------------------------------------
      0.13670      1.69446      8.21286         1.025823     -0.000000     -0.000577
      9.17277      5.08339      3.38928        -1.025823     -0.000000      0.000577
      4.36803      5.08339      2.13707         0.197104     -0.000000      0.000691
      4.94143      1.69446      9.46507        -0.197104      0.000000     -0.000691
      1.43529      5.08339     10.62607         0.783760     -0.000000      0.000609
      7.87418      1.69446      0.97607        -0.783760      0.000000     -0.000609
      3.06944      1.69446      4.55662         0.510379      0.000000     -0.000073
      6.24002      5.08339      7.04553        -0.510379     -0.000000      0.000073
      1.75027      0.50080      1.62959         0.040111      0.000288      0.000420
      7.55920      6.27705      9.97255        -0.040111     -0.000288     -0.000420
      2.75446      6.28815      7.69926         0.168603      0.000753      0.000381
      6.55500      0.48970      3.90289        -0.168603     -0.000753     -0.000381
      7.55920      3.88973      9.97255        -0.040111      0.000288     -0.000420
      1.75027      2.88812      1.62959         0.040111     -0.000288      0.000420
      6.55500      2.89922      3.90289        -0.168603      0.000753     -0.000381
      2.75446      3.87863      7.69926         0.168603     -0.000753      0.000381
      0.74693      5.08339      7.04127         0.034745     -0.000000      0.001031
      8.56254      1.69446      4.56088        -0.034745      0.000000     -0.001031
      3.75780      1.69446      0.93262         0.097890     -0.000000      0.000072
      5.55166      5.08339     10.66953        -0.097890     -0.000000     -0.000072
      1.78112      1.69446     11.13593        -0.063993      0.000000      0.000493
      7.52835      5.08339      0.46622         0.063993      0.000000     -0.000493
      2.72362      5.08339      5.59930        -0.250943     -0.000000      0.000473
      6.58585      1.69446      6.00284         0.250943      0.000000     -0.000473
 -----------------------------------------------------------------------------------
    total drift:                                0.000240     -0.000208      0.000071


--------------------------------------------------------------------------------------------------------



  FREE ENERGIE OF THE ION-ELECTRON SYSTEM (eV)
  ---------------------------------------------------
  free  energy   TOTEN  =      -114.34630121 eV

  energy  without entropy=     -114.34630121  energy(sigma->0) =     -114.34630121
 


--------------------------------------------------------------------------------------------------------


    POTLOK:  cpu time    0.0228: real time    0.0228


--------------------------------------------------------------------------------------------------------


 writing wavefunctions
     LOOP+:  cpu time   89.8879: real time   91.2791
    4ORBIT:  cpu time    0.0000: real time    0.0000
 BZINTS: Fermi energy: -0.625340;144.000000 electrons
         Band energy:***********;  BLOECHL correction:  0.000000

 total amount of memory used by VASP MPI-rank0    79358. kBytes
=======================================================================

   base      :      30000. kBytes
   nonlr-proj:       2652. kBytes
   fftplans  :       5898. kBytes
   grid      :       8824. kBytes
   one-center:         93. kBytes
   wavefun   :      31891. kBytes
 
  
  
 General timing and accounting informations for this job:
 ========================================================
  
                  Total CPU time used (sec):       98.034
                            User time (sec):       92.696
                          System time (sec):        5.337
                         Elapsed time (sec):      102.368
  
                   Maximum memory used (kb):      168428.
                   Average memory used (kb):           0.
  
                          Minor page faults:        64821
                          Major page faults:          211
                 Voluntary context switches:        15513
