 vasp.5.4.4.18Apr17-6-g9f103f2a35 (build Nov 21 2017 15:30:27) complex          
  
 executed on             LinuxIFC date 2020.09.15  06:50:55
 running on   64 total cores
 distrk:  each k-point on   32 cores,    2 groups
 distr:  one band on NCORES_PER_BAND=   4 cores,    8 groups


--------------------------------------------------------------------------------------------------------


 INCAR:
 POTCAR:   PAW Ba_sv 17Apr2000                    
 POTCAR:   PAW Si 02Apr1999                       

 ----------------------------------------------------------------------------- 
|                                                                             |
|           W    W    AA    RRRRR   N    N  II  N    N   GGGG   !!!           |
|           W    W   A  A   R    R  NN   N  II  NN   N  G    G  !!!           |
|           W    W  A    A  R    R  N N  N  II  N N  N  G       !!!           |
|           W WW W  AAAAAA  RRRRR   N  N N  II  N  N N  G  GGG   !            |
|           WW  WW  A    A  R   R   N   NN  II  N   NN  G    G                |
|           W    W  A    A  R    R  N    N  II  N    N   GGGG   !!!           |
|                                                                             |
|      You have enabled k-point parallelism (KPAR>1).                         |
|      This developmental code was originally  written by Paul Kent at ORNL,  |
|      and carefully double checked in Vienna.                                |
|      GW as well as linear response parallelism added by Martijn Marsman     |
|      and Georg Kresse.                                                      |
|      Carefully verify results versus KPAR=1.                                |
|      Report problems to Paul Kent and Vienna.                               |
|                                                                             |
 ----------------------------------------------------------------------------- 

 POTCAR:   PAW Ba_sv 17Apr2000                    
   VRHFIN =Ba: s2p6s2                                                           
   LEXCH  = CA                                                                  
   EATOM  =   704.0172 eV,   51.7438 Ry                                         
                                                                                
   TITEL  = PAW Ba_sv 17Apr2000                                                 
   LULTRA =        F    use ultrasoft PP ?                                      
   IUNSCR =        1    unscreen: 0-lin 1-nonlin 2-no                           
   RPACOR =    2.400    partial core radius                                     
   POMASS =  137.327; ZVAL   =   10.000    mass and valenz                      
   RCORE  =    2.800    outmost cutoff radius                                   
   RWIGS  =    3.740; RWIGS  =    1.979    wigner-seitz radius (au A)           
   ENMAX  =  186.981; ENMIN  =  140.236 eV                                      
   RCLOC  =    2.516    cutoff for local pot                                    
   LCOR   =        T    correct aug charges                                     
   LPAW   =        T    paw PP                                                  
   EAUG   =  351.165                                                            
   DEXC   =     .000                                                            
   RMAX   =    3.372    core radius for proj-oper                               
   RAUG   =    1.300    factor for augmentation sphere                          
   RDEP   =    2.976    core radius for depl-charge                             
   QCUT   =   -3.707; QGAM   =    7.414    optimization parameters              
                                                                                
   Description                                                                  
     l     E      TYP  RCUT    TYP  RCUT                                        
     0   .000     23  2.800                                                     
     0   .000     23  2.800                                                     
     1   .000     23  2.700                                                     
     1  2.000     23  2.700                                                     
     2   .000     23  2.700                                                     
     2   .000     23  2.700                                                     
  local pseudopotential read in
  partial core-charges read in
  atomic valenz-charges read in
  non local Contribution for L=           0  read in
    real space projection operators read in
  non local Contribution for L=           0  read in
    real space projection operators read in
  non local Contribution for L=           1  read in
    real space projection operators read in
  non local Contribution for L=           1  read in
    real space projection operators read in
  non local Contribution for L=           2  read in
    real space projection operators read in
  non local Contribution for L=           2  read in
    real space projection operators read in
    PAW grid and wavefunctions read in
 
   number of l-projection  operators is LMAX  =           6
   number of lm-projection operators is LMMAX =          18
 
 POTCAR:   PAW Si 02Apr1999                       
   VRHFIN =Si: s2p2                                                             
   LEXCH  = CA                                                                  
   EATOM  =   103.4338 eV,    7.6022 Ry                                         
                                                                                
   TITEL  = PAW Si 02Apr1999                                                    
   LULTRA =        F    use ultrasoft PP ?                                      
   IUNSCR =        1    unscreen: 0-lin 1-nonlin 2-no                           
   RPACOR =    1.500    partial core radius                                     
   POMASS =   28.085; ZVAL   =    4.000    mass and valenz                      
   RCORE  =    1.900    outmost cutoff radius                                   
   RWIGS  =    2.480; RWIGS  =    1.312    wigner-seitz radius (au A)           
   ENMAX  =  245.704; ENMIN  =  184.278 eV                                      
   ICORE  =        2    local potential                                         
   LCOR   =        T    correct aug charges                                     
   LPAW   =        T    paw PP                                                  
   EAUG   =  322.069                                                            
   DEXC   =    -.006                                                            
   RMAX   =    2.941    core radius for proj-oper                               
   RAUG   =    1.300    factor for augmentation sphere                          
   RDEP   =    1.993    core radius for depl-charge                             
   QCUT   =   -4.250; QGAM   =    8.499    optimization parameters              
                                                                                
   Description                                                                  
     l     E      TYP  RCUT    TYP  RCUT                                        
     0   .000     23  1.900                                                     
     0   .000     23  1.900                                                     
     1   .000     23  1.900                                                     
     1   .000     23  1.900                                                     
     2   .000      7  1.900                                                     
  local pseudopotential read in
  partial core-charges read in
  atomic valenz-charges read in
  non local Contribution for L=           0  read in
    real space projection operators read in
  non local Contribution for L=           0  read in
    real space projection operators read in
  non local Contribution for L=           1  read in
    real space projection operators read in
  non local Contribution for L=           1  read in
    real space projection operators read in
    PAW grid and wavefunctions read in
 
   number of l-projection  operators is LMAX  =           4
   number of lm-projection operators is LMMAX =           8
 
 Optimization of the real space projectors (new method)

 maximal supplied QI-value         = 13.42
 optimisation between [QCUT,QGAM] = [ 11.40, 22.81] = [ 36.42,145.68] Ry 
 Optimized for a Real-space Cutoff    1.56 Angstroem

   l    n(q)    QCUT    max X(q) W(low)/X(q) W(high)/X(q)  e(spline) 
   0     11    11.404     7.180    0.12E-04    0.23E-04    0.91E-07
   0     11    11.404    14.700    0.33E-04    0.82E-04    0.45E-06
   1     10    11.404     3.780    0.19E-04    0.22E-04    0.42E-07
   1     10    11.404     4.341    0.22E-03    0.98E-04    0.21E-06
   2     10    11.404     5.806    0.81E-04    0.60E-05    0.26E-06
   2     10    11.404    65.524    0.41E-03    0.30E-04    0.12E-05
 Optimization of the real space projectors (new method)

 maximal supplied QI-value         = 19.84
 optimisation between [QCUT,QGAM] = [ 11.31, 22.82] = [ 35.82,145.81] Ry 
 Optimized for a Real-space Cutoff    1.16 Angstroem

   l    n(q)    QCUT    max X(q) W(low)/X(q) W(high)/X(q)  e(spline) 
   0      8    11.310     8.540    0.14E-04    0.11E-04    0.43E-08
   0      8    11.310   104.916    0.28E-03    0.31E-03    0.39E-07
   1      7    11.310     5.806    0.79E-05    0.47E-04    0.19E-07
   1      7    11.310    72.249    0.28E-03    0.28E-03    0.75E-07
 PAW Ba_sv 17Apr2000                    :
 energy of atom  1       EATOM= -704.0172
 kinetic energy error for atom=    0.0005 (will be added to EATOM!!)
 PAW Si 02Apr1999                       :
 energy of atom  2       EATOM= -103.4338
 kinetic energy error for atom=    0.0006 (will be added to EATOM!!)
 
 
 POSCAR: ba8 si16                                
  positions in direct lattice
  velocities in cartesian coordinates
 exchange correlation table for  LEXCH =        2
   RHO(1)=    0.500       N(1)  =     2000
   RHO(2)=  100.500       N(2)  =     4000
 


--------------------------------------------------------------------------------------------------------


 ion  position               nearest neighbor table
   1  0.006  0.250  0.708-  21 3.36  16 3.45  11 3.45  17 3.64  17 3.64   5 4.36   5 4.36   7 4.69

   2  0.380  0.750  0.292-  22 3.36  12 3.45  15 3.45  18 3.64  18 3.64   6 4.36   6 4.36   8 4.69

   3  0.182  0.750  0.185-  20 3.28   9 3.45  14 3.45  12 3.53  15 3.53  22 3.53  19 3.65  19 3.65
                            23 3.83   5 4.27   7 4.36   7 4.36
   4  0.204  0.250  0.815-  19 3.28  13 3.45  10 3.45  16 3.53  11 3.53  21 3.53  20 3.65  20 3.65
                            24 3.83   6 4.27   8 4.36   8 4.36
   5  0.060  0.750  0.917-   9 3.42  14 3.42  11 3.43  16 3.43  21 3.44  21 3.44  17 3.66   3 4.27
                             1 4.36   1 4.36
   6  0.326  0.250  0.083-  13 3.42  10 3.42  15 3.43  12 3.43  22 3.44  22 3.44  18 3.66   4 4.27
                             2 4.36   2 4.36
   7  0.128  0.250  0.393-  14 3.42   9 3.42  23 3.56  23 3.56  19 3.68  15 3.70  12 3.70  24 3.76
                            16 3.84  11 3.84   3 4.36   3 4.36   1 4.69
   8  0.258  0.750  0.607-  10 3.42  13 3.42  24 3.56  24 3.56  20 3.68  11 3.70  16 3.70  23 3.76
                            12 3.84  15 3.84   4 4.36   4 4.36   2 4.69
   9  0.073  0.074  0.141-  14 2.39  21 2.41  19 2.44   5 3.42   7 3.42   3 3.45
  10  0.313  0.926  0.859-  13 2.39  22 2.41  20 2.44   6 3.42   8 3.42   4 3.45
  11  0.115  0.928  0.664-  16 2.41  23 2.42  17 2.43   5 3.43   1 3.45   4 3.53   8 3.70   7 3.84

  12  0.271  0.072  0.336-  15 2.41  24 2.42  18 2.43   6 3.43   2 3.45   3 3.53   7 3.70   8 3.84

  13  0.313  0.574  0.859-  10 2.39  22 2.41  20 2.44   6 3.42   8 3.42   4 3.45
  14  0.073  0.426  0.141-   9 2.39  21 2.41  19 2.44   5 3.42   7 3.42   3 3.45
  15  0.271  0.428  0.336-  12 2.41  24 2.42  18 2.43   6 3.43   2 3.45   3 3.53   7 3.70   8 3.84

  16  0.115  0.572  0.664-  11 2.41  23 2.42  17 2.43   5 3.43   1 3.45   4 3.53   8 3.70   7 3.84

  17  0.031  0.750  0.607-  11 2.43  16 2.43  23 2.45   1 3.64   1 3.64   5 3.66
  18  0.355  0.250  0.393-  15 2.43  12 2.43  24 2.45   2 3.64   2 3.64   6 3.66
  19  0.157  0.250  0.081-  21 2.42  14 2.44   9 2.44   4 3.28   3 3.65   3 3.65   7 3.68
  20  0.229  0.750  0.919-  22 2.42  10 2.44  13 2.44   3 3.28   4 3.65   4 3.65   8 3.68
  21  0.074  0.250  0.960-  14 2.41   9 2.41  19 2.42   1 3.36   5 3.44   5 3.44   4 3.53
  22  0.311  0.750  0.040-  10 2.41  13 2.41  20 2.42   2 3.36   6 3.44   6 3.44   3 3.53
  23  0.113  0.750  0.483-  11 2.42  16 2.42  17 2.45   7 3.56   7 3.56   8 3.76   3 3.83
  24  0.272  0.250  0.517-  15 2.42  12 2.42  18 2.45   8 3.56   8 3.56   7 3.76   4 3.83
 
  LATTYP: Found a simple orthorhombic cell.
 ALAT       =     6.7778496742
 B/A-ratio  =     1.7117734747
 C/A-ratio  =     3.5423429602
  
  Lattice vectors:
  
 A1 = (   0.0000000000,   6.7778496742,   0.0000000000)
 A2 = (   0.0000000000,   0.0000000000, -11.6021432877)
 A3 = ( -24.0094680786,   0.0000000000,   0.0000000000)


Analysis of symmetry for initial positions (statically):
=====================================================================
 Subroutine PRICEL returns:
 Original cell was already a primitive cell.
 

 Routine SETGRP: Setting up the symmetry group for a 
 simple orthorhombic supercell.


 Subroutine GETGRP returns: Found  4 space group operations
 (whereof  1 operations were pure point group operations)
 out of a pool of  8 trial point group operations.


The static configuration has the point symmetry C_1 .
 The point group associated with its full space group is C_2h.


Analysis of symmetry for dynamics (positions and initial velocities):
=====================================================================
 Subroutine PRICEL returns:
 Original cell was already a primitive cell.
 

 Routine SETGRP: Setting up the symmetry group for a 
 simple orthorhombic supercell.


 Subroutine GETGRP returns: Found  4 space group operations
 (whereof  1 operations were pure point group operations)
 out of a pool of  8 trial point group operations.


The dynamic configuration has the point symmetry C_1 .
 The point group associated with its full space group is C_2h.


Analysis of constrained symmetry for selective dynamics:
=====================================================================
 Subroutine PRICEL returns:
 Original cell was already a primitive cell.
 

 Routine SETGRP: Setting up the symmetry group for a 
 simple orthorhombic supercell.


 Subroutine GETGRP returns: Found  4 space group operations
 (whereof  1 operations were pure point group operations)
 out of a pool of  8 trial point group operations.


The constrained configuration has the point symmetry C_1 .
 The point group associated with its full space group is C_2h.


 Subroutine INISYM returns: Found  4 space group operations
 (whereof  1 operations are pure point group operations),
 and found     1 'primitive' translations

 
 
 KPOINTS: k-density: 8.0                          

Automatic generation of k-mesh.
Space group operators:
 irot       det(A)        alpha          n_x          n_y          n_z        tau_x        tau_y        tau_z
    1     1.000000     0.000000     1.000000     0.000000     0.000000     0.000000     0.000000     0.000000
    2    -1.000000     0.000000     1.000000     0.000000     0.000000    -0.614341     0.000000     0.000000
    3     1.000000   180.000000     0.000000     1.000000     0.000000    -0.614341     0.500000     0.000000
    4    -1.000000   180.000000     0.000000     1.000000     0.000000     0.000000     0.500000     0.000000
 
 Subroutine IBZKPT returns following result:
 ===========================================
 
 Found     15 irreducible k-points:
 
 Following reciprocal coordinates:
            Coordinates               Weight
  0.000000  0.000000  0.000000      1.000000
  0.000000  0.125000  0.000000      2.000000
  0.000000  0.250000  0.000000      2.000000
  0.000000  0.375000  0.000000      2.000000
  0.000000  0.500000  0.000000      1.000000
  0.000000  0.000000  0.200000      2.000000
  0.000000  0.125000  0.200000      4.000000
  0.000000  0.250000  0.200000      4.000000
  0.000000  0.375000  0.200000      4.000000
  0.000000  0.500000  0.200000      2.000000
  0.000000  0.000000  0.400000      2.000000
  0.000000  0.125000  0.400000      4.000000
  0.000000  0.250000  0.400000      4.000000
  0.000000  0.375000  0.400000      4.000000
  0.000000  0.500000  0.400000      2.000000
 
 Following cartesian coordinates:
            Coordinates               Weight
  0.000000  0.000000  0.000000      1.000000
  0.000000  0.018442  0.000000      2.000000
  0.000000  0.036885  0.000000      2.000000
  0.000000  0.055327  0.000000      2.000000
  0.000000  0.073770  0.000000      1.000000
  0.000000  0.000000  0.017238      2.000000
  0.000000  0.018442  0.017238      4.000000
  0.000000  0.036885  0.017238      4.000000
  0.000000  0.055327  0.017238      4.000000
  0.000000  0.073770  0.017238      2.000000
  0.000000  0.000000  0.034476      2.000000
  0.000000  0.018442  0.034476      4.000000
  0.000000  0.036885  0.034476      4.000000
  0.000000  0.055327  0.034476      4.000000
  0.000000  0.073770  0.034476      2.000000
 
 TETIRR: Found    108 inequivalent tetrahedra from      240


--------------------------------------------------------------------------------------------------------




 Dimension of arrays:
   k-points           NKPTS =     15   k-points in BZ     NKDIM =     15   number of bands    NBANDS=     88
   number of dos      NEDOS =    301   number of ions     NIONS =     24
   non local maximal  LDIM  =      6   non local SUM 2l+1 LMDIM =     18
   total plane-waves  NPLWV = 358400
   max r-space proj   IRMAX =   3093   max aug-charges    IRDMAX=  12081
   dimension x,y,z NGX =   140 NGY =   40 NGZ =   64
   dimension x,y,z NGXF=   280 NGYF=   80 NGZF=  128
   support grid    NGXF=   280 NGYF=   80 NGZF=  128
   ions per type =               8  16
   NGX,Y,Z   is equivalent  to a cutoff of   9.69,  9.81,  9.17 a.u.
   NGXF,Y,Z  is equivalent  to a cutoff of  19.39, 19.62, 18.34 a.u.

 SYSTEM =  unknown system                          
 POSCAR =  ba8 si16                                

 Startparameter for this run:
   NWRITE =      2    write-flag & timer
   PREC   = normal    normal or accurate (medium, high low for compatibility)
   ISTART =      0    job   : 0-new  1-cont  2-samecut
   ICHARG =      2    charge: 1-file 2-atom 10-const
   ISPIN  =      1    spin polarized calculation?
   LNONCOLLINEAR =      F non collinear calculations
   LSORBIT =      F    spin-orbit coupling
   INIWAV =      1    electr: 0-lowe 1-rand  2-diag
   LASPH  =      F    aspherical Exc in radial PAW
   METAGGA=      F    non-selfconsistent MetaGGA calc.

 Electronic Relaxation 1
   ENCUT  =  500.0 eV  36.75 Ry    6.06 a.u.  43.77 12.36 21.15*2*pi/ulx,y,z
   ENINI  =  500.0     initial cutoff
   ENAUG  =  351.2 eV  augmentation charge cutoff
   NELM   =    100;   NELMIN=  2; NELMDL= -5     # of ELM steps 
   EDIFF  = 0.1E-05   stopping-criterion for ELM
   LREAL  =      T    real-space projection
   NLSPLINE    = F    spline interpolate recip. space projectors
   LCOMPAT=      F    compatible to vasp.4.4
   GGA_COMPAT  = T    GGA compatible to vasp.4.4-vasp.4.6
   LMAXPAW     = -100 max onsite density
   LMAXMIX     =    2 max onsite mixed and CHGCAR
   VOSKOWN=      0    Vosko Wilk Nusair interpolation
   ROPT   =   -0.00050  -0.00050
 Ionic relaxation
   EDIFFG = -.1E-02   stopping-criterion for IOM
   NSW    =      0    number of steps for IOM
   NBLOCK =      1;   KBLOCK =      1    inner block; outer block 
   IBRION =     -1    ionic relax: 0-MD 1-quasi-New 2-CG
   NFREE  =      0    steps in history (QN), initial steepest desc. (CG)
   ISIF   =      2    stress and relaxation
   IWAVPR =     10    prediction:  0-non 1-charg 2-wave 3-comb
   ISYM   =      2    0-nonsym 1-usesym 2-fastsym
   LCORR  =      T    Harris-Foulkes like correction to forces

   POTIM  = 0.3000    time-step for ionic-motion
   TEIN   =    0.0    initial temperature
   TEBEG  =    0.0;   TEEND  =   0.0 temperature during run
   SMASS  =  -3.00    Nose mass-parameter (am)
   estimated Nose-frequenzy (Omega)   =  0.10E-29 period in steps =****** mass=  -0.132E-25a.u.
   SCALEE = 1.0000    scale energy and forces
   NPACO  =    256;   APACO  = 16.0  distance and # of slots for P.C.
   PSTRESS=    0.0 pullay stress

  Mass of Ions in am
   POMASS = 137.33 28.09
  Ionic Valenz
   ZVAL   =  10.00  4.00
  Atomic Wigner-Seitz radii
   RWIGS  =  -1.00 -1.00
  virtual crystal weights 
   VCA    =   1.00  1.00
   NELECT =     144.0000    total number of electrons
   NUPDOWN=      -1.0000    fix difference up-down

 DOS related values:
   EMIN   =  10.00;   EMAX   =-10.00  energy-range for DOS
   EFERMI =   0.00
   ISMEAR =    -5;   SIGMA  =   0.01  broadening in eV -4-tet -1-fermi 0-gaus

 Electronic relaxation 2 (details)
   IALGO  =     38    algorithm
   LDIAG  =      T    sub-space diagonalisation (order eigenvalues)
   LSUBROT=      F    optimize rotation matrix (better conditioning)
   TURBO    =      0    0=normal 1=particle mesh
   IRESTART =      0    0=no restart 2=restart with 2 vectors
   NREBOOT  =      0    no. of reboots
   NMIN     =      0    reboot dimension
   EREF     =   0.00    reference energy to select bands
   IMIX   =      4    mixing-type and parameters
     AMIX     =   0.40;   BMIX     =  1.00
     AMIX_MAG =   1.60;   BMIX_MAG =  1.00
     AMIN     =   0.10
     WC   =   100.;   INIMIX=   1;  MIXPRE=   1;  MAXMIX= -45

 Intra band minimization:
   WEIMIN = 0.0000     energy-eigenvalue tresh-hold
   EBREAK =  0.28E-08  absolut break condition
   DEPER  =   0.30     relativ break condition  

   TIME   =   0.40     timestep for ELM

  volume/ion in A,a.u.               =      78.67       530.88
  Fermi-wavevector in a.u.,A,eV,Ry     =   0.694264  1.311969  6.558046  0.482003
  Thomas-Fermi vector in A             =   1.776709
 
 Write flags
   LWAVE        =      T    write WAVECAR
   LDOWNSAMPLE  =      F    k-point downsampling of WAVECAR
   LCHARG       =      T    write CHGCAR
   LVTOT        =      F    write LOCPOT, total local potential
   LVHAR        =      F    write LOCPOT, Hartree potential only
   LELF         =      F    write electronic localiz. function (ELF)
   LORBIT       =      0    0 simple, 1 ext, 2 COOP (PROOUT), +10 PAW based schemes


 Dipole corrections
   LMONO  =      F    monopole corrections only (constant potential shift)
   LDIPOL =      F    correct potential (dipole corrections)
   IDIPOL =      0    1-x, 2-y, 3-z, 4-all directions 
   EPSILON=  1.0000000 bulk dielectric constant

 Exchange correlation treatment:
   GGA     =    --    GGA type
   LEXCH   =     2    internal setting for exchange type
   VOSKOWN=      0    Vosko Wilk Nusair interpolation
   LHFCALC =     F    Hartree Fock is set to
   LHFONE  =     F    Hartree Fock one center treatment
   AEXX    =    0.0000 exact exchange contribution

 Linear response parameters
   LEPSILON=     F    determine dielectric tensor
   LRPA    =     F    only Hartree local field effects (RPA)
   LNABLA  =     F    use nabla operator in PAW spheres
   LVEL    =     F    velocity operator in full k-point grid
   LINTERFAST=   F  fast interpolation
   KINTER  =     0    interpolate to denser k-point grid
   CSHIFT  =0.1000    complex shift for real part using Kramers Kronig
   OMEGAMAX=  -1.0    maximum frequency
   DEG_THRESHOLD= 0.2000000E-02 threshold for treating states as degnerate
   RTIME   =   -0.100 relaxation time in fs
  (WPLASMAI=    0.000 imaginary part of plasma frequency in eV, 0.658/RTIME)
   DFIELD  = 0.0000000 0.0000000 0.0000000 field for delta impulse in time
 
 Orbital magnetization related:
   ORBITALMAG=     F  switch on orbital magnetization
   LCHIMAG   =     F  perturbation theory with respect to B field
   DQ        =  0.001000  dq finite difference perturbation B field
   LLRAUG    =     F  two centre corrections for induced B field



--------------------------------------------------------------------------------------------------------


 Static calculation
 charge density and potential will be updated during run
 non-spin polarized calculation
 Variant of blocked Davidson
 Davidson routine will perform the subspace rotation
 perform sub-space diagonalisation
    after iterative eigenvector-optimisation
 modified Broyden-mixing scheme, WC =      100.0
 initial mixing is a Kerker type mixing with AMIX =  0.4000 and BMIX =      1.0000
 Hartree-type preconditioning will be used
 using additional bands           16
 real space projection scheme for non local part
 use partial core corrections
 calculate Harris-corrections to forces 
   (improved forces if not selfconsistent)
 use of overlap-Matrix (Vanderbilt PP)
 Fermi weights with tetrahedron method with Bloechl corrections


--------------------------------------------------------------------------------------------------------


  energy-cutoff  :      500.00
  volume of cell :     1888.05
      direct lattice vectors                 reciprocal lattice vectors
    24.009468079  0.000000000  0.000000000     0.041650236  0.000000000  0.000000000
     0.000000000  6.777849674  0.000000000     0.000000000  0.147539419  0.000000000
     0.000000000  0.000000000 11.602143288     0.000000000  0.000000000  0.086190971

  length of vectors
    24.009468079  6.777849674 11.602143288     0.041650236  0.147539419  0.086190971


 
 k-points in units of 2pi/SCALE and weight: k-density: 8.0                          
   0.00000000  0.00000000  0.00000000       0.025
   0.00000000  0.01844243  0.00000000       0.050
   0.00000000  0.03688485  0.00000000       0.050
   0.00000000  0.05532728  0.00000000       0.050
   0.00000000  0.07376971  0.00000000       0.025
   0.00000000  0.00000000  0.01723819       0.050
   0.00000000  0.01844243  0.01723819       0.100
   0.00000000  0.03688485  0.01723819       0.100
   0.00000000  0.05532728  0.01723819       0.100
   0.00000000  0.07376971  0.01723819       0.050
   0.00000000  0.00000000  0.03447639       0.050
   0.00000000  0.01844243  0.03447639       0.100
   0.00000000  0.03688485  0.03447639       0.100
   0.00000000  0.05532728  0.03447639       0.100
   0.00000000  0.07376971  0.03447639       0.050
 
 k-points in reciprocal lattice and weights: k-density: 8.0                          
   0.00000000  0.00000000  0.00000000       0.025
   0.00000000  0.12500000  0.00000000       0.050
   0.00000000  0.25000000  0.00000000       0.050
   0.00000000  0.37500000  0.00000000       0.050
   0.00000000  0.50000000  0.00000000       0.025
   0.00000000  0.00000000  0.20000000       0.050
   0.00000000  0.12500000  0.20000000       0.100
   0.00000000  0.25000000  0.20000000       0.100
   0.00000000  0.37500000  0.20000000       0.100
   0.00000000  0.50000000  0.20000000       0.050
   0.00000000  0.00000000  0.40000000       0.050
   0.00000000  0.12500000  0.40000000       0.100
   0.00000000  0.25000000  0.40000000       0.100
   0.00000000  0.37500000  0.40000000       0.100
   0.00000000  0.50000000  0.40000000       0.050
 
 position of ions in fractional coordinates (direct lattice) 
   0.00569361  0.25000000  0.70802705
   0.37996541  0.75000002  0.29197295
   0.18192962  0.75000002  0.18460150
   0.20372941  0.25000000  0.81539848
   0.05978014  0.75000002  0.91654195
   0.32587889  0.25000000  0.08345803
   0.12784309  0.25000000  0.39281188
   0.25781593  0.75000002  0.60718816
   0.07289913  0.07392661  0.14075755
   0.31275989  0.92607338  0.85924243
   0.11472410  0.92756197  0.66364439
   0.27093493  0.07243802  0.33635561
   0.31275989  0.57392662  0.85924243
   0.07289913  0.42607338  0.14075755
   0.27093493  0.42756197  0.33635561
   0.11472410  0.57243803  0.66364439
   0.03110981  0.75000002  0.60702296
   0.35454921  0.25000000  0.39297704
   0.15651343  0.25000000  0.08089180
   0.22914561  0.75000002  0.91910818
   0.07418398  0.25000000  0.96009979
   0.31147505  0.75000002  0.03990022
   0.11343925  0.75000002  0.48265926
   0.27221977  0.25000000  0.51734066
 
 position of ions in cartesian coordinates  (Angst):
   0.13670066  1.69446242  8.21463125
   9.12276745  5.08338737  3.38751204
   4.36803341  5.08338737  2.14177307
   4.89143467  1.69446242  9.46036998
   1.43528938  5.08338737 10.63385102
   7.82417870  1.69446242  0.96829202
   3.06944466  1.69446242  4.55745970
   6.19002342  5.08338737  7.04468407
   1.75026941  0.50106346  1.63308926
   7.50919867  6.27678616  9.96905379
   2.75446463  6.28687562  7.69969731
   6.50500345  0.49097399  3.90244598
   7.50919867  3.88998836  9.96905379
   1.75026941  2.88786132  1.63308926
   6.50500345  2.89795078  3.90244598
   2.75446463  3.87989889  7.69969731
   0.74692994  5.08338737  7.04276736
   8.51253796  1.69446242  4.55937592
   3.75780416  1.69446242  0.93851822
   5.50166416  5.08338737 10.66362483
   1.78111780  1.69446242 11.13921539
   7.47835016  5.08338737  0.46292807
   2.72361612  5.08338737  5.59988190
   6.53585196  1.69446242  6.00226043
 


--------------------------------------------------------------------------------------------------------


 k-point  1 :   0.0000 0.0000 0.0000  plane waves:   47989
 k-point  2 :   0.0000 0.1250 0.0000  plane waves:   47929
 k-point  3 :   0.0000 0.2500 0.0000  plane waves:   47901
 k-point  4 :   0.0000 0.3750 0.0000  plane waves:   47910
 k-point  5 :   0.0000 0.5000 0.0000  plane waves:   47868
 k-point  6 :   0.0000 0.0000 0.2000  plane waves:   48006
 k-point  7 :   0.0000 0.1250 0.2000  plane waves:   47967
 k-point  8 :   0.0000 0.2500 0.2000  plane waves:   47907
 k-point  9 :   0.0000 0.3750 0.2000  plane waves:   47884
 k-point 10 :   0.0000 0.5000 0.2000  plane waves:   47884
 k-point 11 :   0.0000 0.0000 0.4000  plane waves:   47922
 k-point 12 :   0.0000 0.1250 0.4000  plane waves:   47954
 k-point 13 :   0.0000 0.2500 0.4000  plane waves:   47967
 k-point 14 :   0.0000 0.3750 0.4000  plane waves:   47928
 k-point 15 :   0.0000 0.5000 0.4000  plane waves:   47890

 maximum and minimum number of plane-waves per node :     12077    11868

 maximum number of plane-waves:     48006
 maximum index in each direction: 
   IXMAX=   43   IYMAX=   12   IZMAX=   21
   IXMIN=  -43   IYMIN=  -12   IZMIN=  -21


 real space projection operators:
  total allocation   :       4537.38 KBytes
  max/ min on nodes  :       1138.36       1128.31


 parallel 3D FFT for wavefunctions:
    minimum data exchange during FFTs selected (reduces bandwidth)
 parallel 3D FFT for charge:
    minimum data exchange during FFTs selected (reduces bandwidth)


 total amount of memory used by VASP MPI-rank0    79355. kBytes
=======================================================================

   base      :      30000. kBytes
   nonlr-proj:       2649. kBytes
   fftplans  :       5898. kBytes
   grid      :       8824. kBytes
   one-center:         93. kBytes
   wavefun   :      31891. kBytes
 
     INWAV:  cpu time    0.0000: real time    0.0000
 Broyden mixing: mesh for mixing (old mesh)
   NGX = 87   NGY = 25   NGZ = 43
  (NGX  =280   NGY  = 80   NGZ  =128)
  gives a total of  93525 points

 initial charge density was supplied:
 charge density of overlapping atoms calculated
 number of electron     144.0000000 magnetization 
 keeping initial charge density in first step


--------------------------------------------------------------------------------------------------------


 Maximum index for non-local projection operator          746
 Maximum index for augmentation-charges          600 (set IRDMAX)


--------------------------------------------------------------------------------------------------------


 First call to EWALD:  gamma=   0.143
 Maximum number of real-space cells 2x 5x 3
 Maximum number of reciprocal cells 5x 2x 3

    FEWALD:  cpu time    0.0211: real time    0.0211


--------------------------------------- Iteration      1(   1)  ---------------------------------------


    POTLOK:  cpu time    0.0237: real time    0.5240
    SETDIJ:  cpu time    0.0028: real time    0.0031
     EDDAV:  cpu time    2.6082: real time    2.6410
 BZINTS: Fermi energy:  6.954115;144.000000 electrons
         Band energy:-494.903958;  BLOECHL correction: -0.027166
       DOS:  cpu time    0.0124: real time    0.0124
    --------------------------------------------
      LOOP:  cpu time    2.6471: real time    3.1806

 eigenvalue-minimisations  :  2776
 total energy-change (2. order) : 0.1165254E+04  (-0.4800526E+04)
 number of electron     144.0000000 magnetization 
 augmentation part      144.0000000 magnetization 

 Free energy of the ion-electron system (eV)
  ---------------------------------------------------
  alpha Z        PSCENC =       166.34077906
  Ewald energy   TEWEN  =     11845.94338130
  -Hartree energ DENC   =    -17973.83519530
  -exchange      EXHF   =         0.00000000
  -V(xc)+E(xc)   XCENC  =        46.39536608
  PAW double counting   =      3711.26622449    -3423.01674647
  entropy T*S    EENTRO =         0.00000000
  eigenvalues    EBANDS =      -494.90395817
  atomic energy  EATOM  =      7287.06411261
  Solvation  Ediel_sol  =         0.00000000
  ---------------------------------------------------
  free energy    TOTEN  =      1165.25396359 eV

  energy without entropy =     1165.25396359  energy(sigma->0) =     1165.25396359


--------------------------------------------------------------------------------------------------------




--------------------------------------- Iteration      1(   2)  ---------------------------------------


     EDDAV:  cpu time    3.2555: real time    3.2749
 BZINTS: Fermi energy: -1.938693;144.000000 electrons
         Band energy:***********;  BLOECHL correction:  0.000000
       DOS:  cpu time    0.0038: real time    0.0038
    --------------------------------------------
      LOOP:  cpu time    3.2593: real time    3.2787

 eigenvalue-minimisations  :  3760
 total energy-change (2. order) :-0.1116983E+04  (-0.1086488E+04)
 number of electron     144.0000000 magnetization 
 augmentation part      144.0000000 magnetization 

 Free energy of the ion-electron system (eV)
  ---------------------------------------------------
  alpha Z        PSCENC =       166.34077906
  Ewald energy   TEWEN  =     11845.94338130
  -Hartree energ DENC   =    -17973.83519530
  -exchange      EXHF   =         0.00000000
  -V(xc)+E(xc)   XCENC  =        46.39536608
  PAW double counting   =      3711.26622449    -3423.01674647
  entropy T*S    EENTRO =         0.00000000
  eigenvalues    EBANDS =     -1611.88694011
  atomic energy  EATOM  =      7287.06411261
  Solvation  Ediel_sol  =         0.00000000
  ---------------------------------------------------
  free energy    TOTEN  =        48.27098165 eV

  energy without entropy =       48.27098165  energy(sigma->0) =       48.27098165


--------------------------------------------------------------------------------------------------------




--------------------------------------- Iteration      1(   3)  ---------------------------------------


     EDDAV:  cpu time    2.8933: real time    2.9121
 BZINTS: Fermi energy: -3.411680;144.000000 electrons
         Band energy:***********;  BLOECHL correction:  0.000000
       DOS:  cpu time    0.0021: real time    0.0021
    --------------------------------------------
      LOOP:  cpu time    2.8954: real time    2.9143

 eigenvalue-minimisations  :  3232
 total energy-change (2. order) :-0.1670520E+03  (-0.1663065E+03)
 number of electron     144.0000000 magnetization 
 augmentation part      144.0000000 magnetization 

 Free energy of the ion-electron system (eV)
  ---------------------------------------------------
  alpha Z        PSCENC =       166.34077906
  Ewald energy   TEWEN  =     11845.94338130
  -Hartree energ DENC   =    -17973.83519530
  -exchange      EXHF   =         0.00000000
  -V(xc)+E(xc)   XCENC  =        46.39536608
  PAW double counting   =      3711.26622449    -3423.01674647
  entropy T*S    EENTRO =         0.00000000
  eigenvalues    EBANDS =     -1778.93894764
  atomic energy  EATOM  =      7287.06411261
  Solvation  Ediel_sol  =         0.00000000
  ---------------------------------------------------
  free energy    TOTEN  =      -118.78102588 eV

  energy without entropy =     -118.78102588  energy(sigma->0) =     -118.78102588


--------------------------------------------------------------------------------------------------------




--------------------------------------- Iteration      1(   4)  ---------------------------------------


     EDDAV:  cpu time    3.3103: real time    3.3300
 BZINTS: Fermi energy: -3.476861;144.000000 electrons
         Band energy:***********;  BLOECHL correction:  0.000000
       DOS:  cpu time    0.0026: real time    0.0026
    --------------------------------------------
      LOOP:  cpu time    3.3129: real time    3.3326

 eigenvalue-minimisations  :  3792
 total energy-change (2. order) :-0.6206989E+01  (-0.6188653E+01)
 number of electron     144.0000000 magnetization 
 augmentation part      144.0000000 magnetization 

 Free energy of the ion-electron system (eV)
  ---------------------------------------------------
  alpha Z        PSCENC =       166.34077906
  Ewald energy   TEWEN  =     11845.94338130
  -Hartree energ DENC   =    -17973.83519530
  -exchange      EXHF   =         0.00000000
  -V(xc)+E(xc)   XCENC  =        46.39536608
  PAW double counting   =      3711.26622449    -3423.01674647
  entropy T*S    EENTRO =         0.00000000
  eigenvalues    EBANDS =     -1785.14593710
  atomic energy  EATOM  =      7287.06411261
  Solvation  Ediel_sol  =         0.00000000
  ---------------------------------------------------
  free energy    TOTEN  =      -124.98801534 eV

  energy without entropy =     -124.98801534  energy(sigma->0) =     -124.98801534


--------------------------------------------------------------------------------------------------------




--------------------------------------- Iteration      1(   5)  ---------------------------------------


     EDDAV:  cpu time    3.5110: real time    3.5327
 BZINTS: Fermi energy: -3.505458;144.000000 electrons
         Band energy:***********;  BLOECHL correction:  0.000000
       DOS:  cpu time    0.0020: real time    0.0020
    CHARGE:  cpu time    0.1537: real time    0.1540
    MIXING:  cpu time    0.0068: real time    0.0072
    --------------------------------------------
      LOOP:  cpu time    3.6735: real time    3.6959

 eigenvalue-minimisations  :  4208
 total energy-change (2. order) :-0.3280736E+00  (-0.3279760E+00)
 number of electron     144.0000004 magnetization 
 augmentation part      -16.8622717 magnetization 

 Broyden mixing:
  rms(total) = 0.95328E+00    rms(broyden)= 0.95327E+00
  rms(prec ) = 0.12306E+01
  weight for this iteration     100.00

 Free energy of the ion-electron system (eV)
  ---------------------------------------------------
  alpha Z        PSCENC =       166.34077906
  Ewald energy   TEWEN  =     11845.94338130
  -Hartree energ DENC   =    -17973.83519530
  -exchange      EXHF   =         0.00000000
  -V(xc)+E(xc)   XCENC  =        46.39536608
  PAW double counting   =      3711.26622449    -3423.01674647
  entropy T*S    EENTRO =         0.00000000
  eigenvalues    EBANDS =     -1785.47401066
  atomic energy  EATOM  =      7287.06411261
  Solvation  Ediel_sol  =         0.00000000
  ---------------------------------------------------
  free energy    TOTEN  =      -125.31608890 eV

  energy without entropy =     -125.31608890  energy(sigma->0) =     -125.31608890


--------------------------------------------------------------------------------------------------------




--------------------------------------- Iteration      1(   6)  ---------------------------------------


    POTLOK:  cpu time    0.0189: real time    0.0314
    SETDIJ:  cpu time    0.0048: real time    0.0049
     EDDAV:  cpu time    2.7772: real time    2.7838
 BZINTS: Fermi energy: -2.362607;144.000000 electrons
         Band energy:***********;  BLOECHL correction:  0.000000
       DOS:  cpu time    0.0024: real time    0.0024
    CHARGE:  cpu time    0.1550: real time    0.1554
    MIXING:  cpu time    0.0066: real time    0.0067
    --------------------------------------------
      LOOP:  cpu time    2.9649: real time    2.9845

 eigenvalue-minimisations  :  3000
 total energy-change (2. order) : 0.8904646E+01  (-0.2273095E+01)
 number of electron     144.0000002 magnetization 
 augmentation part      -16.7380324 magnetization 

 Broyden mixing:
  rms(total) = 0.47242E+00    rms(broyden)= 0.47242E+00
  rms(prec ) = 0.58780E+00
  weight for this iteration     100.00

 eigenvalues of (default mixing * dielectric matrix)
  average eigenvalue GAMMA=   1.5213
  1.5213

 Free energy of the ion-electron system (eV)
  ---------------------------------------------------
  alpha Z        PSCENC =       166.34077906
  Ewald energy   TEWEN  =     11845.94338130
  -Hartree energ DENC   =    -18067.15397807
  -exchange      EXHF   =         0.00000000
  -V(xc)+E(xc)   XCENC  =        49.00047627
  PAW double counting   =      3745.50908485    -3465.08174986
  entropy T*S    EENTRO =         0.00000000
  eigenvalues    EBANDS =     -1678.03354873
  atomic energy  EATOM  =      7287.06411261
  Solvation  Ediel_sol  =         0.00000000
  ---------------------------------------------------
  free energy    TOTEN  =      -116.41144258 eV

  energy without entropy =     -116.41144258  energy(sigma->0) =     -116.41144258


--------------------------------------------------------------------------------------------------------




--------------------------------------- Iteration      1(   7)  ---------------------------------------


    POTLOK:  cpu time    0.0230: real time    0.0361
    SETDIJ:  cpu time    0.0025: real time    0.0025
     EDDAV:  cpu time    3.0946: real time    3.1020
 BZINTS: Fermi energy: -1.565155;144.000000 electrons
         Band energy:***********;  BLOECHL correction:  0.000000
       DOS:  cpu time    0.0022: real time    0.0022
    CHARGE:  cpu time    0.1534: real time    0.1537
    MIXING:  cpu time    0.0069: real time    0.0072
    --------------------------------------------
      LOOP:  cpu time    3.2826: real time    3.3037

 eigenvalue-minimisations  :  3592
 total energy-change (2. order) : 0.1356425E+01  (-0.1014154E+01)
 number of electron     144.0000001 magnetization 
 augmentation part      -16.8922700 magnetization 

 Broyden mixing:
  rms(total) = 0.23923E+00    rms(broyden)= 0.23923E+00
  rms(prec ) = 0.29001E+00
  weight for this iteration     100.00

 eigenvalues of (default mixing * dielectric matrix)
  average eigenvalue GAMMA=   1.7632
  1.7632  1.7632

 Free energy of the ion-electron system (eV)
  ---------------------------------------------------
  alpha Z        PSCENC =       166.34077906
  Ewald energy   TEWEN  =     11845.94338130
  -Hartree energ DENC   =    -18141.37368273
  -exchange      EXHF   =         0.00000000
  -V(xc)+E(xc)   XCENC  =        51.10177148
  PAW double counting   =      3789.37926924    -3515.21638671
  entropy T*S    EENTRO =         0.00000000
  eigenvalues    EBANDS =     -1598.29426169
  atomic energy  EATOM  =      7287.06411261
  Solvation  Ediel_sol  =         0.00000000
  ---------------------------------------------------
  free energy    TOTEN  =      -115.05501745 eV

  energy without entropy =     -115.05501745  energy(sigma->0) =     -115.05501745


--------------------------------------------------------------------------------------------------------




--------------------------------------- Iteration      1(   8)  ---------------------------------------


    POTLOK:  cpu time    0.0245: real time    0.0369
    SETDIJ:  cpu time    0.0048: real time    0.0049
     EDDAV:  cpu time    2.7581: real time    2.7647
 BZINTS: Fermi energy: -1.412005;144.000000 electrons
         Band energy:***********;  BLOECHL correction:  0.000000
       DOS:  cpu time    0.0025: real time    0.0025
    CHARGE:  cpu time    0.1493: real time    0.1497
    MIXING:  cpu time    0.0063: real time    0.0067
    --------------------------------------------
      LOOP:  cpu time    2.9456: real time    2.9654

 eigenvalue-minimisations  :  3104
 total energy-change (2. order) : 0.2871678E+00  (-0.3634601E+00)
 number of electron     144.0000002 magnetization 
 augmentation part      -17.0419836 magnetization 

 Broyden mixing:
  rms(total) = 0.11680E+00    rms(broyden)= 0.11680E+00
  rms(prec ) = 0.19001E+00
  weight for this iteration     100.00

 eigenvalues of (default mixing * dielectric matrix)
  average eigenvalue GAMMA=   1.6377
  2.5199  1.1966  1.1966

 Free energy of the ion-electron system (eV)
  ---------------------------------------------------
  alpha Z        PSCENC =       166.34077906
  Ewald energy   TEWEN  =     11845.94338130
  -Hartree energ DENC   =    -18173.06202512
  -exchange      EXHF   =         0.00000000
  -V(xc)+E(xc)   XCENC  =        51.97482367
  PAW double counting   =      3835.25465352    -3563.00172777
  entropy T*S    EENTRO =         0.00000000
  eigenvalues    EBANDS =     -1565.28184695
  atomic energy  EATOM  =      7287.06411261
  Solvation  Ediel_sol  =         0.00000000
  ---------------------------------------------------
  free energy    TOTEN  =      -114.76784969 eV

  energy without entropy =     -114.76784969  energy(sigma->0) =     -114.76784969


--------------------------------------------------------------------------------------------------------




--------------------------------------- Iteration      1(   9)  ---------------------------------------


    POTLOK:  cpu time    0.0204: real time    0.0316
    SETDIJ:  cpu time    0.0044: real time    0.0045
     EDDAV:  cpu time    2.7763: real time    2.7829
 BZINTS: Fermi energy: -1.056752;144.000000 electrons
         Band energy:***********;  BLOECHL correction:  0.000000
       DOS:  cpu time    0.0021: real time    0.0021
    CHARGE:  cpu time    0.1487: real time    0.1491
    MIXING:  cpu time    0.0061: real time    0.0062
    --------------------------------------------
      LOOP:  cpu time    2.9580: real time    2.9763

 eigenvalue-minimisations  :  3120
 total energy-change (2. order) : 0.2901857E+00  (-0.1143683E+00)
 number of electron     144.0000002 magnetization 
 augmentation part      -17.0255566 magnetization 

 Broyden mixing:
  rms(total) = 0.55107E-01    rms(broyden)= 0.55106E-01
  rms(prec ) = 0.80315E-01
  weight for this iteration     100.00

 eigenvalues of (default mixing * dielectric matrix)
  average eigenvalue GAMMA=   1.3835
  2.3903  1.1754  1.1754  0.7927

 Free energy of the ion-electron system (eV)
  ---------------------------------------------------
  alpha Z        PSCENC =       166.34077906
  Ewald energy   TEWEN  =     11845.94338130
  -Hartree energ DENC   =    -18213.71596105
  -exchange      EXHF   =         0.00000000
  -V(xc)+E(xc)   XCENC  =        52.84569335
  PAW double counting   =      3847.47094338    -3576.71572318
  entropy T*S    EENTRO =         0.00000000
  eigenvalues    EBANDS =     -1523.71088948
  atomic energy  EATOM  =      7287.06411261
  Solvation  Ediel_sol  =         0.00000000
  ---------------------------------------------------
  free energy    TOTEN  =      -114.47766401 eV

  energy without entropy =     -114.47766401  energy(sigma->0) =     -114.47766401


--------------------------------------------------------------------------------------------------------




--------------------------------------- Iteration      1(  10)  ---------------------------------------


    POTLOK:  cpu time    0.0191: real time    0.0319
    SETDIJ:  cpu time    0.0054: real time    0.0054
     EDDAV:  cpu time    3.1614: real time    3.1689
 BZINTS: Fermi energy: -1.005333;144.000000 electrons
         Band energy:***********;  BLOECHL correction:  0.000000
       DOS:  cpu time    0.0022: real time    0.0022
    CHARGE:  cpu time    0.1500: real time    0.1504
    MIXING:  cpu time    0.0060: real time    0.0061
    --------------------------------------------
      LOOP:  cpu time    3.3441: real time    3.3648

 eigenvalue-minimisations  :  3640
 total energy-change (2. order) :-0.5213304E-02  (-0.2359643E-01)
 number of electron     144.0000002 magnetization 
 augmentation part      -17.0645801 magnetization 

 Broyden mixing:
  rms(total) = 0.41058E-01    rms(broyden)= 0.41058E-01
  rms(prec ) = 0.62114E-01
  weight for this iteration     100.00

 eigenvalues of (default mixing * dielectric matrix)
  average eigenvalue GAMMA=   1.5849
  2.4583  2.4583  0.9597  0.9597  1.0882

 Free energy of the ion-electron system (eV)
  ---------------------------------------------------
  alpha Z        PSCENC =       166.34077906
  Ewald energy   TEWEN  =     11845.94338130
  -Hartree energ DENC   =    -18223.60903054
  -exchange      EXHF   =         0.00000000
  -V(xc)+E(xc)   XCENC  =        52.84107098
  PAW double counting   =      3843.08150724    -3571.95823481
  entropy T*S    EENTRO =         0.00000000
  eigenvalues    EBANDS =     -1514.18646315
  atomic energy  EATOM  =      7287.06411261
  Solvation  Ediel_sol  =         0.00000000
  ---------------------------------------------------
  free energy    TOTEN  =      -114.48287731 eV

  energy without entropy =     -114.48287731  energy(sigma->0) =     -114.48287731


--------------------------------------------------------------------------------------------------------




--------------------------------------- Iteration      1(  11)  ---------------------------------------


    POTLOK:  cpu time    0.0207: real time    0.0321
    SETDIJ:  cpu time    0.0042: real time    0.0042
     EDDAV:  cpu time    2.9651: real time    2.9722
 BZINTS: Fermi energy: -0.870888;144.000000 electrons
         Band energy:***********;  BLOECHL correction:  0.000000
       DOS:  cpu time    0.0020: real time    0.0020
    CHARGE:  cpu time    0.1497: real time    0.1501
    MIXING:  cpu time    0.0063: real time    0.0063
    --------------------------------------------
      LOOP:  cpu time    3.1480: real time    3.1669

 eigenvalue-minimisations  :  3272
 total energy-change (2. order) : 0.1931755E-01  (-0.5212998E-02)
 number of electron     144.0000002 magnetization 
 augmentation part      -17.0749211 magnetization 

 Broyden mixing:
  rms(total) = 0.14972E-01    rms(broyden)= 0.14972E-01
  rms(prec ) = 0.31505E-01
  weight for this iteration     100.00

 eigenvalues of (default mixing * dielectric matrix)
  average eigenvalue GAMMA=   1.5975
  2.7784  2.7784  1.0941  1.0157  0.9592  0.9592

 Free energy of the ion-electron system (eV)
  ---------------------------------------------------
  alpha Z        PSCENC =       166.34077906
  Ewald energy   TEWEN  =     11845.94338130
  -Hartree energ DENC   =    -18244.78277193
  -exchange      EXHF   =         0.00000000
  -V(xc)+E(xc)   XCENC  =        53.02217227
  PAW double counting   =      3844.55571341    -3573.09283589
  entropy T*S    EENTRO =         0.00000000
  eigenvalues    EBANDS =     -1493.51411059
  atomic energy  EATOM  =      7287.06411261
  Solvation  Ediel_sol  =         0.00000000
  ---------------------------------------------------
  free energy    TOTEN  =      -114.46355976 eV

  energy without entropy =     -114.46355976  energy(sigma->0) =     -114.46355976


--------------------------------------------------------------------------------------------------------




--------------------------------------- Iteration      1(  12)  ---------------------------------------


    POTLOK:  cpu time    0.0248: real time    0.0353
    SETDIJ:  cpu time    0.0027: real time    0.0027
     EDDAV:  cpu time    2.8969: real time    2.9037
 BZINTS: Fermi energy: -0.795531;144.000000 electrons
         Band energy:***********;  BLOECHL correction:  0.000000
       DOS:  cpu time    0.0020: real time    0.0020
    CHARGE:  cpu time    0.1506: real time    0.1509
    MIXING:  cpu time    0.0055: real time    0.0056
    --------------------------------------------
      LOOP:  cpu time    3.0825: real time    3.1003

 eigenvalue-minimisations  :  3224
 total energy-change (2. order) :-0.6038693E-03  (-0.1160851E-02)
 number of electron     144.0000002 magnetization 
 augmentation part      -17.0707046 magnetization 

 Broyden mixing:
  rms(total) = 0.12344E-01    rms(broyden)= 0.12344E-01
  rms(prec ) = 0.21453E-01
  weight for this iteration     100.00

 eigenvalues of (default mixing * dielectric matrix)
  average eigenvalue GAMMA=   1.7256
  3.7987  2.1292  2.1292  1.1130  1.1130  0.8981  0.8981

 Free energy of the ion-electron system (eV)
  ---------------------------------------------------
  alpha Z        PSCENC =       166.34077906
  Ewald energy   TEWEN  =     11845.94338130
  -Hartree energ DENC   =    -18257.53159949
  -exchange      EXHF   =         0.00000000
  -V(xc)+E(xc)   XCENC  =        53.09397546
  PAW double counting   =      3843.43932028    -3571.84277340
  entropy T*S    EENTRO =         0.00000000
  eigenvalues    EBANDS =     -1480.97135945
  atomic energy  EATOM  =      7287.06411261
  Solvation  Ediel_sol  =         0.00000000
  ---------------------------------------------------
  free energy    TOTEN  =      -114.46416363 eV

  energy without entropy =     -114.46416363  energy(sigma->0) =     -114.46416363


--------------------------------------------------------------------------------------------------------




--------------------------------------- Iteration      1(  13)  ---------------------------------------


    POTLOK:  cpu time    0.0212: real time    0.0336
    SETDIJ:  cpu time    0.0036: real time    0.0036
     EDDAV:  cpu time    2.9210: real time    2.9279
 BZINTS: Fermi energy: -0.730268;144.000000 electrons
         Band energy:***********;  BLOECHL correction:  0.000000
       DOS:  cpu time    0.0022: real time    0.0022
    CHARGE:  cpu time    0.1468: real time    0.1471
    MIXING:  cpu time    0.0074: real time    0.0074
    --------------------------------------------
      LOOP:  cpu time    3.1021: real time    3.1218

 eigenvalue-minimisations  :  3296
 total energy-change (2. order) :-0.6595487E-02  (-0.1001569E-02)
 number of electron     144.0000002 magnetization 
 augmentation part      -17.0711476 magnetization 

 Broyden mixing:
  rms(total) = 0.67983E-02    rms(broyden)= 0.67983E-02
  rms(prec ) = 0.11614E-01
  weight for this iteration     100.00

 eigenvalues of (default mixing * dielectric matrix)
  average eigenvalue GAMMA=   1.8150
  4.4009  2.5302  2.5302  1.2022  1.2022  0.8874  0.8874  0.8792

 Free energy of the ion-electron system (eV)
  ---------------------------------------------------
  alpha Z        PSCENC =       166.34077906
  Ewald energy   TEWEN  =     11845.94338130
  -Hartree energ DENC   =    -18269.26733084
  -exchange      EXHF   =         0.00000000
  -V(xc)+E(xc)   XCENC  =        53.17634352
  PAW double counting   =      3842.40621488    -3570.93407044
  entropy T*S    EENTRO =         0.00000000
  eigenvalues    EBANDS =     -1469.20018920
  atomic energy  EATOM  =      7287.06411261
  Solvation  Ediel_sol  =         0.00000000
  ---------------------------------------------------
  free energy    TOTEN  =      -114.47075912 eV

  energy without entropy =     -114.47075912  energy(sigma->0) =     -114.47075912


--------------------------------------------------------------------------------------------------------




--------------------------------------- Iteration      1(  14)  ---------------------------------------


    POTLOK:  cpu time    0.0188: real time    0.0297
    SETDIJ:  cpu time    0.0061: real time    0.0061
     EDDAV:  cpu time    2.8144: real time    2.8211
 BZINTS: Fermi energy: -0.624632;144.000000 electrons
         Band energy:***********;  BLOECHL correction:  0.000000
       DOS:  cpu time    0.0024: real time    0.0024
    CHARGE:  cpu time    0.1510: real time    0.1514
    MIXING:  cpu time    0.0088: real time    0.0089
    --------------------------------------------
      LOOP:  cpu time    3.0016: real time    3.0196

 eigenvalue-minimisations  :  3176
 total energy-change (2. order) :-0.4888800E-02  (-0.2458636E-03)
 number of electron     144.0000002 magnetization 
 augmentation part      -17.0711162 magnetization 

 Broyden mixing:
  rms(total) = 0.51607E-02    rms(broyden)= 0.51607E-02
  rms(prec ) = 0.83922E-02
  weight for this iteration     100.00

 eigenvalues of (default mixing * dielectric matrix)
  average eigenvalue GAMMA=   1.8504
  4.8628  2.8029  2.1980  1.4444  1.4444  0.9098  0.9098  1.0407  1.0407

 Free energy of the ion-electron system (eV)
  ---------------------------------------------------
  alpha Z        PSCENC =       166.34077906
  Ewald energy   TEWEN  =     11845.94338130
  -Hartree energ DENC   =    -18273.18613961
  -exchange      EXHF   =         0.00000000
  -V(xc)+E(xc)   XCENC  =        53.17886244
  PAW double counting   =      3841.27695757    -3569.79035553
  entropy T*S    EENTRO =         0.00000000
  eigenvalues    EBANDS =     -1465.30324575
  atomic energy  EATOM  =      7287.06411261
  Solvation  Ediel_sol  =         0.00000000
  ---------------------------------------------------
  free energy    TOTEN  =      -114.47564792 eV

  energy without entropy =     -114.47564792  energy(sigma->0) =     -114.47564792


--------------------------------------------------------------------------------------------------------




--------------------------------------- Iteration      1(  15)  ---------------------------------------


    POTLOK:  cpu time    0.0211: real time    0.0335
    SETDIJ:  cpu time    0.0039: real time    0.0039
     EDDAV:  cpu time    2.8045: real time    2.8112
 BZINTS: Fermi energy: -0.616781;144.000000 electrons
         Band energy:***********;  BLOECHL correction:  0.000000
       DOS:  cpu time    0.0023: real time    0.0023
    CHARGE:  cpu time    0.1454: real time    0.1457
    MIXING:  cpu time    0.0090: real time    0.0090
    --------------------------------------------
      LOOP:  cpu time    2.9861: real time    3.0056

 eigenvalue-minimisations  :  3144
 total energy-change (2. order) :-0.2037802E-02  (-0.1553306E-03)
 number of electron     144.0000002 magnetization 
 augmentation part      -17.0723552 magnetization 

 Broyden mixing:
  rms(total) = 0.21496E-02    rms(broyden)= 0.21496E-02
  rms(prec ) = 0.40631E-02
  weight for this iteration     100.00

 eigenvalues of (default mixing * dielectric matrix)
  average eigenvalue GAMMA=   1.9461
  5.6254  3.4745  2.3490  0.9063  0.9063  1.5183  1.3275  1.3275  1.0129  1.0129

 Free energy of the ion-electron system (eV)
  ---------------------------------------------------
  alpha Z        PSCENC =       166.34077906
  Ewald energy   TEWEN  =     11845.94338130
  -Hartree energ DENC   =    -18274.93056439
  -exchange      EXHF   =         0.00000000
  -V(xc)+E(xc)   XCENC  =        53.17412441
  PAW double counting   =      3841.47443894    -3569.95262962
  entropy T*S    EENTRO =         0.00000000
  eigenvalues    EBANDS =     -1463.59132802
  atomic energy  EATOM  =      7287.06411261
  Solvation  Ediel_sol  =         0.00000000
  ---------------------------------------------------
  free energy    TOTEN  =      -114.47768572 eV

  energy without entropy =     -114.47768572  energy(sigma->0) =     -114.47768572


--------------------------------------------------------------------------------------------------------




--------------------------------------- Iteration      1(  16)  ---------------------------------------


    POTLOK:  cpu time    0.0203: real time    0.0314
    SETDIJ:  cpu time    0.0040: real time    0.0040
     EDDAV:  cpu time    2.8029: real time    2.8096
 BZINTS: Fermi energy: -0.614290;144.000000 electrons
         Band energy:***********;  BLOECHL correction:  0.000000
       DOS:  cpu time    0.0025: real time    0.0025
    CHARGE:  cpu time    0.1476: real time    0.1480
    MIXING:  cpu time    0.0061: real time    0.0062
    --------------------------------------------
      LOOP:  cpu time    2.9834: real time    3.0016

 eigenvalue-minimisations  :  3120
 total energy-change (2. order) :-0.1242231E-02  (-0.6532163E-04)
 number of electron     144.0000002 magnetization 
 augmentation part      -17.0720238 magnetization 

 Broyden mixing:
  rms(total) = 0.14662E-02    rms(broyden)= 0.14662E-02
  rms(prec ) = 0.26886E-02
  weight for this iteration     100.00

 eigenvalues of (default mixing * dielectric matrix)
  average eigenvalue GAMMA=   1.9946
  5.7714  3.9936  2.2364  1.9304  1.7083  0.9096  0.9096  1.2644  1.2644  0.9762
  0.9762

 Free energy of the ion-electron system (eV)
  ---------------------------------------------------
  alpha Z        PSCENC =       166.34077906
  Ewald energy   TEWEN  =     11845.94338130
  -Hartree energ DENC   =    -18276.15900056
  -exchange      EXHF   =         0.00000000
  -V(xc)+E(xc)   XCENC  =        53.17200640
  PAW double counting   =      3841.46190662    -3569.95030869
  entropy T*S    EENTRO =         0.00000000
  eigenvalues    EBANDS =     -1462.35180467
  atomic energy  EATOM  =      7287.06411261
  Solvation  Ediel_sol  =         0.00000000
  ---------------------------------------------------
  free energy    TOTEN  =      -114.47892795 eV

  energy without entropy =     -114.47892795  energy(sigma->0) =     -114.47892795


--------------------------------------------------------------------------------------------------------




--------------------------------------- Iteration      1(  17)  ---------------------------------------


    POTLOK:  cpu time    0.0182: real time    0.0298
    SETDIJ:  cpu time    0.0041: real time    0.0041
     EDDAV:  cpu time    2.7660: real time    2.7726
 BZINTS: Fermi energy: -0.615653;144.000000 electrons
         Band energy:***********;  BLOECHL correction:  0.000000
       DOS:  cpu time    0.0024: real time    0.0024
    CHARGE:  cpu time    0.1501: real time    0.1505
    MIXING:  cpu time    0.0069: real time    0.0070
    --------------------------------------------
      LOOP:  cpu time    2.9478: real time    2.9664

 eigenvalue-minimisations  :  3048
 total energy-change (2. order) :-0.7892517E-03  (-0.2925298E-04)
 number of electron     144.0000002 magnetization 
 augmentation part      -17.0721197 magnetization 

 Broyden mixing:
  rms(total) = 0.83069E-03    rms(broyden)= 0.83069E-03
  rms(prec ) = 0.16714E-02
  weight for this iteration     100.00

 eigenvalues of (default mixing * dielectric matrix)
  average eigenvalue GAMMA=   2.0475
  6.0642  4.5372  2.5214  2.3345  1.6223  0.9089  0.9089  1.3086  1.3086  0.9670
  1.0444  1.0444

 Free energy of the ion-electron system (eV)
  ---------------------------------------------------
  alpha Z        PSCENC =       166.34077906
  Ewald energy   TEWEN  =     11845.94338130
  -Hartree energ DENC   =    -18276.88030433
  -exchange      EXHF   =         0.00000000
  -V(xc)+E(xc)   XCENC  =        53.17188045
  PAW double counting   =      3841.48932580    -3569.97567478
  entropy T*S    EENTRO =         0.00000000
  eigenvalues    EBANDS =     -1461.63321729
  atomic energy  EATOM  =      7287.06411261
  Solvation  Ediel_sol  =         0.00000000
  ---------------------------------------------------
  free energy    TOTEN  =      -114.47971720 eV

  energy without entropy =     -114.47971720  energy(sigma->0) =     -114.47971720


--------------------------------------------------------------------------------------------------------




--------------------------------------- Iteration      1(  18)  ---------------------------------------


    POTLOK:  cpu time    0.0267: real time    0.0391
    SETDIJ:  cpu time    0.0044: real time    0.0044
     EDDAV:  cpu time    2.6568: real time    2.6631
 BZINTS: Fermi energy: -0.618459;144.000000 electrons
         Band energy:***********;  BLOECHL correction:  0.000000
       DOS:  cpu time    0.0023: real time    0.0023
    CHARGE:  cpu time    0.1461: real time    0.1464
    MIXING:  cpu time    0.0089: real time    0.0090
    --------------------------------------------
      LOOP:  cpu time    2.8453: real time    2.8644

 eigenvalue-minimisations  :  2840
 total energy-change (2. order) :-0.7026117E-03  (-0.1508425E-04)
 number of electron     144.0000002 magnetization 
 augmentation part      -17.0722283 magnetization 

 Broyden mixing:
  rms(total) = 0.54436E-03    rms(broyden)= 0.54436E-03
  rms(prec ) = 0.98945E-03
  weight for this iteration     100.00

 eigenvalues of (default mixing * dielectric matrix)
  average eigenvalue GAMMA=   2.1181
  6.1867  5.3720  2.8955  2.3876  1.8852  0.9082  0.9082  1.3809  1.3809  1.1649
  1.1649  0.9502  0.9502

 Free energy of the ion-electron system (eV)
  ---------------------------------------------------
  alpha Z        PSCENC =       166.34077906
  Ewald energy   TEWEN  =     11845.94338130
  -Hartree energ DENC   =    -18277.45850640
  -exchange      EXHF   =         0.00000000
  -V(xc)+E(xc)   XCENC  =        53.17263841
  PAW double counting   =      3841.49663121    -3569.98242347
  entropy T*S    EENTRO =         0.00000000
  eigenvalues    EBANDS =     -1461.05703252
  atomic energy  EATOM  =      7287.06411261
  Solvation  Ediel_sol  =         0.00000000
  ---------------------------------------------------
  free energy    TOTEN  =      -114.48041981 eV

  energy without entropy =     -114.48041981  energy(sigma->0) =     -114.48041981


--------------------------------------------------------------------------------------------------------




--------------------------------------- Iteration      1(  19)  ---------------------------------------


    POTLOK:  cpu time    0.0209: real time    0.0322
    SETDIJ:  cpu time    0.0056: real time    0.0056
     EDDAV:  cpu time    2.4938: real time    2.4997
 BZINTS: Fermi energy: -0.621361;144.000000 electrons
         Band energy:***********;  BLOECHL correction:  0.000000
       DOS:  cpu time    0.0023: real time    0.0023
    CHARGE:  cpu time    0.1457: real time    0.1460
    MIXING:  cpu time    0.0084: real time    0.0085
    --------------------------------------------
      LOOP:  cpu time    2.6766: real time    2.6943

 eigenvalue-minimisations  :  2656
 total energy-change (2. order) :-0.6791143E-03  (-0.9125875E-05)
 number of electron     144.0000002 magnetization 
 augmentation part      -17.0724576 magnetization 

 Broyden mixing:
  rms(total) = 0.41978E-03    rms(broyden)= 0.41978E-03
  rms(prec ) = 0.63037E-03
  weight for this iteration     100.00

 eigenvalues of (default mixing * dielectric matrix)
  average eigenvalue GAMMA=   2.2136
  6.2922  6.2922  3.2354  2.5719  2.2022  1.5695  1.5695  0.9083  0.9083  1.2328
  1.2328  0.9935  0.9935  0.9883

 Free energy of the ion-electron system (eV)
  ---------------------------------------------------
  alpha Z        PSCENC =       166.34077906
  Ewald energy   TEWEN  =     11845.94338130
  -Hartree energ DENC   =    -18277.72934019
  -exchange      EXHF   =         0.00000000
  -V(xc)+E(xc)   XCENC  =        53.17202019
  PAW double counting   =      3841.48469895    -3569.96995180
  entropy T*S    EENTRO =         0.00000000
  eigenvalues    EBANDS =     -1460.78679904
  atomic energy  EATOM  =      7287.06411261
  Solvation  Ediel_sol  =         0.00000000
  ---------------------------------------------------
  free energy    TOTEN  =      -114.48109893 eV

  energy without entropy =     -114.48109893  energy(sigma->0) =     -114.48109893


--------------------------------------------------------------------------------------------------------




--------------------------------------- Iteration      1(  20)  ---------------------------------------


    POTLOK:  cpu time    0.0227: real time    0.0339
    SETDIJ:  cpu time    0.0027: real time    0.0027
     EDDAV:  cpu time    2.5298: real time    2.5358
 BZINTS: Fermi energy: -0.621263;144.000000 electrons
         Band energy:***********;  BLOECHL correction:  0.000000
       DOS:  cpu time    0.0023: real time    0.0023
    CHARGE:  cpu time    0.1459: real time    0.1463
    MIXING:  cpu time    0.0081: real time    0.0082
    --------------------------------------------
      LOOP:  cpu time    2.7116: real time    2.7293

 eigenvalue-minimisations  :  2688
 total energy-change (2. order) :-0.4051676E-03  (-0.6191360E-05)
 number of electron     144.0000002 magnetization 
 augmentation part      -17.0725515 magnetization 

 Broyden mixing:
  rms(total) = 0.16456E-03    rms(broyden)= 0.16456E-03
  rms(prec ) = 0.22822E-03
  weight for this iteration     100.00

 eigenvalues of (default mixing * dielectric matrix)
  average eigenvalue GAMMA=   2.3025
  7.0322  7.0322  3.7003  2.7608  2.3168  1.6240  1.6240  0.9083  0.9083  1.2402
  1.2402  1.1159  1.1159  0.9590  0.9590

 Free energy of the ion-electron system (eV)
  ---------------------------------------------------
  alpha Z        PSCENC =       166.34077906
  Ewald energy   TEWEN  =     11845.94338130
  -Hartree energ DENC   =    -18277.82570513
  -exchange      EXHF   =         0.00000000
  -V(xc)+E(xc)   XCENC  =        53.17158569
  PAW double counting   =      3841.48493856    -3569.96891707
  entropy T*S    EENTRO =         0.00000000
  eigenvalues    EBANDS =     -1460.69167911
  atomic energy  EATOM  =      7287.06411261
  Solvation  Ediel_sol  =         0.00000000
  ---------------------------------------------------
  free energy    TOTEN  =      -114.48150410 eV

  energy without entropy =     -114.48150410  energy(sigma->0) =     -114.48150410


--------------------------------------------------------------------------------------------------------




--------------------------------------- Iteration      1(  21)  ---------------------------------------


    POTLOK:  cpu time    0.0177: real time    0.0298
    SETDIJ:  cpu time    0.0054: real time    0.0054
     EDDAV:  cpu time    2.3275: real time    2.3330
 BZINTS: Fermi energy: -0.621528;144.000000 electrons
         Band energy:***********;  BLOECHL correction:  0.000000
       DOS:  cpu time    0.0023: real time    0.0023
    CHARGE:  cpu time    0.1491: real time    0.1494
    MIXING:  cpu time    0.0071: real time    0.0072
    --------------------------------------------
      LOOP:  cpu time    2.5090: real time    2.5271

 eigenvalue-minimisations  :  2448
 total energy-change (2. order) :-0.1213912E-03  (-0.1383300E-05)
 number of electron     144.0000002 magnetization 
 augmentation part      -17.0724913 magnetization 

 Broyden mixing:
  rms(total) = 0.10147E-03    rms(broyden)= 0.10147E-03
  rms(prec ) = 0.12583E-03
  weight for this iteration     100.00

 eigenvalues of (default mixing * dielectric matrix)
  average eigenvalue GAMMA=   2.3762
  8.3699  6.9777  3.9358  2.9565  2.3530  1.8665  1.8665  0.9083  0.9083  1.2663
  1.2663  1.2103  1.2103  0.9670  0.9670  0.9895

 Free energy of the ion-electron system (eV)
  ---------------------------------------------------
  alpha Z        PSCENC =       166.34077906
  Ewald energy   TEWEN  =     11845.94338130
  -Hartree energ DENC   =    -18277.85352092
  -exchange      EXHF   =         0.00000000
  -V(xc)+E(xc)   XCENC  =        53.17138551
  PAW double counting   =      3841.46977127    -3569.95387395
  entropy T*S    EENTRO =         0.00000000
  eigenvalues    EBANDS =     -1460.66366036
  atomic energy  EATOM  =      7287.06411261
  Solvation  Ediel_sol  =         0.00000000
  ---------------------------------------------------
  free energy    TOTEN  =      -114.48162549 eV

  energy without entropy =     -114.48162549  energy(sigma->0) =     -114.48162549


--------------------------------------------------------------------------------------------------------




--------------------------------------- Iteration      1(  22)  ---------------------------------------


    POTLOK:  cpu time    0.0219: real time    0.0326
    SETDIJ:  cpu time    0.0040: real time    0.0040
     EDDAV:  cpu time    2.2167: real time    2.2220
 BZINTS: Fermi energy: -0.621939;144.000000 electrons
         Band energy:***********;  BLOECHL correction:  0.000000
       DOS:  cpu time    0.0024: real time    0.0024
    CHARGE:  cpu time    0.1483: real time    0.1487
    MIXING:  cpu time    0.0092: real time    0.0093
    --------------------------------------------
      LOOP:  cpu time    2.4026: real time    2.4190

 eigenvalue-minimisations  :  2312
 total energy-change (2. order) :-0.3987275E-04  (-0.3623464E-06)
 number of electron     144.0000002 magnetization 
 augmentation part      -17.0724844 magnetization 

 Broyden mixing:
  rms(total) = 0.44918E-04    rms(broyden)= 0.44918E-04
  rms(prec ) = 0.58715E-04
  weight for this iteration     100.00

 eigenvalues of (default mixing * dielectric matrix)
  average eigenvalue GAMMA=   2.3645
  8.7237  7.0575  4.0872  3.0722  2.4821  1.9080  1.8661  0.9083  0.9083  1.3422
  1.3422  1.2599  1.2599  1.0383  1.0383  0.9514  0.9514

 Free energy of the ion-electron system (eV)
  ---------------------------------------------------
  alpha Z        PSCENC =       166.34077906
  Ewald energy   TEWEN  =     11845.94338130
  -Hartree energ DENC   =    -18277.84026812
  -exchange      EXHF   =         0.00000000
  -V(xc)+E(xc)   XCENC  =        53.17103060
  PAW double counting   =      3841.45519280    -3569.93940836
  entropy T*S    EENTRO =         0.00000000
  eigenvalues    EBANDS =     -1460.67648523
  atomic energy  EATOM  =      7287.06411261
  Solvation  Ediel_sol  =         0.00000000
  ---------------------------------------------------
  free energy    TOTEN  =      -114.48166536 eV

  energy without entropy =     -114.48166536  energy(sigma->0) =     -114.48166536


--------------------------------------------------------------------------------------------------------




--------------------------------------- Iteration      1(  23)  ---------------------------------------


    POTLOK:  cpu time    0.0202: real time    0.0320
    SETDIJ:  cpu time    0.0039: real time    0.0039
     EDDAV:  cpu time    2.0343: real time    2.0391
 BZINTS: Fermi energy: -0.622091;144.000000 electrons
         Band energy:***********;  BLOECHL correction:  0.000000
       DOS:  cpu time    0.0024: real time    0.0024
    CHARGE:  cpu time    0.1481: real time    0.1484
    MIXING:  cpu time    0.0067: real time    0.0068
    --------------------------------------------
      LOOP:  cpu time    2.2156: real time    2.2326

 eigenvalue-minimisations  :  2040
 total energy-change (2. order) :-0.1121986E-04  (-0.7601827E-07)
 number of electron     144.0000002 magnetization 
 augmentation part      -17.0724880 magnetization 

 Broyden mixing:
  rms(total) = 0.22776E-04    rms(broyden)= 0.22776E-04
  rms(prec ) = 0.30640E-04
  weight for this iteration     100.00

 eigenvalues of (default mixing * dielectric matrix)
  average eigenvalue GAMMA=   2.3862
  8.9753  7.0731  4.2261  3.3098  2.5011  2.1336  1.9891  1.9891  0.9083  0.9083
  1.2604  1.2604  1.2379  1.2379  1.0406  0.9675  0.9675  0.9662

 Free energy of the ion-electron system (eV)
  ---------------------------------------------------
  alpha Z        PSCENC =       166.34077906
  Ewald energy   TEWEN  =     11845.94338130
  -Hartree energ DENC   =    -18277.84660589
  -exchange      EXHF   =         0.00000000
  -V(xc)+E(xc)   XCENC  =        53.17110498
  PAW double counting   =      3841.45578199    -3569.94009994
  entropy T*S    EENTRO =         0.00000000
  eigenvalues    EBANDS =     -1460.67013068
  atomic energy  EATOM  =      7287.06411261
  Solvation  Ediel_sol  =         0.00000000
  ---------------------------------------------------
  free energy    TOTEN  =      -114.48167658 eV

  energy without entropy =     -114.48167658  energy(sigma->0) =     -114.48167658


--------------------------------------------------------------------------------------------------------




--------------------------------------- Iteration      1(  24)  ---------------------------------------


    POTLOK:  cpu time    0.0225: real time    0.0349
    SETDIJ:  cpu time    0.0015: real time    0.0015
     EDDAV:  cpu time    1.9832: real time    1.9879
 BZINTS: Fermi energy: -0.622245;144.000000 electrons
         Band energy:***********;  BLOECHL correction:  0.000000
       DOS:  cpu time    0.0023: real time    0.0023
    CHARGE:  cpu time    0.1503: real time    0.1507
    MIXING:  cpu time    0.0128: real time    0.0129
    --------------------------------------------
      LOOP:  cpu time    2.1725: real time    2.1901

 eigenvalue-minimisations  :  1888
 total energy-change (2. order) :-0.3531861E-05  (-0.3046647E-07)
 number of electron     144.0000002 magnetization 
 augmentation part      -17.0724915 magnetization 

 Broyden mixing:
  rms(total) = 0.94921E-05    rms(broyden)= 0.94921E-05
  rms(prec ) = 0.14866E-04
  weight for this iteration     100.00

 eigenvalues of (default mixing * dielectric matrix)
  average eigenvalue GAMMA=   2.3613
  9.0782  7.0617  4.3372  3.4977  2.6787  2.4948  1.8632  1.8632  0.9083  0.9083
  1.3193  1.3193  1.2562  1.2562  1.0621  1.0621  0.9553  0.9553  0.9877

 Free energy of the ion-electron system (eV)
  ---------------------------------------------------
  alpha Z        PSCENC =       166.34077906
  Ewald energy   TEWEN  =     11845.94338130
  -Hartree energ DENC   =    -18277.84370942
  -exchange      EXHF   =         0.00000000
  -V(xc)+E(xc)   XCENC  =        53.17105890
  PAW double counting   =      3841.45748073    -3569.94180539
  entropy T*S    EENTRO =         0.00000000
  eigenvalues    EBANDS =     -1460.67297790
  atomic energy  EATOM  =      7287.06411261
  Solvation  Ediel_sol  =         0.00000000
  ---------------------------------------------------
  free energy    TOTEN  =      -114.48168011 eV

  energy without entropy =     -114.48168011  energy(sigma->0) =     -114.48168011


--------------------------------------------------------------------------------------------------------




--------------------------------------- Iteration      1(  25)  ---------------------------------------


    POTLOK:  cpu time    0.0183: real time    0.0303
    SETDIJ:  cpu time    0.0075: real time    0.0075
     EDDAV:  cpu time    1.9631: real time    1.9677
 BZINTS: Fermi energy: -0.622367;144.000000 electrons
         Band energy:***********;  BLOECHL correction:  0.000000
       DOS:  cpu time    0.0023: real time    0.0023
    --------------------------------------------
      LOOP:  cpu time    1.9912: real time    2.0079

 eigenvalue-minimisations  :  1896
 total energy-change (2. order) :-0.8403649E-06  (-0.1384674E-07)
 number of electron     144.0000002 magnetization 
 augmentation part      -17.0724915 magnetization 

 Free energy of the ion-electron system (eV)
  ---------------------------------------------------
  alpha Z        PSCENC =       166.34077906
  Ewald energy   TEWEN  =     11845.94338130
  -Hartree energ DENC   =    -18277.84286832
  -exchange      EXHF   =         0.00000000
  -V(xc)+E(xc)   XCENC  =        53.17103499
  PAW double counting   =      3841.45728851    -3569.94159454
  entropy T*S    EENTRO =         0.00000000
  eigenvalues    EBANDS =     -1460.67381455
  atomic energy  EATOM  =      7287.06411261
  Solvation  Ediel_sol  =         0.00000000
  ---------------------------------------------------
  free energy    TOTEN  =      -114.48168095 eV

[...]
      7     -28.0985      2.00000
      8     -28.0981      2.00000
      9     -14.9640      2.00000
     10     -14.9637      2.00000
     11     -14.9060      2.00000
     12     -14.9060      2.00000
     13     -14.8393      2.00000
     14     -14.8392      2.00000
     15     -14.0376      2.00000
     16     -14.0293      2.00000
     17     -14.0183      2.00000
     18     -14.0149      2.00000
     19     -13.9856      2.00000
     20     -13.9832      2.00000
     21     -13.9360      2.00000
     22     -13.9284      2.00000
     23     -13.8947      2.00000
     24     -13.8921      2.00000
     25     -13.8870      2.00000
     26     -13.8858      2.00000
     27     -13.4149      2.00000
     28     -13.4052      2.00000
     29     -13.3676      2.00000
     30     -13.3597      2.00000
     31     -13.3393      2.00000
     32     -13.3381      2.00000
     33     -11.2140      2.00000
     34     -11.2039      2.00000
     35     -10.8886      2.00000
     36     -10.8745      2.00000
     37      -6.5677      2.00000
     38      -6.5544      2.00000
     39      -6.3550      2.00000
     40      -6.3038      2.00000
     41      -6.2799      2.00000
     42      -6.2394      2.00000
     43      -6.0265      2.00000
     44      -6.0112      2.00000
     45      -5.9749      2.00000
     46      -5.9285      2.00000
     47      -5.9039      2.00000
     48      -5.8037      2.00000
     49      -2.9525      2.00000
     50      -2.8653      2.00000
     51      -2.7069      2.00000
     52      -2.6648      2.00000
     53      -2.3529      2.00000
     54      -2.3009      2.00000
     55      -2.2789      2.00000
     56      -2.2308      2.00000
     57      -2.1133      2.00000
     58      -2.0896      2.00000
     59      -1.9424      2.00000
     60      -1.8742      2.00000
     61      -1.8149      2.00000
     62      -1.7392      2.00000
     63      -1.6323      2.00000
     64      -1.5871      2.00000
     65      -1.4687      2.00000
     66      -1.4044      2.00000
     67      -1.3110      2.00000
     68      -1.1849      2.00000
     69      -1.0882      2.00000
     70      -1.0075      2.00000
     71      -0.9536      2.00000
     72      -0.8928      2.00000
     73       0.1974      0.00000
     74       0.2283      0.00000
     75       0.3513      0.00000
     76       0.3930      0.00000
     77       0.4589      0.00000
     78       0.5663      0.00000
     79       0.6912      0.00000
     80       0.7393      0.00000
     81       0.7671      0.00000
     82       0.9040      0.00000
     83       1.0540      0.00000
     84       1.1357      0.00000
     85       1.2099      0.00000
     86       1.3373      0.00000
     87       1.4433      0.00000
     88       1.5688      0.00000

 k-point    15 :       0.0000    0.5000    0.4000
  band No.  band energies     occupation 
      1     -29.6912      2.00000
      2     -29.6912      2.00000
      3     -28.7310      2.00000
      4     -28.7310      2.00000
      5     -28.6601      2.00000
      6     -28.6601      2.00000
      7     -28.0983      2.00000
      8     -28.0983      2.00000
      9     -14.9633      2.00000
     10     -14.9633      2.00000
     11     -14.9069      2.00000
     12     -14.9069      2.00000
     13     -14.8415      2.00000
     14     -14.8414      2.00000
     15     -14.0351      2.00000
     16     -14.0351      2.00000
     17     -14.0155      2.00000
     18     -14.0155      2.00000
     19     -13.9865      2.00000
     20     -13.9865      2.00000
     21     -13.9342      2.00000
     22     -13.9342      2.00000
     23     -13.8923      2.00000
     24     -13.8923      2.00000
     25     -13.8884      2.00000
     26     -13.8884      2.00000
     27     -13.4099      2.00000
     28     -13.4099      2.00000
     29     -13.3635      2.00000
     30     -13.3635      2.00000
     31     -13.3383      2.00000
     32     -13.3383      2.00000
     33     -11.2037      2.00000
     34     -11.2037      2.00000
     35     -10.8718      2.00000
     36     -10.8718      2.00000
     37      -6.5891      2.00000
     38      -6.5891      2.00000
     39      -6.3099      2.00000
     40      -6.3099      2.00000
     41      -6.2559      2.00000
     42      -6.2559      2.00000
     43      -5.9933      2.00000
     44      -5.9933      2.00000
     45      -5.9579      2.00000
     46      -5.9579      2.00000
     47      -5.8544      2.00000
     48      -5.8544      2.00000
     49      -2.8603      2.00000
     50      -2.8603      2.00000
     51      -2.7045      2.00000
     52      -2.7044      2.00000
     53      -2.3348      2.00000
     54      -2.3348      2.00000
     55      -2.2592      2.00000
     56      -2.2592      2.00000
     57      -2.1061      2.00000
     58      -2.1061      2.00000
     59      -1.8493      2.00000
     60      -1.8493      2.00000
     61      -1.6804      2.00000
     62      -1.6804      2.00000
     63      -1.6625      2.00000
     64      -1.6625      2.00000
     65      -1.4513      2.00000
     66      -1.4513      2.00000
     67      -1.2468      2.00000
     68      -1.2468      2.00000
     69      -1.0753      2.00000
     70      -1.0753      2.00000
     71      -0.9280      2.00000
     72      -0.9280      2.00000
     73       0.1125      0.00000
     74       0.1125      0.00000
     75       0.3365      0.00000
     76       0.3365      0.00000
     77       0.5141      0.00000
     78       0.5141      0.00000
     79       0.6765      0.00000
     80       0.6765      0.00000
     81       0.7506      0.00000
     82       0.7506      0.00000
     83       1.0969      0.00000
     84       1.0969      0.00000
     85       1.3176      0.00000
     86       1.3176      0.00000
     87       1.4190      0.00000
     88       1.4190      0.00000


--------------------------------------------------------------------------------------------------------


 soft charge-density along one line, spin component           1
         0         1         2         3         4         5         6         7         8         9
 total charge-density along one line
 
 pseudopotential strength for first ion, spin component:           1
  3.735  -5.735  -0.000  -0.009  -0.038  -0.000  -0.004  -0.018
 -5.735  -3.004   0.000   0.002   0.009  -0.000  -0.002  -0.007
 -0.000   0.000  -7.159  -0.000  -0.000   1.857  -0.000  -0.000
 -0.009   0.002  -0.000  -7.154  -0.001  -0.000   1.869  -0.004
 -0.038   0.009  -0.000  -0.001  -7.154  -0.000  -0.004   1.869
 -0.000  -0.000   1.857  -0.000  -0.000   7.202  -0.000  -0.000
 -0.004  -0.002  -0.000   1.869  -0.004  -0.000   7.203  -0.000
 -0.018  -0.007  -0.000  -0.004   1.869  -0.000  -0.000   7.203
 -0.000   0.000  -0.013  -0.000  -0.000  -0.010  -0.000  -0.000
 -0.000   0.000  -0.002  -0.000  -0.000  -0.001  -0.000  -0.000
  0.002  -0.001   0.000  -0.004   0.007   0.000  -0.003   0.005
 -0.002   0.001  -0.000  -0.013  -0.003  -0.000  -0.009  -0.002
  0.003  -0.001   0.000  -0.001  -0.012   0.000  -0.001  -0.009
  0.000   0.000   0.001   0.000   0.000   0.000   0.000   0.000
  0.000   0.000   0.000   0.000   0.000  -0.000   0.000   0.000
 -0.000  -0.000  -0.000   0.000  -0.000  -0.000   0.000  -0.000
  0.000   0.000   0.000   0.001   0.000   0.000   0.000   0.000
 -0.000  -0.000  -0.000   0.000   0.001  -0.000   0.000   0.000
 total augmentation occupancy for first ion, spin component:           1
  2.117  -0.284   0.000   0.014   0.054  -0.000  -0.006  -0.019   0.000  -0.000   0.013  -0.014   0.035   0.000   0.000  -0.006
 -0.284   0.654   0.000  -0.036  -0.136   0.000   0.014   0.034   0.000   0.000  -0.020   0.020  -0.067   0.000   0.000   0.031
  0.000   0.000   2.012  -0.000   0.000  -0.011   0.000   0.000  -0.081   0.019   0.000   0.000   0.000   0.059  -0.040  -0.000
  0.014  -0.036   0.000   1.999   0.003  -0.000  -0.003  -0.002   0.000   0.000  -0.045  -0.069  -0.014   0.000  -0.000   0.038
  0.054  -0.136   0.000   0.003   1.995   0.000  -0.002  -0.000   0.000   0.000   0.033  -0.008  -0.052   0.000   0.000  -0.022
  0.000   0.000  -0.011   0.000   0.000   0.008  -0.000   0.000   0.022  -0.008   0.000   0.000   0.000  -0.030   0.013   0.000
 -0.006   0.014   0.000  -0.003  -0.002   0.000   0.005   0.001   0.000   0.000   0.016   0.017   0.005   0.000   0.000  -0.023
 -0.019   0.034   0.000  -0.002  -0.000   0.000   0.001   0.005   0.000   0.000  -0.006   0.001   0.009   0.000   0.000   0.008
  0.000   0.000  -0.081   0.000  -0.000   0.022   0.000  -0.000   0.145  -0.010  -0.000   0.000   0.000  -0.183   0.016   0.000
 -0.000   0.000   0.019   0.000   0.000  -0.008   0.000   0.000  -0.010   0.070   0.000   0.000   0.000   0.014  -0.087   0.000
  0.013  -0.020   0.000  -0.045   0.033  -0.000   0.016  -0.006   0.000   0.000   0.125   0.052   0.021  -0.000   0.000  -0.154
 -0.014   0.020   0.000  -0.069  -0.008   0.000   0.017   0.001  -0.000   0.000   0.052   0.091   0.010  -0.000   0.000  -0.073
  0.035  -0.067   0.000  -0.014  -0.052   0.000   0.005   0.009   0.000  -0.000   0.021   0.010   0.099   0.000   0.000  -0.030
 -0.000   0.000   0.059  -0.000   0.000  -0.030  -0.000   0.000  -0.183   0.014   0.000   0.000   0.000   0.260  -0.028   0.000
  0.000  -0.000  -0.040  -0.000   0.000   0.013   0.000   0.000   0.016  -0.087   0.000   0.000  -0.000  -0.028   0.119   0.000
 -0.006   0.031  -0.000   0.038  -0.022   0.000  -0.023   0.008   0.000   0.000  -0.154  -0.073  -0.030  -0.000   0.000   0.211
  0.009  -0.041   0.000   0.047  -0.003  -0.000  -0.024  -0.002   0.000  -0.000  -0.071  -0.116  -0.014   0.000   0.000   0.109
 -0.027   0.083   0.000   0.020   0.034   0.000  -0.008  -0.012   0.000  -0.000  -0.031  -0.015  -0.131   0.000   0.000   0.049


------------------------ aborting loop because EDIFF is reached ----------------------------------------


    CHARGE:  cpu time    0.1395: real time    0.1399
    FORLOC:  cpu time    0.0091: real time    0.0091
    FORNL :  cpu time    0.5252: real time    0.5265
    STRESS:  cpu time    1.5856: real time    1.5895
    FORCOR:  cpu time    0.0254: real time    0.0254
    FORHAR:  cpu time    0.0218: real time    0.0218
    MIXING:  cpu time    0.0127: real time    0.0128
    OFIELD:  cpu time    0.0000: real time    0.0000

  FORCE on cell =-STRESS in cart. coord.  units (eV):
  Direction    XX          YY          ZZ          XY          YZ          ZX
  --------------------------------------------------------------------------------------
  Alpha Z   166.34078   166.34078   166.34078
  Ewald  -19553.94553 15984.22474 15415.65065    -0.00002     0.00000   175.62999
  Hartree-16490.82867 17612.41087 17156.25848     0.00000    -0.00000   134.70655
  E(xc)    -456.92833  -457.33196  -457.29529    -0.00000    -0.00000     0.07776
  Local   34629.28893-35032.66898-34001.14854     0.00001    -0.00000  -308.92726
  n-local   344.55138   345.43596   346.48388     0.06627    -0.20937    -1.35646
  augment  -171.41442  -171.88966  -171.90066    -0.00000    -0.00000     0.28183
  Kinetic  1516.30100  1533.39516  1527.96160    -0.05806    -0.82762    -0.47542
  Fock        0.00000     0.00000     0.00000     0.00000     0.00000     0.00000
  -------------------------------------------------------------------------------------
  Total     -16.63485   -20.08309   -17.64909     0.00000     0.00000    -0.06301
  in kB     -14.11617   -17.04231   -14.97684     0.00000     0.00000    -0.05347
  external pressure =      -15.38 kB  Pullay stress =        0.00 kB


 VOLUME and BASIS-vectors are now :
 -----------------------------------------------------------------------------
  energy-cutoff  :      500.00
  volume of cell :     1888.05
      direct lattice vectors                 reciprocal lattice vectors
    24.009468079  0.000000000  0.000000000     0.041650236  0.000000000  0.000000000
     0.000000000  6.777849674  0.000000000     0.000000000  0.147539419  0.000000000
     0.000000000  0.000000000 11.602143288     0.000000000  0.000000000  0.086190971

  length of vectors
    24.009468079  6.777849674 11.602143288     0.041650236  0.147539419  0.086190971


 FORCES acting on ions
    electron-ion (+dipol)            ewald-force                    non-local-force                 convergence-correction
 -----------------------------------------------------------------------------------------------
   0.781E+03 0.101E-04 0.505E+02   -.776E+03 0.101E-04 -.496E+02   -.421E+01 -.184E-18 -.906E+00   -.420E-04 -.922E-09 0.431E-04
   -.781E+03 -.615E-04 -.505E+02   0.776E+03 -.130E-04 0.496E+02   0.421E+01 0.105E-18 0.906E+00   0.420E-04 0.104E-08 -.431E-04
   0.865E+02 -.590E-04 -.464E+02   -.861E+02 -.187E-04 0.450E+02   -.216E+00 -.512E-19 0.134E+01   0.120E-03 0.157E-08 -.946E-04
   -.865E+02 0.112E-04 0.464E+02   0.861E+02 0.131E-04 -.450E+02   0.216E+00 0.318E-19 -.134E+01   -.120E-03 -.144E-08 0.946E-04
   0.629E+03 -.596E-04 -.522E+02   -.627E+03 -.169E-04 0.525E+02   -.185E+01 -.105E-17 -.266E+00   0.296E-04 0.126E-08 -.161E-03
   -.629E+03 0.896E-05 0.522E+02   0.627E+03 0.146E-04 -.525E+02   0.185E+01 0.127E-17 0.266E+00   -.296E-04 -.117E-08 0.161E-03
   0.365E+03 0.117E-04 -.185E+02   -.363E+03 0.129E-04 0.176E+02   -.801E+00 -.137E-17 0.884E+00   0.852E-04 -.141E-08 0.580E-04
   -.365E+03 -.609E-04 0.185E+02   0.363E+03 -.128E-04 -.176E+02   0.801E+00 -.160E-17 -.884E+00   -.852E-04 0.142E-08 -.580E-04
   0.275E+03 0.382E+02 -.502E+02   -.275E+03 -.391E+02 0.506E+02   -.229E+00 0.943E+00 -.492E+00   0.562E-04 0.347E-04 -.509E-04
   -.275E+03 -.382E+02 0.502E+02   0.275E+03 0.391E+02 -.506E+02   0.229E+00 -.943E+00 0.492E+00   -.562E-04 -.347E-04 0.509E-04
   0.120E+03 -.353E+02 0.710E+01   -.120E+03 0.358E+02 -.621E+01   -.373E-01 -.561E+00 -.895E+00   -.291E-04 -.635E-04 0.314E-06
   -.120E+03 0.353E+02 -.710E+01   0.120E+03 -.358E+02 0.621E+01   0.373E-01 0.561E+00 0.895E+00   0.291E-04 0.635E-04 -.311E-06
   -.275E+03 0.382E+02 0.502E+02   0.275E+03 -.391E+02 -.506E+02   0.229E+00 0.943E+00 0.492E+00   -.562E-04 0.347E-04 0.509E-04
   0.275E+03 -.382E+02 -.502E+02   -.275E+03 0.391E+02 0.506E+02   -.229E+00 -.943E+00 -.492E+00   0.562E-04 -.347E-04 -.509E-04
   -.120E+03 -.353E+02 -.710E+01   0.120E+03 0.358E+02 0.621E+01   0.373E-01 -.561E+00 0.895E+00   0.291E-04 -.635E-04 -.311E-06
   0.120E+03 0.353E+02 0.710E+01   -.120E+03 -.358E+02 -.621E+01   -.373E-01 0.561E+00 -.895E+00   -.291E-04 0.635E-04 0.314E-06
   0.331E+03 -.516E-05 0.492E+02   -.332E+03 -.610E-05 -.495E+02   0.105E+01 -.249E-19 0.350E+00   0.557E-04 0.403E-09 0.546E-04
   -.331E+03 0.620E-05 -.492E+02   0.332E+03 0.636E-05 0.495E+02   -.105E+01 0.317E-19 -.350E+00   -.557E-04 -.398E-09 -.546E-04
   0.323E+02 0.946E-05 -.130E+02   -.312E+02 0.762E-05 0.121E+02   -.962E+00 0.464E-19 0.888E+00   0.256E-05 -.556E-09 -.200E-04
   -.323E+02 -.282E-05 0.130E+02   0.312E+02 -.725E-05 -.121E+02   0.962E+00 -.551E-19 -.888E+00   -.256E-05 0.543E-09 0.200E-04
   0.242E+03 0.436E-05 0.119E+02   -.242E+03 0.813E-05 -.126E+02   -.334E+00 0.118E-18 0.728E+00   0.343E-04 -.482E-09 -.136E-04
   -.242E+03 -.655E-05 -.119E+02   0.242E+03 -.819E-05 0.126E+02   0.334E+00 -.655E-19 -.728E+00   -.343E-04 0.479E-09 0.136E-04
   0.155E+03 -.735E-05 0.632E+02   -.155E+03 -.723E-05 -.643E+02   -.690E+00 -.900E-17 0.104E+01   -.186E-05 0.524E-09 0.110E-03
   -.155E+03 0.367E-05 -.632E+02   0.155E+03 0.712E-05 0.643E+02   0.690E+00 -.886E-17 -.104E+01   0.186E-05 -.508E-09 -.110E-03
 -----------------------------------------------------------------------------------------------
   0.690E-04 -.207E-03 0.934E-04   -.853E-13 0.439E-15 0.284E-13   0.000E+00 -.178E-16 0.444E-15   -.613E-09 0.348E-09 -.700E-08
 
 
 POSITION                                       TOTAL-FORCE (eV/Angst)
 -----------------------------------------------------------------------------------
      0.13670      1.69446      8.21463         1.016634     -0.000000     -0.000266
      9.12277      5.08339      3.38751        -1.016634     -0.000000      0.000266
      4.36803      5.08339      2.14177         0.134405     -0.000000     -0.000593
      4.89143      1.69446      9.46037        -0.134405     -0.000000      0.000593
      1.43529      5.08339     10.63385         0.798259     -0.000000     -0.000607
      7.82418      1.69446      0.96829        -0.798259     -0.000000      0.000607
      3.06944      1.69446      4.55746         0.498781     -0.000000     -0.000374
      6.19002      5.08339      7.04468        -0.498781     -0.000000      0.000374
      1.75027      0.50106      1.63309         0.042368      0.000103     -0.000062
      7.50920      6.27679      9.96905        -0.042368     -0.000103      0.000062
      2.75446      6.28688      7.69970         0.133835     -0.000101      0.000049
      6.50500      0.49097      3.90245        -0.133835      0.000101     -0.000049
      7.50920      3.88999      9.96905        -0.042368      0.000103      0.000062
      1.75027      2.88786      1.63309         0.042368     -0.000103     -0.000062
      6.50500      2.89795      3.90245        -0.133835     -0.000101     -0.000049
      2.75446      3.87990      7.69970         0.133835      0.000101      0.000049
      0.74693      5.08339      7.04277         0.033774     -0.000000      0.000005
      8.51254      1.69446      4.55938        -0.033774     -0.000000     -0.000005
      3.75780      1.69446      0.93852         0.081618     -0.000000     -0.000405
      5.50166      5.08339     10.66362        -0.081618     -0.000000      0.000405
      1.78112      1.69446     11.13922        -0.071845     -0.000000      0.000333
      7.47835      5.08339      0.46293         0.071845     -0.000000     -0.000333
      2.72362      5.08339      5.59988        -0.268362     -0.000000     -0.000386
      6.53585      1.69446      6.00226         0.268362     -0.000000      0.000386
 -----------------------------------------------------------------------------------
    total drift:                                0.000069     -0.000207      0.000093


--------------------------------------------------------------------------------------------------------



  FREE ENERGIE OF THE ION-ELECTRON SYSTEM (eV)
  ---------------------------------------------------
  free  energy   TOTEN  =      -114.48168095 eV

  energy  without entropy=     -114.48168095  energy(sigma->0) =     -114.48168095
 


--------------------------------------------------------------------------------------------------------


    POTLOK:  cpu time    0.0231: real time    0.0231


--------------------------------------------------------------------------------------------------------


 writing wavefunctions
     LOOP+:  cpu time   79.9065: real time   81.3904
    4ORBIT:  cpu time    0.0000: real time    0.0000
 BZINTS: Fermi energy: -0.622367;144.000000 electrons
         Band energy:***********;  BLOECHL correction:  0.000000

 total amount of memory used by VASP MPI-rank0    79355. kBytes
=======================================================================

   base      :      30000. kBytes
   nonlr-proj:       2649. kBytes
   fftplans  :       5898. kBytes
   grid      :       8824. kBytes
   one-center:         93. kBytes
   wavefun   :      31891. kBytes
 
  
  
 General timing and accounting informations for this job:
 ========================================================
  
                  Total CPU time used (sec):       87.793
                            User time (sec):       82.722
                          System time (sec):        5.071
                         Elapsed time (sec):       94.301
  
                   Maximum memory used (kb):      161596.
                   Average memory used (kb):           0.
  
                          Minor page faults:        62263
                          Major page faults:          222
                 Voluntary context switches:        13182
