 vasp.5.4.4.18Apr17-6-g9f103f2a35 (build Nov 21 2017 15:30:27) complex          
  
 executed on             LinuxIFC date 2020.09.14  18:34:44
 running on   64 total cores
 distrk:  each k-point on   32 cores,    2 groups
 distr:  one band on NCORES_PER_BAND=   4 cores,    8 groups


--------------------------------------------------------------------------------------------------------


 INCAR:
 POTCAR:   PAW Ba_sv 17Apr2000                    
 POTCAR:   PAW Si 02Apr1999                       

 ----------------------------------------------------------------------------- 
|                                                                             |
|           W    W    AA    RRRRR   N    N  II  N    N   GGGG   !!!           |
|           W    W   A  A   R    R  NN   N  II  NN   N  G    G  !!!           |
|           W    W  A    A  R    R  N N  N  II  N N  N  G       !!!           |
|           W WW W  AAAAAA  RRRRR   N  N N  II  N  N N  G  GGG   !            |
|           WW  WW  A    A  R   R   N   NN  II  N   NN  G    G                |
|           W    W  A    A  R    R  N    N  II  N    N   GGGG   !!!           |
|                                                                             |
|      You have enabled k-point parallelism (KPAR>1).                         |
|      This developmental code was originally  written by Paul Kent at ORNL,  |
|      and carefully double checked in Vienna.                                |
|      GW as well as linear response parallelism added by Martijn Marsman     |
|      and Georg Kresse.                                                      |
|      Carefully verify results versus KPAR=1.                                |
|      Report problems to Paul Kent and Vienna.                               |
|                                                                             |
 ----------------------------------------------------------------------------- 

 POTCAR:   PAW Ba_sv 17Apr2000                    
   VRHFIN =Ba: s2p6s2                                                           
   LEXCH  = CA                                                                  
   EATOM  =   704.0172 eV,   51.7438 Ry                                         
                                                                                
   TITEL  = PAW Ba_sv 17Apr2000                                                 
   LULTRA =        F    use ultrasoft PP ?                                      
   IUNSCR =        1    unscreen: 0-lin 1-nonlin 2-no                           
   RPACOR =    2.400    partial core radius                                     
   POMASS =  137.327; ZVAL   =   10.000    mass and valenz                      
   RCORE  =    2.800    outmost cutoff radius                                   
   RWIGS  =    3.740; RWIGS  =    1.979    wigner-seitz radius (au A)           
   ENMAX  =  186.981; ENMIN  =  140.236 eV                                      
   RCLOC  =    2.516    cutoff for local pot                                    
   LCOR   =        T    correct aug charges                                     
   LPAW   =        T    paw PP                                                  
   EAUG   =  351.165                                                            
   DEXC   =     .000                                                            
   RMAX   =    3.372    core radius for proj-oper                               
   RAUG   =    1.300    factor for augmentation sphere                          
   RDEP   =    2.976    core radius for depl-charge                             
   QCUT   =   -3.707; QGAM   =    7.414    optimization parameters              
                                                                                
   Description                                                                  
     l     E      TYP  RCUT    TYP  RCUT                                        
     0   .000     23  2.800                                                     
     0   .000     23  2.800                                                     
     1   .000     23  2.700                                                     
     1  2.000     23  2.700                                                     
     2   .000     23  2.700                                                     
     2   .000     23  2.700                                                     
  local pseudopotential read in
  partial core-charges read in
  atomic valenz-charges read in
  non local Contribution for L=           0  read in
    real space projection operators read in
  non local Contribution for L=           0  read in
    real space projection operators read in
  non local Contribution for L=           1  read in
    real space projection operators read in
  non local Contribution for L=           1  read in
    real space projection operators read in
  non local Contribution for L=           2  read in
    real space projection operators read in
  non local Contribution for L=           2  read in
    real space projection operators read in
    PAW grid and wavefunctions read in
 
   number of l-projection  operators is LMAX  =           6
   number of lm-projection operators is LMMAX =          18
 
 POTCAR:   PAW Si 02Apr1999                       
   VRHFIN =Si: s2p2                                                             
   LEXCH  = CA                                                                  
   EATOM  =   103.4338 eV,    7.6022 Ry                                         
                                                                                
   TITEL  = PAW Si 02Apr1999                                                    
   LULTRA =        F    use ultrasoft PP ?                                      
   IUNSCR =        1    unscreen: 0-lin 1-nonlin 2-no                           
   RPACOR =    1.500    partial core radius                                     
   POMASS =   28.085; ZVAL   =    4.000    mass and valenz                      
   RCORE  =    1.900    outmost cutoff radius                                   
   RWIGS  =    2.480; RWIGS  =    1.312    wigner-seitz radius (au A)           
   ENMAX  =  245.704; ENMIN  =  184.278 eV                                      
   ICORE  =        2    local potential                                         
   LCOR   =        T    correct aug charges                                     
   LPAW   =        T    paw PP                                                  
   EAUG   =  322.069                                                            
   DEXC   =    -.006                                                            
   RMAX   =    2.941    core radius for proj-oper                               
   RAUG   =    1.300    factor for augmentation sphere                          
   RDEP   =    1.993    core radius for depl-charge                             
   QCUT   =   -4.250; QGAM   =    8.499    optimization parameters              
                                                                                
   Description                                                                  
     l     E      TYP  RCUT    TYP  RCUT                                        
     0   .000     23  1.900                                                     
     0   .000     23  1.900                                                     
     1   .000     23  1.900                                                     
     1   .000     23  1.900                                                     
     2   .000      7  1.900                                                     
  local pseudopotential read in
  partial core-charges read in
  atomic valenz-charges read in
  non local Contribution for L=           0  read in
    real space projection operators read in
  non local Contribution for L=           0  read in
    real space projection operators read in
  non local Contribution for L=           1  read in
    real space projection operators read in
  non local Contribution for L=           1  read in
    real space projection operators read in
    PAW grid and wavefunctions read in
 
   number of l-projection  operators is LMAX  =           4
   number of lm-projection operators is LMMAX =           8
 
 Optimization of the real space projectors (new method)

 maximal supplied QI-value         = 13.42
 optimisation between [QCUT,QGAM] = [ 11.40, 22.81] = [ 36.42,145.68] Ry 
 Optimized for a Real-space Cutoff    1.56 Angstroem

   l    n(q)    QCUT    max X(q) W(low)/X(q) W(high)/X(q)  e(spline) 
   0     11    11.404     7.180    0.12E-04    0.23E-04    0.91E-07
   0     11    11.404    14.700    0.33E-04    0.82E-04    0.45E-06
   1     10    11.404     3.780    0.19E-04    0.22E-04    0.42E-07
   1     10    11.404     4.341    0.22E-03    0.98E-04    0.21E-06
   2     10    11.404     5.806    0.81E-04    0.60E-05    0.26E-06
   2     10    11.404    65.524    0.41E-03    0.30E-04    0.12E-05
 Optimization of the real space projectors (new method)

 maximal supplied QI-value         = 19.84
 optimisation between [QCUT,QGAM] = [ 11.31, 22.82] = [ 35.82,145.81] Ry 
 Optimized for a Real-space Cutoff    1.16 Angstroem

   l    n(q)    QCUT    max X(q) W(low)/X(q) W(high)/X(q)  e(spline) 
   0      8    11.310     8.540    0.14E-04    0.11E-04    0.43E-08
   0      8    11.310   104.916    0.28E-03    0.31E-03    0.39E-07
   1      7    11.310     5.806    0.79E-05    0.47E-04    0.19E-07
   1      7    11.310    72.249    0.28E-03    0.28E-03    0.75E-07
 PAW Ba_sv 17Apr2000                    :
 energy of atom  1       EATOM= -704.0172
 kinetic energy error for atom=    0.0005 (will be added to EATOM!!)
 PAW Si 02Apr1999                       :
 energy of atom  2       EATOM= -103.4338
 kinetic energy error for atom=    0.0006 (will be added to EATOM!!)
 
 
 POSCAR: ba8 si16                                
  positions in direct lattice
  velocities in cartesian coordinates
 exchange correlation table for  LEXCH =        2
   RHO(1)=    0.500       N(1)  =     2000
   RHO(2)=  100.500       N(2)  =     4000
 


--------------------------------------------------------------------------------------------------------


 ion  position               nearest neighbor table
   1  0.006  0.250  0.708-  21 3.36  16 3.45  11 3.45  17 3.64  17 3.64   5 4.36   5 4.36   7 4.69

   2  0.378  0.750  0.292-  22 3.36  12 3.45  15 3.45  18 3.64  18 3.64   6 4.36   6 4.36   8 4.69

   3  0.182  0.750  0.185-  20 3.28   9 3.45  14 3.45  22 3.50  12 3.50  15 3.50  19 3.65  19 3.65
                            23 3.82   5 4.27   7 4.36   7 4.36
   4  0.202  0.250  0.815-  19 3.28  13 3.45  10 3.45  21 3.50  16 3.50  11 3.50  20 3.65  20 3.65
                            24 3.82   6 4.27   8 4.36   8 4.36
   5  0.060  0.750  0.917-   9 3.42  14 3.42  11 3.44  16 3.44  21 3.44  21 3.44  17 3.66   3 4.27
                             1 4.36   1 4.36
   6  0.324  0.250  0.083-  13 3.42  10 3.42  15 3.44  12 3.44  22 3.44  22 3.44  18 3.66   4 4.27
                             2 4.36   2 4.36
   7  0.128  0.250  0.393-  14 3.42   9 3.42  23 3.56  23 3.56  15 3.65  12 3.65  19 3.68  24 3.71
                            16 3.83  11 3.83   3 4.36   3 4.36   1 4.69
   8  0.256  0.750  0.607-  10 3.42  13 3.42  24 3.56  24 3.56  11 3.65  16 3.65  20 3.68  23 3.71
                            12 3.83  15 3.83   4 4.36   4 4.36   2 4.69
   9  0.073  0.074  0.141-  14 2.39  21 2.41  19 2.44   5 3.42   7 3.42   3 3.45
  10  0.311  0.926  0.859-  13 2.39  22 2.41  20 2.44   6 3.42   8 3.42   4 3.45
  11  0.115  0.927  0.663-  16 2.41  23 2.42  17 2.43   5 3.44   1 3.45   4 3.50   8 3.65   7 3.83

  12  0.269  0.073  0.337-  15 2.41  24 2.42  18 2.43   6 3.44   2 3.45   3 3.50   7 3.65   8 3.83

  13  0.311  0.574  0.859-  10 2.39  22 2.41  20 2.44   6 3.42   8 3.42   4 3.45
  14  0.073  0.426  0.141-   9 2.39  21 2.41  19 2.44   5 3.42   7 3.42   3 3.45
  15  0.269  0.427  0.337-  12 2.41  24 2.42  18 2.43   6 3.44   2 3.45   3 3.50   7 3.65   8 3.83

  16  0.115  0.573  0.663-  11 2.41  23 2.42  17 2.43   5 3.44   1 3.45   4 3.50   8 3.65   7 3.83

  17  0.031  0.750  0.607-  11 2.43  16 2.43  23 2.45   1 3.64   1 3.64   5 3.66
  18  0.352  0.250  0.393-  15 2.43  12 2.43  24 2.45   2 3.64   2 3.64   6 3.66
  19  0.157  0.250  0.082-  21 2.42  14 2.44   9 2.44   4 3.28   3 3.65   3 3.65   7 3.68
  20  0.227  0.750  0.918-  22 2.42  10 2.44  13 2.44   3 3.28   4 3.65   4 3.65   8 3.68
  21  0.074  0.250  0.961-  14 2.41   9 2.41  19 2.42   1 3.36   5 3.44   5 3.44   4 3.50
  22  0.309  0.750  0.039-  10 2.41  13 2.41  20 2.42   2 3.36   6 3.44   6 3.44   3 3.50
  23  0.113  0.750  0.482-  11 2.42  16 2.42  17 2.45   7 3.56   7 3.56   8 3.71   3 3.82
  24  0.270  0.250  0.518-  15 2.42  12 2.42  18 2.45   8 3.56   8 3.56   7 3.71   4 3.82
 
  LATTYP: Found a simple orthorhombic cell.
 ALAT       =     6.7778496742
 B/A-ratio  =     1.7117734747
 C/A-ratio  =     3.5423429602
  
  Lattice vectors:
  
 A1 = (   0.0000000000,   6.7778496742,   0.0000000000)
 A2 = (   0.0000000000,   0.0000000000, -11.6021432877)
 A3 = ( -24.0094680786,   0.0000000000,   0.0000000000)


Analysis of symmetry for initial positions (statically):
=====================================================================
 Subroutine PRICEL returns:
 Original cell was already a primitive cell.
 

 Routine SETGRP: Setting up the symmetry group for a 
 simple orthorhombic supercell.


 Subroutine GETGRP returns: Found  4 space group operations
 (whereof  1 operations were pure point group operations)
 out of a pool of  8 trial point group operations.


The static configuration has the point symmetry C_1 .
 The point group associated with its full space group is C_2h.


Analysis of symmetry for dynamics (positions and initial velocities):
=====================================================================
 Subroutine PRICEL returns:
 Original cell was already a primitive cell.
 

 Routine SETGRP: Setting up the symmetry group for a 
 simple orthorhombic supercell.


 Subroutine GETGRP returns: Found  4 space group operations
 (whereof  1 operations were pure point group operations)
 out of a pool of  8 trial point group operations.


The dynamic configuration has the point symmetry C_1 .
 The point group associated with its full space group is C_2h.


Analysis of constrained symmetry for selective dynamics:
=====================================================================
 Subroutine PRICEL returns:
 Original cell was already a primitive cell.
 

 Routine SETGRP: Setting up the symmetry group for a 
 simple orthorhombic supercell.


 Subroutine GETGRP returns: Found  4 space group operations
 (whereof  1 operations were pure point group operations)
 out of a pool of  8 trial point group operations.


The constrained configuration has the point symmetry C_1 .
 The point group associated with its full space group is C_2h.


 Subroutine INISYM returns: Found  4 space group operations
 (whereof  1 operations are pure point group operations),
 and found     1 'primitive' translations

 
 
 KPOINTS: k-density: 8.0                          

Automatic generation of k-mesh.
Space group operators:
 irot       det(A)        alpha          n_x          n_y          n_z        tau_x        tau_y        tau_z
    1     1.000000     0.000000     1.000000     0.000000     0.000000     0.000000     0.000000     0.000000
    2    -1.000000     0.000000     1.000000     0.000000     0.000000    -0.616423     0.000000     0.000000
    3     1.000000   180.000000     0.000000     1.000000     0.000000    -0.616423     0.500000     0.000000
    4    -1.000000   180.000000     0.000000     1.000000     0.000000     0.000000     0.500000     0.000000
 
 Subroutine IBZKPT returns following result:
 ===========================================
 
 Found     15 irreducible k-points:
 
 Following reciprocal coordinates:
            Coordinates               Weight
  0.000000  0.000000  0.000000      1.000000
  0.000000  0.125000  0.000000      2.000000
  0.000000  0.250000  0.000000      2.000000
  0.000000  0.375000  0.000000      2.000000
  0.000000  0.500000  0.000000      1.000000
  0.000000  0.000000  0.200000      2.000000
  0.000000  0.125000  0.200000      4.000000
  0.000000  0.250000  0.200000      4.000000
  0.000000  0.375000  0.200000      4.000000
  0.000000  0.500000  0.200000      2.000000
  0.000000  0.000000  0.400000      2.000000
  0.000000  0.125000  0.400000      4.000000
  0.000000  0.250000  0.400000      4.000000
  0.000000  0.375000  0.400000      4.000000
  0.000000  0.500000  0.400000      2.000000
 
 Following cartesian coordinates:
            Coordinates               Weight
  0.000000  0.000000  0.000000      1.000000
  0.000000  0.018442  0.000000      2.000000
  0.000000  0.036885  0.000000      2.000000
  0.000000  0.055327  0.000000      2.000000
  0.000000  0.073770  0.000000      1.000000
  0.000000  0.000000  0.017238      2.000000
  0.000000  0.018442  0.017238      4.000000
  0.000000  0.036885  0.017238      4.000000
  0.000000  0.055327  0.017238      4.000000
  0.000000  0.073770  0.017238      2.000000
  0.000000  0.000000  0.034476      2.000000
  0.000000  0.018442  0.034476      4.000000
  0.000000  0.036885  0.034476      4.000000
  0.000000  0.055327  0.034476      4.000000
  0.000000  0.073770  0.034476      2.000000
 
 TETIRR: Found    108 inequivalent tetrahedra from      240


--------------------------------------------------------------------------------------------------------




 Dimension of arrays:
   k-points           NKPTS =     15   k-points in BZ     NKDIM =     15   number of bands    NBANDS=     88
   number of dos      NEDOS =    301   number of ions     NIONS =     24
   non local maximal  LDIM  =      6   non local SUM 2l+1 LMDIM =     18
   total plane-waves  NPLWV = 358400
   max r-space proj   IRMAX =   3093   max aug-charges    IRDMAX=  12081
   dimension x,y,z NGX =   140 NGY =   40 NGZ =   64
   dimension x,y,z NGXF=   280 NGYF=   80 NGZF=  128
   support grid    NGXF=   280 NGYF=   80 NGZF=  128
   ions per type =               8  16
   NGX,Y,Z   is equivalent  to a cutoff of   9.69,  9.81,  9.17 a.u.
   NGXF,Y,Z  is equivalent  to a cutoff of  19.39, 19.62, 18.34 a.u.

 SYSTEM =  unknown system                          
 POSCAR =  ba8 si16                                

 Startparameter for this run:
   NWRITE =      2    write-flag & timer
   PREC   = normal    normal or accurate (medium, high low for compatibility)
   ISTART =      0    job   : 0-new  1-cont  2-samecut
   ICHARG =      2    charge: 1-file 2-atom 10-const
   ISPIN  =      1    spin polarized calculation?
   LNONCOLLINEAR =      F non collinear calculations
   LSORBIT =      F    spin-orbit coupling
   INIWAV =      1    electr: 0-lowe 1-rand  2-diag
   LASPH  =      F    aspherical Exc in radial PAW
   METAGGA=      F    non-selfconsistent MetaGGA calc.

 Electronic Relaxation 1
   ENCUT  =  500.0 eV  36.75 Ry    6.06 a.u.  43.77 12.36 21.15*2*pi/ulx,y,z
   ENINI  =  500.0     initial cutoff
   ENAUG  =  351.2 eV  augmentation charge cutoff
   NELM   =    100;   NELMIN=  2; NELMDL= -5     # of ELM steps 
   EDIFF  = 0.1E-05   stopping-criterion for ELM
   LREAL  =      T    real-space projection
   NLSPLINE    = F    spline interpolate recip. space projectors
   LCOMPAT=      F    compatible to vasp.4.4
   GGA_COMPAT  = T    GGA compatible to vasp.4.4-vasp.4.6
   LMAXPAW     = -100 max onsite density
   LMAXMIX     =    2 max onsite mixed and CHGCAR
   VOSKOWN=      0    Vosko Wilk Nusair interpolation
   ROPT   =   -0.00050  -0.00050
 Ionic relaxation
   EDIFFG = -.1E-02   stopping-criterion for IOM
   NSW    =      0    number of steps for IOM
   NBLOCK =      1;   KBLOCK =      1    inner block; outer block 
   IBRION =     -1    ionic relax: 0-MD 1-quasi-New 2-CG
   NFREE  =      0    steps in history (QN), initial steepest desc. (CG)
   ISIF   =      2    stress and relaxation
   IWAVPR =     10    prediction:  0-non 1-charg 2-wave 3-comb
   ISYM   =      2    0-nonsym 1-usesym 2-fastsym
   LCORR  =      T    Harris-Foulkes like correction to forces

   POTIM  = 0.3000    time-step for ionic-motion
   TEIN   =    0.0    initial temperature
   TEBEG  =    0.0;   TEEND  =   0.0 temperature during run
   SMASS  =  -3.00    Nose mass-parameter (am)
   estimated Nose-frequenzy (Omega)   =  0.10E-29 period in steps =****** mass=  -0.132E-25a.u.
   SCALEE = 1.0000    scale energy and forces
   NPACO  =    256;   APACO  = 16.0  distance and # of slots for P.C.
   PSTRESS=    0.0 pullay stress

  Mass of Ions in am
   POMASS = 137.33 28.09
  Ionic Valenz
   ZVAL   =  10.00  4.00
  Atomic Wigner-Seitz radii
   RWIGS  =  -1.00 -1.00
  virtual crystal weights 
   VCA    =   1.00  1.00
   NELECT =     144.0000    total number of electrons
   NUPDOWN=      -1.0000    fix difference up-down

 DOS related values:
   EMIN   =  10.00;   EMAX   =-10.00  energy-range for DOS
   EFERMI =   0.00
   ISMEAR =    -5;   SIGMA  =   0.01  broadening in eV -4-tet -1-fermi 0-gaus

 Electronic relaxation 2 (details)
   IALGO  =     38    algorithm
   LDIAG  =      T    sub-space diagonalisation (order eigenvalues)
   LSUBROT=      F    optimize rotation matrix (better conditioning)
   TURBO    =      0    0=normal 1=particle mesh
   IRESTART =      0    0=no restart 2=restart with 2 vectors
   NREBOOT  =      0    no. of reboots
   NMIN     =      0    reboot dimension
   EREF     =   0.00    reference energy to select bands
   IMIX   =      4    mixing-type and parameters
     AMIX     =   0.40;   BMIX     =  1.00
     AMIX_MAG =   1.60;   BMIX_MAG =  1.00
     AMIN     =   0.10
     WC   =   100.;   INIMIX=   1;  MIXPRE=   1;  MAXMIX= -45

 Intra band minimization:
   WEIMIN = 0.0000     energy-eigenvalue tresh-hold
   EBREAK =  0.28E-08  absolut break condition
   DEPER  =   0.30     relativ break condition  

   TIME   =   0.40     timestep for ELM

  volume/ion in A,a.u.               =      78.67       530.88
  Fermi-wavevector in a.u.,A,eV,Ry     =   0.694264  1.311969  6.558046  0.482003
  Thomas-Fermi vector in A             =   1.776709
 
 Write flags
   LWAVE        =      T    write WAVECAR
   LDOWNSAMPLE  =      F    k-point downsampling of WAVECAR
   LCHARG       =      T    write CHGCAR
   LVTOT        =      F    write LOCPOT, total local potential
   LVHAR        =      F    write LOCPOT, Hartree potential only
   LELF         =      F    write electronic localiz. function (ELF)
   LORBIT       =      0    0 simple, 1 ext, 2 COOP (PROOUT), +10 PAW based schemes


 Dipole corrections
   LMONO  =      F    monopole corrections only (constant potential shift)
   LDIPOL =      F    correct potential (dipole corrections)
   IDIPOL =      0    1-x, 2-y, 3-z, 4-all directions 
   EPSILON=  1.0000000 bulk dielectric constant

 Exchange correlation treatment:
   GGA     =    --    GGA type
   LEXCH   =     2    internal setting for exchange type
   VOSKOWN=      0    Vosko Wilk Nusair interpolation
   LHFCALC =     F    Hartree Fock is set to
   LHFONE  =     F    Hartree Fock one center treatment
   AEXX    =    0.0000 exact exchange contribution

 Linear response parameters
   LEPSILON=     F    determine dielectric tensor
   LRPA    =     F    only Hartree local field effects (RPA)
   LNABLA  =     F    use nabla operator in PAW spheres
   LVEL    =     F    velocity operator in full k-point grid
   LINTERFAST=   F  fast interpolation
   KINTER  =     0    interpolate to denser k-point grid
   CSHIFT  =0.1000    complex shift for real part using Kramers Kronig
   OMEGAMAX=  -1.0    maximum frequency
   DEG_THRESHOLD= 0.2000000E-02 threshold for treating states as degnerate
   RTIME   =   -0.100 relaxation time in fs
  (WPLASMAI=    0.000 imaginary part of plasma frequency in eV, 0.658/RTIME)
   DFIELD  = 0.0000000 0.0000000 0.0000000 field for delta impulse in time
 
 Orbital magnetization related:
   ORBITALMAG=     F  switch on orbital magnetization
   LCHIMAG   =     F  perturbation theory with respect to B field
   DQ        =  0.001000  dq finite difference perturbation B field
   LLRAUG    =     F  two centre corrections for induced B field



--------------------------------------------------------------------------------------------------------


 Static calculation
 charge density and potential will be updated during run
 non-spin polarized calculation
 Variant of blocked Davidson
 Davidson routine will perform the subspace rotation
 perform sub-space diagonalisation
    after iterative eigenvector-optimisation
 modified Broyden-mixing scheme, WC =      100.0
 initial mixing is a Kerker type mixing with AMIX =  0.4000 and BMIX =      1.0000
 Hartree-type preconditioning will be used
 using additional bands           16
 real space projection scheme for non local part
 use partial core corrections
 calculate Harris-corrections to forces 
   (improved forces if not selfconsistent)
 use of overlap-Matrix (Vanderbilt PP)
 Fermi weights with tetrahedron method with Bloechl corrections


--------------------------------------------------------------------------------------------------------


  energy-cutoff  :      500.00
  volume of cell :     1888.05
      direct lattice vectors                 reciprocal lattice vectors
    24.009468079  0.000000000  0.000000000     0.041650236  0.000000000  0.000000000
     0.000000000  6.777849674  0.000000000     0.000000000  0.147539419  0.000000000
     0.000000000  0.000000000 11.602143288     0.000000000  0.000000000  0.086190971

  length of vectors
    24.009468079  6.777849674 11.602143288     0.041650236  0.147539419  0.086190971


 
 k-points in units of 2pi/SCALE and weight: k-density: 8.0                          
   0.00000000  0.00000000  0.00000000       0.025
   0.00000000  0.01844243  0.00000000       0.050
   0.00000000  0.03688485  0.00000000       0.050
   0.00000000  0.05532728  0.00000000       0.050
   0.00000000  0.07376971  0.00000000       0.025
   0.00000000  0.00000000  0.01723819       0.050
   0.00000000  0.01844243  0.01723819       0.100
   0.00000000  0.03688485  0.01723819       0.100
   0.00000000  0.05532728  0.01723819       0.100
   0.00000000  0.07376971  0.01723819       0.050
   0.00000000  0.00000000  0.03447639       0.050
   0.00000000  0.01844243  0.03447639       0.100
   0.00000000  0.03688485  0.03447639       0.100
   0.00000000  0.05532728  0.03447639       0.100
   0.00000000  0.07376971  0.03447639       0.050
 
 k-points in reciprocal lattice and weights: k-density: 8.0                          
   0.00000000  0.00000000  0.00000000       0.025
   0.00000000  0.12500000  0.00000000       0.050
   0.00000000  0.25000000  0.00000000       0.050
   0.00000000  0.37500000  0.00000000       0.050
   0.00000000  0.50000000  0.00000000       0.025
   0.00000000  0.00000000  0.20000000       0.050
   0.00000000  0.12500000  0.20000000       0.100
   0.00000000  0.25000000  0.20000000       0.100
   0.00000000  0.37500000  0.20000000       0.100
   0.00000000  0.50000000  0.20000000       0.050
   0.00000000  0.00000000  0.40000000       0.050
   0.00000000  0.12500000  0.40000000       0.100
   0.00000000  0.25000000  0.40000000       0.100
   0.00000000  0.37500000  0.40000000       0.100
   0.00000000  0.50000000  0.40000000       0.050
 
 position of ions in fractional coordinates (direct lattice) 
   0.00569361  0.25000000  0.70833441
   0.37788290  0.75000002  0.29166559
   0.18192962  0.75000002  0.18494383
   0.20164689  0.25000000  0.81505615
   0.05978014  0.75000002  0.91696621
   0.32379637  0.25000000  0.08303377
   0.12784309  0.25000000  0.39337284
   0.25573342  0.75000002  0.60662720
   0.07289913  0.07391133  0.14123272
   0.31067738  0.92608866  0.85876726
   0.11472410  0.92748518  0.66335963
   0.26885241  0.07251481  0.33664037
   0.31067738  0.57391134  0.85876726
   0.07289913  0.42608866  0.14123272
   0.26885241  0.42748518  0.33664037
   0.11472410  0.57251482  0.66335963
   0.03110981  0.75000002  0.60670843
   0.35246670  0.25000000  0.39329157
   0.15651343  0.25000000  0.08166390
   0.22706310  0.75000002  0.91833608
   0.07418398  0.25000000  0.96064157
   0.30939253  0.75000002  0.03935844
   0.11343925  0.75000002  0.48244143
   0.27013726  0.25000000  0.51755849
 
 position of ions in cartesian coordinates  (Angst):
   0.13670066  1.69446242  8.21819729
   9.07276745  5.08338737  3.38394600
   4.36803341  5.08338737  2.14574484
   4.84143467  1.69446242  9.45639821
   1.43528938  5.08338737 10.63877331
   7.77417870  1.69446242  0.96336974
   3.06944466  1.69446242  4.56396804
   6.14002342  5.08338737  7.03817573
   1.75026941  0.50095987  1.63860221
   7.45919867  6.27688974  9.96354084
   2.75446463  6.28635514  7.69639344
   6.45500345  0.49149448  3.90574984
   7.45919867  3.88988477  9.96354084
   1.75026941  2.88796490  1.63860221
   6.45500345  2.89743030  3.90574984
   2.75446463  3.88041937  7.69639344
   0.74692994  5.08338737  7.03911816
   8.46253796  1.69446242  4.56302513
   3.75780416  1.69446242  0.94747631
   5.45166416  5.08338737 10.65466674
   1.78111780  1.69446242 11.14550115
   7.42835016  5.08338737  0.45664231
   2.72361612  5.08338737  5.59735460
   6.48585196  1.69446242  6.00478773
 


--------------------------------------------------------------------------------------------------------


 k-point  1 :   0.0000 0.0000 0.0000  plane waves:   47989
 k-point  2 :   0.0000 0.1250 0.0000  plane waves:   47929
 k-point  3 :   0.0000 0.2500 0.0000  plane waves:   47901
 k-point  4 :   0.0000 0.3750 0.0000  plane waves:   47910
 k-point  5 :   0.0000 0.5000 0.0000  plane waves:   47868
 k-point  6 :   0.0000 0.0000 0.2000  plane waves:   48006
 k-point  7 :   0.0000 0.1250 0.2000  plane waves:   47967
 k-point  8 :   0.0000 0.2500 0.2000  plane waves:   47907
 k-point  9 :   0.0000 0.3750 0.2000  plane waves:   47884
 k-point 10 :   0.0000 0.5000 0.2000  plane waves:   47884
 k-point 11 :   0.0000 0.0000 0.4000  plane waves:   47922
 k-point 12 :   0.0000 0.1250 0.4000  plane waves:   47954
 k-point 13 :   0.0000 0.2500 0.4000  plane waves:   47967
 k-point 14 :   0.0000 0.3750 0.4000  plane waves:   47928
 k-point 15 :   0.0000 0.5000 0.4000  plane waves:   47890

 maximum and minimum number of plane-waves per node :     12077    11868

 maximum number of plane-waves:     48006
 maximum index in each direction: 
   IXMAX=   43   IYMAX=   12   IZMAX=   21
   IXMIN=  -43   IYMIN=  -12   IZMIN=  -21


 real space projection operators:
  total allocation   :       4534.72 KBytes
  max/ min on nodes  :       1137.59       1128.88


 parallel 3D FFT for wavefunctions:
    minimum data exchange during FFTs selected (reduces bandwidth)
 parallel 3D FFT for charge:
    minimum data exchange during FFTs selected (reduces bandwidth)


 total amount of memory used by VASP MPI-rank0    79352. kBytes
=======================================================================

   base      :      30000. kBytes
   nonlr-proj:       2646. kBytes
   fftplans  :       5898. kBytes
   grid      :       8824. kBytes
   one-center:         93. kBytes
   wavefun   :      31891. kBytes
 
     INWAV:  cpu time    0.0001: real time    0.0002
 Broyden mixing: mesh for mixing (old mesh)
   NGX = 87   NGY = 25   NGZ = 43
  (NGX  =280   NGY  = 80   NGZ  =128)
  gives a total of  93525 points

 initial charge density was supplied:
 charge density of overlapping atoms calculated
 number of electron     144.0000000 magnetization 
 keeping initial charge density in first step


--------------------------------------------------------------------------------------------------------


 Maximum index for non-local projection operator          749
 Maximum index for augmentation-charges          601 (set IRDMAX)


--------------------------------------------------------------------------------------------------------


 First call to EWALD:  gamma=   0.143
 Maximum number of real-space cells 2x 5x 3
 Maximum number of reciprocal cells 5x 2x 3

    FEWALD:  cpu time    0.0023: real time    0.0023


--------------------------------------- Iteration      1(   1)  ---------------------------------------


    POTLOK:  cpu time    0.0248: real time    0.1084
    SETDIJ:  cpu time    0.0028: real time    0.0030
     EDDAV:  cpu time    2.6360: real time    2.6487
 BZINTS: Fermi energy:  6.968879;144.000000 electrons
         Band energy:-492.590126;  BLOECHL correction: -0.026653
       DOS:  cpu time    0.0135: real time    0.0136
    --------------------------------------------
      LOOP:  cpu time    2.6772: real time    2.7737

 eigenvalue-minimisations  :  2768
 total energy-change (2. order) : 0.1169378E+04  (-0.4799176E+04)
 number of electron     144.0000000 magnetization 
 augmentation part      144.0000000 magnetization 

 Free energy of the ion-electron system (eV)
  ---------------------------------------------------
  alpha Z        PSCENC =       166.34077906
  Ewald energy   TEWEN  =     12013.80114379
  -Hartree energ DENC   =    -18140.05128775
  -exchange      EXHF   =         0.00000000
  -V(xc)+E(xc)   XCENC  =        46.56377746
  PAW double counting   =      3711.26622449    -3423.01674647
  entropy T*S    EENTRO =         0.00000000
  eigenvalues    EBANDS =      -492.59012590
  atomic energy  EATOM  =      7287.06411261
  Solvation  Ediel_sol  =         0.00000000
  ---------------------------------------------------
  free energy    TOTEN  =      1169.37787729 eV

  energy without entropy =     1169.37787729  energy(sigma->0) =     1169.37787729


--------------------------------------------------------------------------------------------------------




--------------------------------------- Iteration      1(   2)  ---------------------------------------


     EDDAV:  cpu time    3.2540: real time    3.2735
 BZINTS: Fermi energy: -1.929288;144.000000 electrons
         Band energy:***********;  BLOECHL correction:  0.000000
       DOS:  cpu time    0.0034: real time    0.0034
    --------------------------------------------
      LOOP:  cpu time    3.2574: real time    3.2769

 eigenvalue-minimisations  :  3752
 total energy-change (2. order) :-0.1120360E+04  (-0.1089813E+04)
 number of electron     144.0000000 magnetization 
 augmentation part      144.0000000 magnetization 

 Free energy of the ion-electron system (eV)
  ---------------------------------------------------
  alpha Z        PSCENC =       166.34077906
  Ewald energy   TEWEN  =     12013.80114379
  -Hartree energ DENC   =    -18140.05128775
  -exchange      EXHF   =         0.00000000
  -V(xc)+E(xc)   XCENC  =        46.56377746
  PAW double counting   =      3711.26622449    -3423.01674647
  entropy T*S    EENTRO =         0.00000000
  eigenvalues    EBANDS =     -1612.94974826
  atomic energy  EATOM  =      7287.06411261
  Solvation  Ediel_sol  =         0.00000000
  ---------------------------------------------------
  free energy    TOTEN  =        49.01825493 eV

  energy without entropy =       49.01825493  energy(sigma->0) =       49.01825493


--------------------------------------------------------------------------------------------------------




--------------------------------------- Iteration      1(   3)  ---------------------------------------


     EDDAV:  cpu time    3.0524: real time    3.0705
 BZINTS: Fermi energy: -3.426144;144.000000 electrons
         Band energy:***********;  BLOECHL correction:  0.000000
       DOS:  cpu time    0.0022: real time    0.0022
    --------------------------------------------
      LOOP:  cpu time    3.0546: real time    3.0727

 eigenvalue-minimisations  :  3240
 total energy-change (2. order) :-0.1679244E+03  (-0.1671774E+03)
 number of electron     144.0000000 magnetization 
 augmentation part      144.0000000 magnetization 

 Free energy of the ion-electron system (eV)
  ---------------------------------------------------
  alpha Z        PSCENC =       166.34077906
  Ewald energy   TEWEN  =     12013.80114379
  -Hartree energ DENC   =    -18140.05128775
  -exchange      EXHF   =         0.00000000
  -V(xc)+E(xc)   XCENC  =        46.56377746
  PAW double counting   =      3711.26622449    -3423.01674647
  entropy T*S    EENTRO =         0.00000000
  eigenvalues    EBANDS =     -1780.87414474
  atomic energy  EATOM  =      7287.06411261
  Solvation  Ediel_sol  =         0.00000000
  ---------------------------------------------------
  free energy    TOTEN  =      -118.90614155 eV

  energy without entropy =     -118.90614155  energy(sigma->0) =     -118.90614155


--------------------------------------------------------------------------------------------------------




--------------------------------------- Iteration      1(   4)  ---------------------------------------


     EDDAV:  cpu time    3.3080: real time    3.3269
 BZINTS: Fermi energy: -3.493945;144.000000 electrons
         Band energy:***********;  BLOECHL correction:  0.000000
       DOS:  cpu time    0.0025: real time    0.0025
    --------------------------------------------
      LOOP:  cpu time    3.3105: real time    3.3295

 eigenvalue-minimisations  :  3808
 total energy-change (2. order) :-0.6216444E+01  (-0.6198505E+01)
 number of electron     144.0000000 magnetization 
 augmentation part      144.0000000 magnetization 

 Free energy of the ion-electron system (eV)
  ---------------------------------------------------
  alpha Z        PSCENC =       166.34077906
  Ewald energy   TEWEN  =     12013.80114379
  -Hartree energ DENC   =    -18140.05128775
  -exchange      EXHF   =         0.00000000
  -V(xc)+E(xc)   XCENC  =        46.56377746
  PAW double counting   =      3711.26622449    -3423.01674647
  entropy T*S    EENTRO =         0.00000000
  eigenvalues    EBANDS =     -1787.09058831
  atomic energy  EATOM  =      7287.06411261
  Solvation  Ediel_sol  =         0.00000000
  ---------------------------------------------------
  free energy    TOTEN  =      -125.12258511 eV

  energy without entropy =     -125.12258511  energy(sigma->0) =     -125.12258511


--------------------------------------------------------------------------------------------------------




--------------------------------------- Iteration      1(   5)  ---------------------------------------


     EDDAV:  cpu time    3.5445: real time    3.5639
 BZINTS: Fermi energy: -3.509557;144.000000 electrons
         Band energy:***********;  BLOECHL correction:  0.000000
       DOS:  cpu time    0.0021: real time    0.0021
    CHARGE:  cpu time    0.1897: real time    0.1902
    MIXING:  cpu time    0.0068: real time    0.0069
    --------------------------------------------
      LOOP:  cpu time    3.7430: real time    3.7631

 eigenvalue-minimisations  :  4192
 total energy-change (2. order) :-0.3237015E+00  (-0.3236038E+00)
 number of electron     144.0000010 magnetization 
 augmentation part      -16.8666114 magnetization 

 Broyden mixing:
  rms(total) = 0.95145E+00    rms(broyden)= 0.95145E+00
  rms(prec ) = 0.12309E+01
  weight for this iteration     100.00

 Free energy of the ion-electron system (eV)
  ---------------------------------------------------
  alpha Z        PSCENC =       166.34077906
  Ewald energy   TEWEN  =     12013.80114379
  -Hartree energ DENC   =    -18140.05128775
  -exchange      EXHF   =         0.00000000
  -V(xc)+E(xc)   XCENC  =        46.56377746
  PAW double counting   =      3711.26622449    -3423.01674647
  entropy T*S    EENTRO =         0.00000000
  eigenvalues    EBANDS =     -1787.41428980
  atomic energy  EATOM  =      7287.06411261
  Solvation  Ediel_sol  =         0.00000000
  ---------------------------------------------------
  free energy    TOTEN  =      -125.44628660 eV

  energy without entropy =     -125.44628660  energy(sigma->0) =     -125.44628660


--------------------------------------------------------------------------------------------------------




--------------------------------------- Iteration      1(   6)  ---------------------------------------


    POTLOK:  cpu time    0.0214: real time    0.0321
    SETDIJ:  cpu time    0.0049: real time    0.0049
     EDDAV:  cpu time    2.9332: real time    2.9401
 BZINTS: Fermi energy: -2.341137;144.000000 electrons
         Band energy:***********;  BLOECHL correction:  0.000000
       DOS:  cpu time    0.0027: real time    0.0027
    CHARGE:  cpu time    0.1892: real time    0.1897
    MIXING:  cpu time    0.0083: real time    0.0083
    --------------------------------------------
      LOOP:  cpu time    3.1596: real time    3.1778

 eigenvalue-minimisations  :  3000
 total energy-change (2. order) : 0.8896481E+01  (-0.2268808E+01)
 number of electron     144.0000009 magnetization 
 augmentation part      -16.7434993 magnetization 

 Broyden mixing:
  rms(total) = 0.47208E+00    rms(broyden)= 0.47208E+00
  rms(prec ) = 0.58811E+00
  weight for this iteration     100.00

 eigenvalues of (default mixing * dielectric matrix)
  average eigenvalue GAMMA=   1.5204
  1.5204

 Free energy of the ion-electron system (eV)
  ---------------------------------------------------
  alpha Z        PSCENC =       166.34077906
  Ewald energy   TEWEN  =     12013.80114379
  -Hartree energ DENC   =    -18234.65045094
  -exchange      EXHF   =         0.00000000
  -V(xc)+E(xc)   XCENC  =        49.15039194
  PAW double counting   =      3746.42142061    -3465.99446979
  entropy T*S    EENTRO =         0.00000000
  eigenvalues    EBANDS =     -1678.68273306
  atomic energy  EATOM  =      7287.06411261
  Solvation  Ediel_sol  =         0.00000000
  ---------------------------------------------------
  free energy    TOTEN  =      -116.54980578 eV

  energy without entropy =     -116.54980578  energy(sigma->0) =     -116.54980578


--------------------------------------------------------------------------------------------------------




--------------------------------------- Iteration      1(   7)  ---------------------------------------


    POTLOK:  cpu time    0.0198: real time    0.0307
    SETDIJ:  cpu time    0.0063: real time    0.0063
     EDDAV:  cpu time    3.0998: real time    3.1072
 BZINTS: Fermi energy: -1.559821;144.000000 electrons
         Band energy:***********;  BLOECHL correction:  0.000000
       DOS:  cpu time    0.0024: real time    0.0024
    CHARGE:  cpu time    0.1658: real time    0.1662
    MIXING:  cpu time    0.0065: real time    0.0067
    --------------------------------------------
      LOOP:  cpu time    3.3006: real time    3.3195

 eigenvalue-minimisations  :  3592
 total energy-change (2. order) : 0.1366926E+01  (-0.1007933E+01)
 number of electron     144.0000009 magnetization 
 augmentation part      -16.8978168 magnetization 

 Broyden mixing:
  rms(total) = 0.23906E+00    rms(broyden)= 0.23906E+00
  rms(prec ) = 0.28992E+00
  weight for this iteration     100.00

 eigenvalues of (default mixing * dielectric matrix)
  average eigenvalue GAMMA=   1.7611
  1.7611  1.7611

 Free energy of the ion-electron system (eV)
  ---------------------------------------------------
  alpha Z        PSCENC =       166.34077906
  Ewald energy   TEWEN  =     12013.80114379
  -Hartree energ DENC   =    -18309.51470511
  -exchange      EXHF   =         0.00000000
  -V(xc)+E(xc)   XCENC  =        51.24613552
  PAW double counting   =      3791.08832049    -3516.93283172
  entropy T*S    EENTRO =         0.00000000
  eigenvalues    EBANDS =     -1598.27583475
  atomic energy  EATOM  =      7287.06411261
  Solvation  Ediel_sol  =         0.00000000
  ---------------------------------------------------
  free energy    TOTEN  =      -115.18288010 eV

  energy without entropy =     -115.18288010  energy(sigma->0) =     -115.18288010


--------------------------------------------------------------------------------------------------------




--------------------------------------- Iteration      1(   8)  ---------------------------------------


    POTLOK:  cpu time    0.0172: real time    0.0285
    SETDIJ:  cpu time    0.0053: real time    0.0054
     EDDAV:  cpu time    2.7629: real time    2.7694
 BZINTS: Fermi energy: -1.402095;144.000000 electrons
         Band energy:***********;  BLOECHL correction:  0.000000
       DOS:  cpu time    0.0023: real time    0.0023
    CHARGE:  cpu time    0.1921: real time    0.1925
    MIXING:  cpu time    0.0052: real time    0.0056
    --------------------------------------------
      LOOP:  cpu time    2.9850: real time    3.0037

 eigenvalue-minimisations  :  3112
 total energy-change (2. order) : 0.2894607E+00  (-0.3614758E+00)
 number of electron     144.0000009 magnetization 
 augmentation part      -17.0457848 magnetization 

 Broyden mixing:
  rms(total) = 0.11653E+00    rms(broyden)= 0.11653E+00
  rms(prec ) = 0.19046E+00
  weight for this iteration     100.00

 eigenvalues of (default mixing * dielectric matrix)
  average eigenvalue GAMMA=   1.6364
  2.5182  1.1955  1.1955

 Free energy of the ion-electron system (eV)
  ---------------------------------------------------
  alpha Z        PSCENC =       166.34077906
  Ewald energy   TEWEN  =     12013.80114379
  -Hartree energ DENC   =    -18341.25645080
  -exchange      EXHF   =         0.00000000
  -V(xc)+E(xc)   XCENC  =        52.12222865
  PAW double counting   =      3836.93844046    -3564.69948027
  entropy T*S    EENTRO =         0.00000000
  eigenvalues    EBANDS =     -1565.20419293
  atomic energy  EATOM  =      7287.06411261
  Solvation  Ediel_sol  =         0.00000000
  ---------------------------------------------------
  free energy    TOTEN  =      -114.89341943 eV

  energy without entropy =     -114.89341943  energy(sigma->0) =     -114.89341943


--------------------------------------------------------------------------------------------------------




--------------------------------------- Iteration      1(   9)  ---------------------------------------


    POTLOK:  cpu time    0.0187: real time    0.0295
    SETDIJ:  cpu time    0.0053: real time    0.0053
     EDDAV:  cpu time    3.0190: real time    3.0261
 BZINTS: Fermi energy: -1.052818;144.000000 electrons
         Band energy:***********;  BLOECHL correction:  0.000000
       DOS:  cpu time    0.0021: real time    0.0021
    CHARGE:  cpu time    0.1751: real time    0.1755
    MIXING:  cpu time    0.0062: real time    0.0063
    --------------------------------------------
      LOOP:  cpu time    3.2263: real time    3.2447

 eigenvalue-minimisations  :  3112
 total energy-change (2. order) : 0.2905131E+00  (-0.1146871E+00)
 number of electron     144.0000009 magnetization 
 augmentation part      -17.0300518 magnetization 

 Broyden mixing:
  rms(total) = 0.55378E-01    rms(broyden)= 0.55378E-01
  rms(prec ) = 0.80500E-01
  weight for this iteration     100.00

 eigenvalues of (default mixing * dielectric matrix)
  average eigenvalue GAMMA=   1.3822
  2.3870  1.1717  1.1717  0.7985

 Free energy of the ion-electron system (eV)
  ---------------------------------------------------
  alpha Z        PSCENC =       166.34077906
  Ewald energy   TEWEN  =     12013.80114379
  -Hartree energ DENC   =    -18382.32449966
  -exchange      EXHF   =         0.00000000
  -V(xc)+E(xc)   XCENC  =        52.98979290
  PAW double counting   =      3849.34375353    -3578.60587335
  entropy T*S    EENTRO =         0.00000000
  eigenvalues    EBANDS =     -1523.21211523
  atomic energy  EATOM  =      7287.06411261
  Solvation  Ediel_sol  =         0.00000000
  ---------------------------------------------------
  free energy    TOTEN  =      -114.60290635 eV

  energy without entropy =     -114.60290635  energy(sigma->0) =     -114.60290635


--------------------------------------------------------------------------------------------------------




--------------------------------------- Iteration      1(  10)  ---------------------------------------


    POTLOK:  cpu time    0.0196: real time    0.0305
    SETDIJ:  cpu time    0.0038: real time    0.0038
     EDDAV:  cpu time    3.1124: real time    3.1198
 BZINTS: Fermi energy: -0.999242;144.000000 electrons
         Band energy:***********;  BLOECHL correction:  0.000000
       DOS:  cpu time    0.0024: real time    0.0025
    CHARGE:  cpu time    0.1574: real time    0.1578
    MIXING:  cpu time    0.0057: real time    0.0058
    --------------------------------------------
      LOOP:  cpu time    3.3014: real time    3.3201

 eigenvalue-minimisations  :  3632
 total energy-change (2. order) :-0.5321863E-02  (-0.2331872E-01)
 number of electron     144.0000009 magnetization 
 augmentation part      -17.0689486 magnetization 

 Broyden mixing:
  rms(total) = 0.40950E-01    rms(broyden)= 0.40950E-01
  rms(prec ) = 0.62127E-01
  weight for this iteration     100.00

 eigenvalues of (default mixing * dielectric matrix)
  average eigenvalue GAMMA=   1.5805
  2.4490  2.4490  0.9589  0.9589  1.0867

 Free energy of the ion-electron system (eV)
  ---------------------------------------------------
  alpha Z        PSCENC =       166.34077906
  Ewald energy   TEWEN  =     12013.80114379
  -Hartree energ DENC   =    -18392.03603480
  -exchange      EXHF   =         0.00000000
  -V(xc)+E(xc)   XCENC  =        52.98128542
  PAW double counting   =      3844.93655532    -3573.82436089
  entropy T*S    EENTRO =         0.00000000
  eigenvalues    EBANDS =     -1513.87170872
  atomic energy  EATOM  =      7287.06411261
  Solvation  Ediel_sol  =         0.00000000
  ---------------------------------------------------
  free energy    TOTEN  =      -114.60822822 eV

  energy without entropy =     -114.60822822  energy(sigma->0) =     -114.60822822


--------------------------------------------------------------------------------------------------------




--------------------------------------- Iteration      1(  11)  ---------------------------------------


    POTLOK:  cpu time    0.0183: real time    0.0288
    SETDIJ:  cpu time    0.0034: real time    0.0034
     EDDAV:  cpu time    2.9069: real time    2.9138
 BZINTS: Fermi energy: -0.863346;144.000000 electrons
         Band energy:***********;  BLOECHL correction:  0.000000
       DOS:  cpu time    0.0019: real time    0.0019
    CHARGE:  cpu time    0.1680: real time    0.1684
    MIXING:  cpu time    0.0075: real time    0.0075
    --------------------------------------------
      LOOP:  cpu time    3.1060: real time    3.1238

 eigenvalue-minimisations  :  3264
 total energy-change (2. order) : 0.1950402E-01  (-0.5129836E-02)
 number of electron     144.0000009 magnetization 
 augmentation part      -17.0788951 magnetization 

 Broyden mixing:
  rms(total) = 0.15109E-01    rms(broyden)= 0.15109E-01
  rms(prec ) = 0.31741E-01
  weight for this iteration     100.00

 eigenvalues of (default mixing * dielectric matrix)
  average eigenvalue GAMMA=   1.5962
  2.7894  2.7518  1.1310  0.9825  0.9613  0.9613

 Free energy of the ion-electron system (eV)
  ---------------------------------------------------
  alpha Z        PSCENC =       166.34077906
  Ewald energy   TEWEN  =     12013.80114379
  -Hartree energ DENC   =    -18413.23555348
  -exchange      EXHF   =         0.00000000
  -V(xc)+E(xc)   XCENC  =        53.16363857
  PAW double counting   =      3846.37044331    -3574.92538653
  entropy T*S    EENTRO =         0.00000000
  eigenvalues    EBANDS =     -1493.16790153
  atomic energy  EATOM  =      7287.06411261
  Solvation  Ediel_sol  =         0.00000000
  ---------------------------------------------------
  free energy    TOTEN  =      -114.58872420 eV

  energy without entropy =     -114.58872420  energy(sigma->0) =     -114.58872420


--------------------------------------------------------------------------------------------------------




--------------------------------------- Iteration      1(  12)  ---------------------------------------


    POTLOK:  cpu time    0.0206: real time    0.0314
    SETDIJ:  cpu time    0.0059: real time    0.0059
     EDDAV:  cpu time    3.0913: real time    3.0986
 BZINTS: Fermi energy: -0.785548;144.000000 electrons
         Band energy:***********;  BLOECHL correction:  0.000000
       DOS:  cpu time    0.0020: real time    0.0020
    CHARGE:  cpu time    0.1553: real time    0.1557
    MIXING:  cpu time    0.0055: real time    0.0056
    --------------------------------------------
      LOOP:  cpu time    3.2807: real time    3.2992

 eigenvalue-minimisations  :  3240
 total energy-change (2. order) :-0.5645179E-03  (-0.1161996E-02)
 number of electron     144.0000009 magnetization 
 augmentation part      -17.0747615 magnetization 

 Broyden mixing:
  rms(total) = 0.12322E-01    rms(broyden)= 0.12322E-01
  rms(prec ) = 0.21481E-01
  weight for this iteration     100.00

 eigenvalues of (default mixing * dielectric matrix)
  average eigenvalue GAMMA=   1.7288
  3.8068  2.1353  2.1353  1.1134  1.1134  0.8987  0.8987

 Free energy of the ion-electron system (eV)
  ---------------------------------------------------
  alpha Z        PSCENC =       166.34077906
  Ewald energy   TEWEN  =     12013.80114379
  -Hartree energ DENC   =    -18426.17115821
  -exchange      EXHF   =         0.00000000
  -V(xc)+E(xc)   XCENC  =        53.23708294
  PAW double counting   =      3845.21647734    -3573.63759496
  entropy T*S    EENTRO =         0.00000000
  eigenvalues    EBANDS =     -1480.44013129
  atomic energy  EATOM  =      7287.06411261
  Solvation  Ediel_sol  =         0.00000000
  ---------------------------------------------------
  free energy    TOTEN  =      -114.58928872 eV

  energy without entropy =     -114.58928872  energy(sigma->0) =     -114.58928872


--------------------------------------------------------------------------------------------------------




--------------------------------------- Iteration      1(  13)  ---------------------------------------


    POTLOK:  cpu time    0.0178: real time    0.0290
    SETDIJ:  cpu time    0.0035: real time    0.0035
     EDDAV:  cpu time    2.8256: real time    2.8324
 BZINTS: Fermi energy: -0.718490;144.000000 electrons
         Band energy:***********;  BLOECHL correction:  0.000000
       DOS:  cpu time    0.0019: real time    0.0019
    CHARGE:  cpu time    0.1549: real time    0.1552
    MIXING:  cpu time    0.0085: real time    0.0085
    --------------------------------------------
      LOOP:  cpu time    3.0122: real time    3.0305

 eigenvalue-minimisations  :  3272
 total energy-change (2. order) :-0.6753893E-02  (-0.1001256E-02)
 number of electron     144.0000009 magnetization 
 augmentation part      -17.0752515 magnetization 

 Broyden mixing:
  rms(total) = 0.67541E-02    rms(broyden)= 0.67541E-02
  rms(prec ) = 0.11510E-01
  weight for this iteration     100.00

 eigenvalues of (default mixing * dielectric matrix)
  average eigenvalue GAMMA=   1.8134
  4.4007  2.5219  2.5219  1.2038  1.2038  0.8881  0.8881  0.8786

 Free energy of the ion-electron system (eV)
  ---------------------------------------------------
  alpha Z        PSCENC =       166.34077906
  Ewald energy   TEWEN  =     12013.80114379
  -Hartree energ DENC   =    -18438.04903447
  -exchange      EXHF   =         0.00000000
  -V(xc)+E(xc)   XCENC  =        53.31851141
  PAW double counting   =      3844.15510092    -3572.69665957
  entropy T*S    EENTRO =         0.00000000
  eigenvalues    EBANDS =     -1468.52999636
  atomic energy  EATOM  =      7287.06411261
  Solvation  Ediel_sol  =         0.00000000
  ---------------------------------------------------
  free energy    TOTEN  =      -114.59604261 eV

  energy without entropy =     -114.59604261  energy(sigma->0) =     -114.59604261


--------------------------------------------------------------------------------------------------------




--------------------------------------- Iteration      1(  14)  ---------------------------------------


    POTLOK:  cpu time    0.0182: real time    0.0288
    SETDIJ:  cpu time    0.0052: real time    0.0052
     EDDAV:  cpu time    2.8151: real time    2.8218
 BZINTS: Fermi energy: -0.613165;144.000000 electrons
         Band energy:***********;  BLOECHL correction:  0.000000
       DOS:  cpu time    0.0026: real time    0.0026
    CHARGE:  cpu time    0.1705: real time    0.1709
    MIXING:  cpu time    0.0076: real time    0.0077
    --------------------------------------------
      LOOP:  cpu time    3.0192: real time    3.0370

 eigenvalue-minimisations  :  3192
 total energy-change (2. order) :-0.4912140E-02  (-0.2423114E-03)
 number of electron     144.0000009 magnetization 
 augmentation part      -17.0752003 magnetization 

 Broyden mixing:
  rms(total) = 0.51428E-02    rms(broyden)= 0.51428E-02
  rms(prec ) = 0.83719E-02
  weight for this iteration     100.00

 eigenvalues of (default mixing * dielectric matrix)
  average eigenvalue GAMMA=   1.8529
  4.8700  2.8137  2.1555  1.5480  1.3802  0.9100  0.9100  1.0442  1.0442

 Free energy of the ion-electron system (eV)
  ---------------------------------------------------
  alpha Z        PSCENC =       166.34077906
  Ewald energy   TEWEN  =     12013.80114379
  -Hartree energ DENC   =    -18441.91298835
  -exchange      EXHF   =         0.00000000
  -V(xc)+E(xc)   XCENC  =        53.32124338
  PAW double counting   =      3843.05599742    -3571.58348392
  entropy T*S    EENTRO =         0.00000000
  eigenvalues    EBANDS =     -1464.68775873
  atomic energy  EATOM  =      7287.06411261
  Solvation  Ediel_sol  =         0.00000000
  ---------------------------------------------------
  free energy    TOTEN  =      -114.60095475 eV

  energy without entropy =     -114.60095475  energy(sigma->0) =     -114.60095475


--------------------------------------------------------------------------------------------------------




--------------------------------------- Iteration      1(  15)  ---------------------------------------


    POTLOK:  cpu time    0.0192: real time    0.0300
    SETDIJ:  cpu time    0.0020: real time    0.0020
     EDDAV:  cpu time    2.9635: real time    2.9705
 BZINTS: Fermi energy: -0.605775;144.000000 electrons
         Band energy:***********;  BLOECHL correction:  0.000000
       DOS:  cpu time    0.0023: real time    0.0024
    CHARGE:  cpu time    0.1618: real time    0.1622
    MIXING:  cpu time    0.0094: real time    0.0094
    --------------------------------------------
      LOOP:  cpu time    3.1581: real time    3.1764

 eigenvalue-minimisations  :  3136
 total energy-change (2. order) :-0.2163590E-02  (-0.1582193E-03)
 number of electron     144.0000009 magnetization 
 augmentation part      -17.0763916 magnetization 

 Broyden mixing:
  rms(total) = 0.21411E-02    rms(broyden)= 0.21411E-02
  rms(prec ) = 0.40166E-02
  weight for this iteration     100.00

 eigenvalues of (default mixing * dielectric matrix)
  average eigenvalue GAMMA=   1.9487
  5.6323  3.4893  2.3513  1.5283  0.9069  0.9069  1.3270  1.3270  1.0090  1.0090

 Free energy of the ion-electron system (eV)
  ---------------------------------------------------
  alpha Z        PSCENC =       166.34077906
  Ewald energy   TEWEN  =     12013.80114379
  -Hartree energ DENC   =    -18443.67023594
  -exchange      EXHF   =         0.00000000
  -V(xc)+E(xc)   XCENC  =        53.31636598
  PAW double counting   =      3843.24666867    -3571.73876496
  entropy T*S    EENTRO =         0.00000000
  eigenvalues    EBANDS =     -1462.96318755
  atomic energy  EATOM  =      7287.06411261
  Solvation  Ediel_sol  =         0.00000000
  ---------------------------------------------------
  free energy    TOTEN  =      -114.60311834 eV

  energy without entropy =     -114.60311834  energy(sigma->0) =     -114.60311834


--------------------------------------------------------------------------------------------------------




--------------------------------------- Iteration      1(  16)  ---------------------------------------


    POTLOK:  cpu time    0.0188: real time    0.0297
    SETDIJ:  cpu time    0.0066: real time    0.0066
     EDDAV:  cpu time    2.8544: real time    2.8612
 BZINTS: Fermi energy: -0.604421;144.000000 electrons
         Band energy:***********;  BLOECHL correction:  0.000000
       DOS:  cpu time    0.0024: real time    0.0025
    CHARGE:  cpu time    0.1556: real time    0.1560
    MIXING:  cpu time    0.0105: real time    0.0105
    --------------------------------------------
      LOOP:  cpu time    3.0483: real time    3.0664

 eigenvalue-minimisations  :  3120
 total energy-change (2. order) :-0.1239998E-02  (-0.6479483E-04)
 number of electron     144.0000009 magnetization 
 augmentation part      -17.0760678 magnetization 

 Broyden mixing:
  rms(total) = 0.14594E-02    rms(broyden)= 0.14594E-02
  rms(prec ) = 0.26561E-02
  weight for this iteration     100.00

 eigenvalues of (default mixing * dielectric matrix)
  average eigenvalue GAMMA=   1.9977
  5.7819  3.9856  2.2165  1.9274  1.7623  0.9102  0.9102  1.2645  1.2645  0.9756
  0.9756

 Free energy of the ion-electron system (eV)
  ---------------------------------------------------
  alpha Z        PSCENC =       166.34077906
  Ewald energy   TEWEN  =     12013.80114379
  -Hartree energ DENC   =    -18444.88915635
  -exchange      EXHF   =         0.00000000
  -V(xc)+E(xc)   XCENC  =        53.31449245
  PAW double counting   =      3843.23380569    -3571.73743628
  entropy T*S    EENTRO =         0.00000000
  eigenvalues    EBANDS =     -1461.73209930
  atomic energy  EATOM  =      7287.06411261
  Solvation  Ediel_sol  =         0.00000000
  ---------------------------------------------------
  free energy    TOTEN  =      -114.60435834 eV

  energy without entropy =     -114.60435834  energy(sigma->0) =     -114.60435834


--------------------------------------------------------------------------------------------------------




--------------------------------------- Iteration      1(  17)  ---------------------------------------


    POTLOK:  cpu time    0.0198: real time    0.0311
    SETDIJ:  cpu time    0.0073: real time    0.0073
     EDDAV:  cpu time    3.0093: real time    3.0164
 BZINTS: Fermi energy: -0.607321;144.000000 electrons
         Band energy:***********;  BLOECHL correction:  0.000000
       DOS:  cpu time    0.0026: real time    0.0026
    CHARGE:  cpu time    0.1758: real time    0.1762
    MIXING:  cpu time    0.0079: real time    0.0080
    --------------------------------------------
      LOOP:  cpu time    3.2226: real time    3.2416

 eigenvalue-minimisations  :  3040
 total energy-change (2. order) :-0.8065295E-03  (-0.2808263E-04)
 number of electron     144.0000009 magnetization 
 augmentation part      -17.0761771 magnetization 

 Broyden mixing:
  rms(total) = 0.79788E-03    rms(broyden)= 0.79788E-03
  rms(prec ) = 0.16257E-02
  weight for this iteration     100.00

 eigenvalues of (default mixing * dielectric matrix)
  average eigenvalue GAMMA=   2.0460
  6.0533  4.5431  2.5231  2.3226  1.6305  0.9096  0.9096  1.3133  1.3133  0.9627
  1.0353  1.0353

 Free energy of the ion-electron system (eV)
  ---------------------------------------------------
  alpha Z        PSCENC =       166.34077906
  Ewald energy   TEWEN  =     12013.80114379
  -Hartree energ DENC   =    -18445.61268656
  -exchange      EXHF   =         0.00000000
  -V(xc)+E(xc)   XCENC  =        53.31442311
  PAW double counting   =      3843.25526549    -3571.75685855
  entropy T*S    EENTRO =         0.00000000
  eigenvalues    EBANDS =     -1461.01134383
  atomic energy  EATOM  =      7287.06411261
  Solvation  Ediel_sol  =         0.00000000
  ---------------------------------------------------
  free energy    TOTEN  =      -114.60516487 eV

  energy without entropy =     -114.60516487  energy(sigma->0) =     -114.60516487


--------------------------------------------------------------------------------------------------------




--------------------------------------- Iteration      1(  18)  ---------------------------------------


    POTLOK:  cpu time    0.0208: real time    0.0317
    SETDIJ:  cpu time    0.0024: real time    0.0024
     EDDAV:  cpu time    2.9978: real time    3.0049
 BZINTS: Fermi energy: -0.609515;144.000000 electrons
         Band energy:***********;  BLOECHL correction:  0.000000
       DOS:  cpu time    0.0024: real time    0.0024
    CHARGE:  cpu time    0.1649: real time    0.1653
    MIXING:  cpu time    0.0067: real time    0.0067
    --------------------------------------------
      LOOP:  cpu time    3.1950: real time    3.2135

 eigenvalue-minimisations  :  2712
 total energy-change (2. order) :-0.6246958E-03  (-0.1411816E-04)
 number of electron     144.0000009 magnetization 
 augmentation part      -17.0762826 magnetization 

 Broyden mixing:
  rms(total) = 0.54484E-03    rms(broyden)= 0.54484E-03
  rms(prec ) = 0.99847E-03
  weight for this iteration     100.00

 eigenvalues of (default mixing * dielectric matrix)
  average eigenvalue GAMMA=   2.1140
  6.2092  5.3113  2.8780  2.3861  1.8765  0.9089  0.9089  1.3888  1.3888  1.1628
  1.1628  0.9501  0.9501

 Free energy of the ion-electron system (eV)
  ---------------------------------------------------
  alpha Z        PSCENC =       166.34077906
  Ewald energy   TEWEN  =     12013.80114379
  -Hartree energ DENC   =    -18446.16379903
  -exchange      EXHF   =         0.00000000
  -V(xc)+E(xc)   XCENC  =        53.31523693
  PAW double counting   =      3843.27215076    -3571.77332198
  entropy T*S    EENTRO =         0.00000000
  eigenvalues    EBANDS =     -1460.46209169
  atomic energy  EATOM  =      7287.06411261
  Solvation  Ediel_sol  =         0.00000000
  ---------------------------------------------------
  free energy    TOTEN  =      -114.60578956 eV

  energy without entropy =     -114.60578956  energy(sigma->0) =     -114.60578956


--------------------------------------------------------------------------------------------------------




--------------------------------------- Iteration      1(  19)  ---------------------------------------


    POTLOK:  cpu time    0.0190: real time    0.0299
    SETDIJ:  cpu time    0.0041: real time    0.0041
     EDDAV:  cpu time    2.7253: real time    2.7317
 BZINTS: Fermi energy: -0.610601;144.000000 electrons
         Band energy:***********;  BLOECHL correction:  0.000000
       DOS:  cpu time    0.0024: real time    0.0024
    CHARGE:  cpu time    0.1608: real time    0.1612
    MIXING:  cpu time    0.0070: real time    0.0070
    --------------------------------------------
      LOOP:  cpu time    2.9186: real time    2.9364

 eigenvalue-minimisations  :  2616
 total energy-change (2. order) :-0.6599562E-03  (-0.8663475E-05)
 number of electron     144.0000009 magnetization 
 augmentation part      -17.0765140 magnetization 

 Broyden mixing:
  rms(total) = 0.40745E-03    rms(broyden)= 0.40745E-03
  rms(prec ) = 0.61914E-03
  weight for this iteration     100.00

 eigenvalues of (default mixing * dielectric matrix)
  average eigenvalue GAMMA=   2.2004
  6.2360  6.2360  3.2129  2.5601  2.1513  1.5722  1.5722  0.9089  0.9089  1.2360
  1.2360  0.9967  0.9967  0.9824

 Free energy of the ion-electron system (eV)
  ---------------------------------------------------
  alpha Z        PSCENC =       166.34077906
  Ewald energy   TEWEN  =     12013.80114379
  -Hartree energ DENC   =    -18446.44568931
  -exchange      EXHF   =         0.00000000
  -V(xc)+E(xc)   XCENC  =        53.31455934
  PAW double counting   =      3843.26036878    -3571.76065788
  entropy T*S    EENTRO =         0.00000000
  eigenvalues    EBANDS =     -1460.18106591
  atomic energy  EATOM  =      7287.06411261
  Solvation  Ediel_sol  =         0.00000000
  ---------------------------------------------------
  free energy    TOTEN  =      -114.60644952 eV

  energy without entropy =     -114.60644952  energy(sigma->0) =     -114.60644952


--------------------------------------------------------------------------------------------------------




--------------------------------------- Iteration      1(  20)  ---------------------------------------


    POTLOK:  cpu time    0.0201: real time    0.0309
    SETDIJ:  cpu time    0.0016: real time    0.0016
     EDDAV:  cpu time    2.8450: real time    2.8517
 BZINTS: Fermi energy: -0.612100;144.000000 electrons
         Band energy:***********;  BLOECHL correction:  0.000000
       DOS:  cpu time    0.0024: real time    0.0024
    CHARGE:  cpu time    0.1699: real time    0.1703
    MIXING:  cpu time    0.0073: real time    0.0074
    --------------------------------------------
      LOOP:  cpu time    3.0463: real time    3.0644

 eigenvalue-minimisations  :  2688
 total energy-change (2. order) :-0.3998571E-03  (-0.5948289E-05)
 number of electron     144.0000009 magnetization 
 augmentation part      -17.0765988 magnetization 

 Broyden mixing:
  rms(total) = 0.16892E-03    rms(broyden)= 0.16892E-03
  rms(prec ) = 0.23690E-03
  weight for this iteration     100.00

 eigenvalues of (default mixing * dielectric matrix)
  average eigenvalue GAMMA=   2.2977
  7.0010  7.0010  3.7006  2.7620  2.3199  1.6146  1.6146  0.9090  0.9090  1.2428
  1.2428  1.1159  1.1159  0.9586  0.9586

 Free energy of the ion-electron system (eV)
  ---------------------------------------------------
  alpha Z        PSCENC =       166.34077906
  Ewald energy   TEWEN  =     12013.80114379
  -Hartree energ DENC   =    -18446.54959335
  -exchange      EXHF   =         0.00000000
  -V(xc)+E(xc)   XCENC  =        53.31421612
  PAW double counting   =      3843.25832875    -3571.75737695
  entropy T*S    EENTRO =         0.00000000
  eigenvalues    EBANDS =     -1460.07845940
  atomic energy  EATOM  =      7287.06411261
  Solvation  Ediel_sol  =         0.00000000
  ---------------------------------------------------
  free energy    TOTEN  =      -114.60684938 eV

  energy without entropy =     -114.60684938  energy(sigma->0) =     -114.60684938


--------------------------------------------------------------------------------------------------------




--------------------------------------- Iteration      1(  21)  ---------------------------------------


    POTLOK:  cpu time    0.0202: real time    0.0312
    SETDIJ:  cpu time    0.0021: real time    0.0021
     EDDAV:  cpu time    2.5522: real time    2.5582
 BZINTS: Fermi energy: -0.613734;144.000000 electrons
         Band energy:***********;  BLOECHL correction:  0.000000
       DOS:  cpu time    0.0024: real time    0.0024
    CHARGE:  cpu time    0.1558: real time    0.1562
    MIXING:  cpu time    0.0079: real time    0.0079
    --------------------------------------------
      LOOP:  cpu time    2.7405: real time    2.7580

 eigenvalue-minimisations  :  2432
 total energy-change (2. order) :-0.1311364E-03  (-0.1489309E-05)
 number of electron     144.0000009 magnetization 
 augmentation part      -17.0765420 magnetization 

 Broyden mixing:
  rms(total) = 0.10342E-03    rms(broyden)= 0.10342E-03
  rms(prec ) = 0.12826E-03
  weight for this iteration     100.00

 eigenvalues of (default mixing * dielectric matrix)
  average eigenvalue GAMMA=   2.3703
  8.2194  7.0486  3.9279  2.9503  2.3587  1.8573  1.8573  0.9090  0.9090  1.2752
  1.2752  1.2064  1.2064  0.9668  0.9668  0.9905

 Free energy of the ion-electron system (eV)
  ---------------------------------------------------
  alpha Z        PSCENC =       166.34077906
  Ewald energy   TEWEN  =     12013.80114379
  -Hartree energ DENC   =    -18446.57911762
  -exchange      EXHF   =         0.00000000
  -V(xc)+E(xc)   XCENC  =        53.31397701
  PAW double counting   =      3843.24276021    -3571.74203804
  entropy T*S    EENTRO =         0.00000000
  eigenvalues    EBANDS =     -1460.04859754
  atomic energy  EATOM  =      7287.06411261
  Solvation  Ediel_sol  =         0.00000000
  ---------------------------------------------------
  free energy    TOTEN  =      -114.60698051 eV

  energy without entropy =     -114.60698051  energy(sigma->0) =     -114.60698051


--------------------------------------------------------------------------------------------------------




--------------------------------------- Iteration      1(  22)  ---------------------------------------


    POTLOK:  cpu time    0.0190: real time    0.0304
    SETDIJ:  cpu time    0.0015: real time    0.0015
     EDDAV:  cpu time    2.2667: real time    2.2720
 BZINTS: Fermi energy: -0.615310;144.000000 electrons
         Band energy:***********;  BLOECHL correction:  0.000000
       DOS:  cpu time    0.0028: real time    0.0028
    CHARGE:  cpu time    0.1564: real time    0.1568
    MIXING:  cpu time    0.0094: real time    0.0094
    --------------------------------------------
      LOOP:  cpu time    2.4558: real time    2.4729

 eigenvalue-minimisations  :  2336
 total energy-change (2. order) :-0.4084344E-04  (-0.3739140E-06)
 number of electron     144.0000009 magnetization 
 augmentation part      -17.0765341 magnetization 

 Broyden mixing:
  rms(total) = 0.44032E-04    rms(broyden)= 0.44032E-04
  rms(prec ) = 0.57339E-04
  weight for this iteration     100.00

 eigenvalues of (default mixing * dielectric matrix)
  average eigenvalue GAMMA=   2.3668
  8.7049  7.0747  4.0978  3.0781  2.4878  2.0091  1.7486  0.9090  0.9090  1.3445
  1.3445  1.2645  1.2645  1.0477  1.0477  0.9513  0.9513

 Free energy of the ion-electron system (eV)
  ---------------------------------------------------
  alpha Z        PSCENC =       166.34077906
  Ewald energy   TEWEN  =     12013.80114379
  -Hartree energ DENC   =    -18446.56863417
  -exchange      EXHF   =         0.00000000
  -V(xc)+E(xc)   XCENC  =        53.31365229
  PAW double counting   =      3843.22815540    -3571.72753814
  entropy T*S    EENTRO =         0.00000000
  eigenvalues    EBANDS =     -1460.05869219
  atomic energy  EATOM  =      7287.06411261
  Solvation  Ediel_sol  =         0.00000000
  ---------------------------------------------------
  free energy    TOTEN  =      -114.60702136 eV

  energy without entropy =     -114.60702136  energy(sigma->0) =     -114.60702136


--------------------------------------------------------------------------------------------------------




--------------------------------------- Iteration      1(  23)  ---------------------------------------


    POTLOK:  cpu time    0.0202: real time    0.0302
    SETDIJ:  cpu time    0.0041: real time    0.0041
     EDDAV:  cpu time    2.2700: real time    2.2754
 BZINTS: Fermi energy: -0.616498;144.000000 electrons
         Band energy:***********;  BLOECHL correction:  0.000000
       DOS:  cpu time    0.0027: real time    0.0027
    CHARGE:  cpu time    0.1781: real time    0.1786
    MIXING:  cpu time    0.0084: real time    0.0084
    --------------------------------------------
      LOOP:  cpu time    2.4834: real time    2.4994

 eigenvalue-minimisations  :  2072
 total energy-change (2. order) :-0.1206009E-04  (-0.8356051E-07)
 number of electron     144.0000009 magnetization 
 augmentation part      -17.0765391 magnetization 

 Broyden mixing:
  rms(total) = 0.21792E-04    rms(broyden)= 0.21792E-04
  rms(prec ) = 0.29326E-04
  weight for this iteration     100.00

 eigenvalues of (default mixing * dielectric matrix)
  average eigenvalue GAMMA=   2.3864
  8.9715  7.0826  4.2359  3.3111  2.4833  2.1071  1.9966  1.9966  0.9090  0.9090
  1.2650  1.2650  1.2339  1.2339  0.9656  0.9656  1.0394  0.9849

 Free energy of the ion-electron system (eV)
  ---------------------------------------------------
  alpha Z        PSCENC =       166.34077906
  Ewald energy   TEWEN  =     12013.80114379
  -Hartree energ DENC   =    -18446.57428943
  -exchange      EXHF   =         0.00000000
  -V(xc)+E(xc)   XCENC  =        53.31370817
  PAW double counting   =      3843.22896178    -3571.72844177
  entropy T*S    EENTRO =         0.00000000
  eigenvalues    EBANDS =     -1460.05300763
  atomic energy  EATOM  =      7287.06411261
  Solvation  Ediel_sol  =         0.00000000
  ---------------------------------------------------
  free energy    TOTEN  =      -114.60703342 eV

  energy without entropy =     -114.60703342  energy(sigma->0) =     -114.60703342


--------------------------------------------------------------------------------------------------------




--------------------------------------- Iteration      1(  24)  ---------------------------------------


    POTLOK:  cpu time    0.0224: real time    0.0338
    SETDIJ:  cpu time    0.0065: real time    0.0065
     EDDAV:  cpu time    2.1921: real time    2.1973
 BZINTS: Fermi energy: -0.617517;144.000000 electrons
         Band energy:***********;  BLOECHL correction:  0.000000
       DOS:  cpu time    0.0024: real time    0.0024
    CHARGE:  cpu time    0.1677: real time    0.1681
    MIXING:  cpu time    0.0080: real time    0.0081
    --------------------------------------------
      LOOP:  cpu time    2.3991: real time    2.4161

 eigenvalue-minimisations  :  1880
 total energy-change (2. order) :-0.3542193E-05  (-0.2860056E-07)
 number of electron     144.0000009 magnetization 
 augmentation part      -17.0765434 magnetization 

 Broyden mixing:
  rms(total) = 0.96240E-05    rms(broyden)= 0.96240E-05
  rms(prec ) = 0.15037E-04
  weight for this iteration     100.00

 eigenvalues of (default mixing * dielectric matrix)
  average eigenvalue GAMMA=   2.3642
  9.1006  7.0592  4.3670  3.4784  2.6922  2.4957  1.8556  1.8556  0.9090  0.9090
  1.2630  1.2630  1.3127  1.3127  1.0739  1.0739  0.9570  0.9570  0.9839

 Free energy of the ion-electron system (eV)
  ---------------------------------------------------
  alpha Z        PSCENC =       166.34077906
  Ewald energy   TEWEN  =     12013.80114379
  -Hartree energ DENC   =    -18446.57148106
  -exchange      EXHF   =         0.00000000
  -V(xc)+E(xc)   XCENC  =        53.31366272
  PAW double counting   =      3843.23104814    -3571.73052676
  entropy T*S    EENTRO =         0.00000000
  eigenvalues    EBANDS =     -1460.05577547
  atomic energy  EATOM  =      7287.06411261
  Solvation  Ediel_sol  =         0.00000000
  ---------------------------------------------------
  free energy    TOTEN  =      -114.60703696 eV

  energy without entropy =     -114.60703696  energy(sigma->0) =     -114.60703696


--------------------------------------------------------------------------------------------------------




--------------------------------------- Iteration      1(  25)  ---------------------------------------


    POTLOK:  cpu time    0.0189: real time    0.0303
    SETDIJ:  cpu time    0.0037: real time    0.0037
     EDDAV:  cpu time    2.1939: real time    2.1991
 BZINTS: Fermi energy: -0.618348;144.000000 electrons
         Band energy:***********;  BLOECHL correction:  0.000000
       DOS:  cpu time    0.0023: real time    0.0023
    --------------------------------------------
      LOOP:  cpu time    2.2188: real time    2.2354

 eigenvalue-minimisations  :  1888
 total energy-change (2. order) :-0.9007908E-06  (-0.1435581E-07)
 number of electron     144.0000009 magnetization 
 augmentation part      -17.0765434 magnetization 

 Free energy of the ion-electron system (eV)
  ---------------------------------------------------
  alpha Z        PSCENC =       166.34077906
  Ewald energy   TEWEN  =     12013.80114379
  -Hartree energ DENC   =    -18446.57077473
  -exchange      EXHF   =         0.00000000
  -V(xc)+E(xc)   XCENC  =        53.31364290
  PAW double counting   =      3843.23092719    -3571.73038480
  entropy T*S    EENTRO =         0.00000000
  eigenvalues    EBANDS =     -1460.05648388
  atomic energy  EATOM  =      7287.06411261
  Solvation  Ediel_sol  =         0.00000000
  ---------------------------------------------------
  free energy    TOTEN  =      -114.60703786 eV

[...]
      7     -28.0579      2.00000
      8     -28.0575      2.00000
      9     -14.9709      2.00000
     10     -14.9707      2.00000
     11     -14.9130      2.00000
     12     -14.9130      2.00000
     13     -14.8473      2.00000
     14     -14.8472      2.00000
     15     -14.0212      2.00000
     16     -14.0179      2.00000
     17     -14.0032      2.00000
     18     -13.9937      2.00000
     19     -13.9587      2.00000
     20     -13.9546      2.00000
     21     -13.9120      2.00000
     22     -13.9070      2.00000
     23     -13.8900      2.00000
     24     -13.8869      2.00000
     25     -13.8772      2.00000
     26     -13.8732      2.00000
     27     -13.3823      2.00000
     28     -13.3722      2.00000
     29     -13.3369      2.00000
     30     -13.3291      2.00000
     31     -13.3058      2.00000
     32     -13.3049      2.00000
     33     -11.2249      2.00000
     34     -11.2139      2.00000
     35     -10.8851      2.00000
     36     -10.8706      2.00000
     37      -6.5795      2.00000
     38      -6.5651      2.00000
     39      -6.3625      2.00000
     40      -6.3140      2.00000
     41      -6.2900      2.00000
     42      -6.2513      2.00000
     43      -6.0283      2.00000
     44      -6.0125      2.00000
     45      -5.9761      2.00000
     46      -5.9282      2.00000
     47      -5.8979      2.00000
     48      -5.7984      2.00000
     49      -2.9645      2.00000
     50      -2.8756      2.00000
     51      -2.7117      2.00000
     52      -2.6684      2.00000
     53      -2.3686      2.00000
     54      -2.3102      2.00000
     55      -2.2874      2.00000
     56      -2.2426      2.00000
     57      -2.1155      2.00000
     58      -2.0918      2.00000
     59      -1.9505      2.00000
     60      -1.8804      2.00000
     61      -1.8176      2.00000
     62      -1.7454      2.00000
     63      -1.6410      2.00000
     64      -1.5893      2.00000
     65      -1.4737      2.00000
     66      -1.4065      2.00000
     67      -1.3139      2.00000
     68      -1.1906      2.00000
     69      -1.0873      2.00000
     70      -0.9957      2.00000
     71      -0.9537      2.00000
     72      -0.8884      2.00000
     73       0.1904      0.00000
     74       0.2205      0.00000
     75       0.3467      0.00000
     76       0.3887      0.00000
     77       0.4507      0.00000
     78       0.5687      0.00000
     79       0.6889      0.00000
     80       0.7377      0.00000
     81       0.7620      0.00000
     82       0.9125      0.00000
     83       1.0516      0.00000
     84       1.1350      0.00000
     85       1.2068      0.00000
     86       1.3420      0.00000
     87       1.4484      0.00000
     88       1.5689      0.00000

 k-point    15 :       0.0000    0.5000    0.4000
  band No.  band energies     occupation 
      1     -29.6990      2.00000
      2     -29.6989      2.00000
      3     -28.6953      2.00000
      4     -28.6953      2.00000
      5     -28.6568      2.00000
      6     -28.6568      2.00000
      7     -28.0577      2.00000
      8     -28.0577      2.00000
      9     -14.9702      2.00000
     10     -14.9702      2.00000
     11     -14.9139      2.00000
     12     -14.9139      2.00000
     13     -14.8494      2.00000
     14     -14.8494      2.00000
     15     -14.0196      2.00000
     16     -14.0196      2.00000
     17     -13.9992      2.00000
     18     -13.9992      2.00000
     19     -13.9587      2.00000
     20     -13.9587      2.00000
     21     -13.9130      2.00000
     22     -13.9130      2.00000
     23     -13.8871      2.00000
     24     -13.8871      2.00000
     25     -13.8758      2.00000
     26     -13.8758      2.00000
     27     -13.3771      2.00000
     28     -13.3771      2.00000
     29     -13.3326      2.00000
     30     -13.3326      2.00000
     31     -13.3050      2.00000
     32     -13.3050      2.00000
     33     -11.2142      2.00000
     34     -11.2141      2.00000
     35     -10.8681      2.00000
     36     -10.8681      2.00000
     37      -6.6004      2.00000
     38      -6.6003      2.00000
     39      -6.3165      2.00000
     40      -6.3164      2.00000
     41      -6.2682      2.00000
     42      -6.2682      2.00000
     43      -5.9949      2.00000
     44      -5.9949      2.00000
     45      -5.9587      2.00000
     46      -5.9586      2.00000
     47      -5.8494      2.00000
     48      -5.8494      2.00000
     49      -2.8721      2.00000
     50      -2.8721      2.00000
     51      -2.7085      2.00000
     52      -2.7085      2.00000
     53      -2.3465      2.00000
     54      -2.3465      2.00000
     55      -2.2707      2.00000
     56      -2.2707      2.00000
     57      -2.1065      2.00000
     58      -2.1065      2.00000
     59      -1.8578      2.00000
     60      -1.8578      2.00000
     61      -1.6795      2.00000
     62      -1.6795      2.00000
     63      -1.6707      2.00000
     64      -1.6707      2.00000
     65      -1.4557      2.00000
     66      -1.4557      2.00000
     67      -1.2490      2.00000
     68      -1.2490      2.00000
     69      -1.0744      2.00000
     70      -1.0744      2.00000
     71      -0.9244      2.00000
     72      -0.9244      2.00000
     73       0.1034      0.00000
     74       0.1034      0.00000
     75       0.3309      0.00000
     76       0.3309      0.00000
     77       0.5074      0.00000
     78       0.5074      0.00000
     79       0.6797      0.00000
     80       0.6797      0.00000
     81       0.7526      0.00000
     82       0.7526      0.00000
     83       1.0964      0.00000
     84       1.0964      0.00000
     85       1.3193      0.00000
     86       1.3193      0.00000
     87       1.4227      0.00000
     88       1.4227      0.00000


--------------------------------------------------------------------------------------------------------


 soft charge-density along one line, spin component           1
         0         1         2         3         4         5         6         7         8         9
 total charge-density along one line
 
 pseudopotential strength for first ion, spin component:           1
  3.739  -5.737  -0.000  -0.009  -0.038  -0.000  -0.004  -0.018
 -5.737  -3.004   0.000   0.002   0.009  -0.000  -0.002  -0.007
 -0.000   0.000  -7.158  -0.000  -0.000   1.859  -0.000  -0.000
 -0.009   0.002  -0.000  -7.153  -0.001  -0.000   1.870  -0.004
 -0.038   0.009  -0.000  -0.001  -7.153  -0.000  -0.004   1.870
 -0.000  -0.000   1.859  -0.000  -0.000   7.202  -0.000  -0.000
 -0.004  -0.002  -0.000   1.870  -0.004  -0.000   7.203  -0.000
 -0.018  -0.007  -0.000  -0.004   1.870  -0.000  -0.000   7.203
 -0.000   0.000  -0.013  -0.000  -0.000  -0.010  -0.000  -0.000
 -0.000   0.000  -0.002  -0.000  -0.000  -0.001  -0.000  -0.000
  0.002  -0.001   0.000  -0.004   0.007   0.000  -0.003   0.005
 -0.002   0.001  -0.000  -0.013  -0.003  -0.000  -0.009  -0.002
  0.003  -0.001   0.000  -0.001  -0.012   0.000  -0.001  -0.009
  0.000   0.000   0.001   0.000   0.000   0.000   0.000   0.000
  0.000   0.000   0.000   0.000   0.000  -0.000   0.000   0.000
 -0.000  -0.000  -0.000   0.000  -0.000  -0.000   0.000  -0.000
  0.000   0.000   0.000   0.001   0.000   0.000   0.000   0.000
 -0.000  -0.000  -0.000   0.000   0.001  -0.000   0.000   0.000
 total augmentation occupancy for first ion, spin component:           1
  2.117  -0.284   0.000   0.014   0.054   0.000  -0.006  -0.019   0.000   0.000   0.012  -0.013   0.035   0.000   0.000  -0.006
 -0.284   0.654   0.000  -0.036  -0.136   0.000   0.014   0.034   0.000   0.000  -0.019   0.019  -0.066  -0.000   0.000   0.031
  0.000   0.000   2.012   0.000   0.000  -0.011   0.000   0.000  -0.081   0.019   0.000   0.000   0.000   0.059  -0.040  -0.000
  0.014  -0.036   0.000   1.999   0.003  -0.000  -0.003  -0.002  -0.000   0.000  -0.045  -0.069  -0.014   0.000  -0.000   0.038
  0.054  -0.136   0.000   0.003   1.995   0.000  -0.002  -0.000  -0.000   0.000   0.033  -0.008  -0.052  -0.000   0.000  -0.022
  0.000   0.000  -0.011   0.000   0.000   0.008   0.000   0.000   0.022  -0.008   0.000   0.000   0.000  -0.030   0.013   0.000
 -0.006   0.014   0.000  -0.003  -0.002  -0.000   0.005   0.001   0.000   0.000   0.016   0.017   0.005   0.000   0.000  -0.023
 -0.019   0.034   0.000  -0.002  -0.000   0.000   0.001   0.005   0.000   0.000  -0.006   0.001   0.009  -0.000   0.000   0.008
  0.000   0.000  -0.081   0.000   0.000   0.022   0.000   0.000   0.144  -0.010   0.000   0.000   0.000  -0.182   0.016   0.000
  0.000   0.000   0.019   0.000   0.000  -0.008   0.000   0.000  -0.010   0.070   0.000   0.000   0.000   0.014  -0.087   0.000
  0.012  -0.019   0.000  -0.045   0.033  -0.000   0.016  -0.006   0.000   0.000   0.125   0.052   0.021   0.000   0.000  -0.153
 -0.013   0.019   0.000  -0.069  -0.008   0.000   0.017   0.001   0.000  -0.000   0.052   0.091   0.010   0.000   0.000  -0.072
  0.035  -0.066   0.000  -0.014  -0.052   0.000   0.005   0.009   0.000   0.000   0.021   0.010   0.099   0.000   0.000  -0.029
  0.000  -0.000   0.059   0.000  -0.000  -0.030   0.000   0.000  -0.182   0.014   0.000   0.000   0.000   0.259  -0.028   0.000
  0.000   0.000  -0.040   0.000   0.000   0.013   0.000   0.000   0.016  -0.087   0.000   0.000   0.000  -0.028   0.119   0.000
 -0.006   0.031   0.000   0.038  -0.022  -0.000  -0.023   0.008   0.000   0.000  -0.153  -0.072  -0.029   0.000   0.000   0.210
  0.009  -0.040  -0.000   0.047  -0.003  -0.000  -0.024  -0.002  -0.000   0.000  -0.070  -0.116  -0.014  -0.000   0.000   0.109
 -0.027   0.082  -0.000   0.020   0.034   0.000  -0.008  -0.012   0.000   0.000  -0.031  -0.016  -0.131   0.000   0.000   0.049


------------------------ aborting loop because EDIFF is reached ----------------------------------------


    CHARGE:  cpu time    0.1687: real time    0.1692
    FORLOC:  cpu time    0.0093: real time    0.0093
    FORNL :  cpu time    0.6278: real time    0.6293
    STRESS:  cpu time    1.8436: real time    1.8480
    FORCOR:  cpu time    0.0271: real time    0.0271
    FORHAR:  cpu time    0.0242: real time    0.0243
    MIXING:  cpu time    0.0112: real time    0.0112
    OFIELD:  cpu time    0.0000: real time    0.0000

  FORCE on cell =-STRESS in cart. coord.  units (eV):
  Direction    XX          YY          ZZ          XY          YZ          ZX
  --------------------------------------------------------------------------------------
  Alpha Z   166.34078   166.34078   166.34078
  Ewald  -19728.70851 16154.88957 15587.60653    -0.00002     0.00000   174.39929
  Hartree-16662.25617 17781.89356 17326.93156     0.00000    -0.00000   133.36575
  E(xc)    -457.10192  -457.48994  -457.44518    -0.00000    -0.00000     0.08624
  Local   34975.03934-35372.79880-34343.71252     0.00001    -0.00000  -306.19662
  n-local   344.66345   345.59473   346.42159     0.06585    -0.20773    -1.47708
  augment  -171.45233  -171.90229  -171.89266    -0.00000    -0.00000     0.30359
  Kinetic  1517.47254  1533.79595  1528.42524    -0.05150    -0.82922    -0.61031
  Fock        0.00000     0.00000     0.00000     0.00000     0.00000     0.00000
  -------------------------------------------------------------------------------------
  Total     -16.00282   -19.67643   -17.32465     0.00000     0.00000    -0.12913
  in kB     -13.57983   -16.69722   -14.70153     0.00000     0.00000    -0.10958
  external pressure =      -14.99 kB  Pullay stress =        0.00 kB


 VOLUME and BASIS-vectors are now :
 -----------------------------------------------------------------------------
  energy-cutoff  :      500.00
  volume of cell :     1888.05
      direct lattice vectors                 reciprocal lattice vectors
    24.009468079  0.000000000  0.000000000     0.041650236  0.000000000  0.000000000
     0.000000000  6.777849674  0.000000000     0.000000000  0.147539419  0.000000000
     0.000000000  0.000000000 11.602143288     0.000000000  0.000000000  0.086190971

  length of vectors
    24.009468079  6.777849674 11.602143288     0.041650236  0.147539419  0.086190971


 FORCES acting on ions
    electron-ion (+dipol)            ewald-force                    non-local-force                 convergence-correction
 -----------------------------------------------------------------------------------------------
   0.785E+03 0.101E-04 0.504E+02   -.780E+03 0.101E-04 -.495E+02   -.420E+01 0.312E-18 -.908E+00   -.606E-04 -.921E-09 0.440E-04
   -.785E+03 -.616E-04 -.504E+02   0.780E+03 -.130E-04 0.495E+02   0.420E+01 -.327E-18 0.908E+00   0.606E-04 0.103E-08 -.440E-04
   0.849E+02 -.587E-04 -.455E+02   -.846E+02 -.189E-04 0.442E+02   -.274E+00 0.359E-19 0.133E+01   0.111E-03 0.155E-08 -.856E-04
   -.849E+02 0.114E-04 0.455E+02   0.846E+02 0.132E-04 -.442E+02   0.274E+00 0.186E-19 -.133E+01   -.111E-03 -.144E-08 0.856E-04
   0.633E+03 -.596E-04 -.525E+02   -.630E+03 -.170E-04 0.528E+02   -.189E+01 -.108E-17 -.303E+00   0.249E-05 0.125E-08 -.153E-03
   -.633E+03 0.896E-05 0.525E+02   0.630E+03 0.147E-04 -.528E+02   0.189E+01 0.919E-18 0.303E+00   -.250E-05 -.117E-08 0.153E-03
   0.368E+03 0.119E-04 -.174E+02   -.366E+03 0.130E-04 0.165E+02   -.909E+00 -.324E-17 0.888E+00   0.829E-04 -.141E-08 0.543E-04
   -.368E+03 -.608E-04 0.174E+02   0.366E+03 -.128E-04 -.165E+02   0.909E+00 0.225E-17 -.888E+00   -.829E-04 0.142E-08 -.542E-04
   0.276E+03 0.382E+02 -.502E+02   -.276E+03 -.391E+02 0.507E+02   -.241E+00 0.941E+00 -.493E+00   0.461E-04 0.275E-04 -.451E-04
   -.276E+03 -.382E+02 0.502E+02   0.276E+03 0.391E+02 -.507E+02   0.241E+00 -.941E+00 0.493E+00   -.461E-04 -.275E-04 0.451E-04
   0.122E+03 -.350E+02 0.704E+01   -.121E+03 0.356E+02 -.616E+01   -.129E+00 -.571E+00 -.879E+00   -.299E-04 -.567E-04 0.127E-05
   -.122E+03 0.350E+02 -.704E+01   0.121E+03 -.356E+02 0.616E+01   0.129E+00 0.571E+00 0.879E+00   0.299E-04 0.567E-04 -.127E-05
   -.276E+03 0.382E+02 0.502E+02   0.276E+03 -.391E+02 -.507E+02   0.241E+00 0.941E+00 0.493E+00   -.461E-04 0.275E-04 0.451E-04
   0.276E+03 -.382E+02 -.502E+02   -.276E+03 0.391E+02 0.507E+02   -.241E+00 -.941E+00 -.493E+00   0.461E-04 -.275E-04 -.451E-04
   -.122E+03 -.350E+02 -.704E+01   0.121E+03 0.356E+02 0.616E+01   0.129E+00 -.571E+00 0.879E+00   0.299E-04 -.567E-04 -.127E-05
   0.122E+03 0.350E+02 0.704E+01   -.121E+03 -.356E+02 -.616E+01   -.129E+00 0.571E+00 -.879E+00   -.299E-04 0.567E-04 0.127E-05
   0.332E+03 -.517E-05 0.491E+02   -.333E+03 -.609E-05 -.494E+02   0.104E+01 -.602E-18 0.359E+00   0.402E-04 0.404E-09 0.532E-04
   -.332E+03 0.620E-05 -.491E+02   0.333E+03 0.636E-05 0.494E+02   -.104E+01 -.490E-18 -.359E+00   -.402E-04 -.396E-09 -.532E-04
   0.321E+02 0.971E-05 -.131E+02   -.310E+02 0.766E-05 0.122E+02   -.933E+00 -.107E-18 0.896E+00   0.642E-05 -.554E-09 -.166E-04
   -.321E+02 -.258E-05 0.131E+02   0.310E+02 -.729E-05 -.122E+02   0.933E+00 0.611E-19 -.896E+00   -.642E-05 0.543E-09 0.166E-04
   0.243E+03 0.438E-05 0.112E+02   -.243E+03 0.814E-05 -.119E+02   -.424E+00 -.194E-18 0.742E+00   0.223E-04 -.480E-09 -.191E-04
   -.243E+03 -.657E-05 -.112E+02   0.243E+03 -.820E-05 0.119E+02   0.424E+00 0.213E-18 -.742E+00   -.223E-04 0.480E-09 0.191E-04
   0.157E+03 -.737E-05 0.637E+02   -.156E+03 -.729E-05 -.647E+02   -.721E+00 0.144E-17 0.103E+01   -.203E-05 0.524E-09 0.988E-04
   -.157E+03 0.367E-05 -.637E+02   0.156E+03 0.716E-05 0.647E+02   0.721E+00 -.240E-17 -.103E+01   0.203E-05 -.507E-09 -.988E-04
 -----------------------------------------------------------------------------------------------
   0.240E-03 -.206E-03 0.401E-04   0.568E-13 0.163E-13 -.142E-13   -.222E-15 0.109E-15 -.222E-15   -.692E-08 0.328E-09 -.312E-08
 
 
 POSITION                                       TOTAL-FORCE (eV/Angst)
 -----------------------------------------------------------------------------------
      0.13670      1.69446      8.21820         1.014678      0.000000      0.000216
      9.07277      5.08339      3.38395        -1.014678      0.000000     -0.000216
      4.36803      5.08339      2.14574         0.065504     -0.000000      0.000921
      4.84143      1.69446      9.45640        -0.065504     -0.000000     -0.000921
      1.43529      5.08339     10.63877         0.806409      0.000000      0.000905
      7.77418      1.69446      0.96337        -0.806409     -0.000000     -0.000905
      3.06944      1.69446      4.56397         0.477339     -0.000000      0.000336
      6.14002      5.08339      7.03818        -0.477339      0.000000     -0.000336
      1.75027      0.50096      1.63860         0.035007     -0.000864     -0.000443
      7.45920      6.27689      9.96354        -0.035007      0.000864      0.000443
      2.75446      6.28636      7.69639         0.103169      0.000168      0.000127
      6.45500      0.49149      3.90575        -0.103169     -0.000168     -0.000127
      7.45920      3.88988      9.96354        -0.035007     -0.000864      0.000443
      1.75027      2.88796      1.63860         0.035007      0.000864     -0.000443
      6.45500      2.89743      3.90575        -0.103169      0.000168     -0.000127
      2.75446      3.88042      7.69639         0.103169     -0.000168      0.000127
      0.74693      5.08339      7.03912         0.038096     -0.000000      0.000298
      8.46254      1.69446      4.56303        -0.038096      0.000000     -0.000298
      3.75780      1.69446      0.94748         0.074999     -0.000000     -0.000095
      5.45166      5.08339     10.65467        -0.074999     -0.000000      0.000095
      1.78112      1.69446     11.14550        -0.078167     -0.000000      0.000627
      7.42835      5.08339      0.45664         0.078167     -0.000000     -0.000627
      2.72362      5.08339      5.59735        -0.272725     -0.000000     -0.000573
      6.48585      1.69446      6.00479         0.272725      0.000000      0.000573
 -----------------------------------------------------------------------------------
    total drift:                                0.000240     -0.000206      0.000040


--------------------------------------------------------------------------------------------------------



  FREE ENERGIE OF THE ION-ELECTRON SYSTEM (eV)
  ---------------------------------------------------
  free  energy   TOTEN  =      -114.60703786 eV

  energy  without entropy=     -114.60703786  energy(sigma->0) =     -114.60703786
 


--------------------------------------------------------------------------------------------------------


    POTLOK:  cpu time    0.0246: real time    0.0247


--------------------------------------------------------------------------------------------------------


 writing wavefunctions
     LOOP+:  cpu time   83.9407: real time   85.6958
    4ORBIT:  cpu time    0.0000: real time    0.0000
 BZINTS: Fermi energy: -0.618348;144.000000 electrons
         Band energy:***********;  BLOECHL correction:  0.000000

 total amount of memory used by VASP MPI-rank0    79352. kBytes
=======================================================================

   base      :      30000. kBytes
   nonlr-proj:       2646. kBytes
   fftplans  :       5898. kBytes
   grid      :       8824. kBytes
   one-center:         93. kBytes
   wavefun   :      31891. kBytes
 
  
  
 General timing and accounting informations for this job:
 ========================================================
  
                  Total CPU time used (sec):       92.730
                            User time (sec):       86.624
                          System time (sec):        6.106
                         Elapsed time (sec):       97.564
  
                   Maximum memory used (kb):      163252.
                   Average memory used (kb):           0.
  
                          Minor page faults:        67797
                          Major page faults:          126
                 Voluntary context switches:        12986
