 vasp.5.4.4.18Apr17-6-g9f103f2a35 (build Nov 21 2017 15:30:27) complex          
  
 executed on             LinuxIFC date 2020.09.15  07:57:25
 running on   64 total cores
 distrk:  each k-point on   32 cores,    2 groups
 distr:  one band on NCORES_PER_BAND=   4 cores,    8 groups


--------------------------------------------------------------------------------------------------------


 INCAR:
 POTCAR:   PAW Ba_sv 17Apr2000                    
 POTCAR:   PAW Si 02Apr1999                       

 ----------------------------------------------------------------------------- 
|                                                                             |
|           W    W    AA    RRRRR   N    N  II  N    N   GGGG   !!!           |
|           W    W   A  A   R    R  NN   N  II  NN   N  G    G  !!!           |
|           W    W  A    A  R    R  N N  N  II  N N  N  G       !!!           |
|           W WW W  AAAAAA  RRRRR   N  N N  II  N  N N  G  GGG   !            |
|           WW  WW  A    A  R   R   N   NN  II  N   NN  G    G                |
|           W    W  A    A  R    R  N    N  II  N    N   GGGG   !!!           |
|                                                                             |
|      You have enabled k-point parallelism (KPAR>1).                         |
|      This developmental code was originally  written by Paul Kent at ORNL,  |
|      and carefully double checked in Vienna.                                |
|      GW as well as linear response parallelism added by Martijn Marsman     |
|      and Georg Kresse.                                                      |
|      Carefully verify results versus KPAR=1.                                |
|      Report problems to Paul Kent and Vienna.                               |
|                                                                             |
 ----------------------------------------------------------------------------- 

 POTCAR:   PAW Ba_sv 17Apr2000                    
   VRHFIN =Ba: s2p6s2                                                           
   LEXCH  = CA                                                                  
   EATOM  =   704.0172 eV,   51.7438 Ry                                         
                                                                                
   TITEL  = PAW Ba_sv 17Apr2000                                                 
   LULTRA =        F    use ultrasoft PP ?                                      
   IUNSCR =        1    unscreen: 0-lin 1-nonlin 2-no                           
   RPACOR =    2.400    partial core radius                                     
   POMASS =  137.327; ZVAL   =   10.000    mass and valenz                      
   RCORE  =    2.800    outmost cutoff radius                                   
   RWIGS  =    3.740; RWIGS  =    1.979    wigner-seitz radius (au A)           
   ENMAX  =  186.981; ENMIN  =  140.236 eV                                      
   RCLOC  =    2.516    cutoff for local pot                                    
   LCOR   =        T    correct aug charges                                     
   LPAW   =        T    paw PP                                                  
   EAUG   =  351.165                                                            
   DEXC   =     .000                                                            
   RMAX   =    3.372    core radius for proj-oper                               
   RAUG   =    1.300    factor for augmentation sphere                          
   RDEP   =    2.976    core radius for depl-charge                             
   QCUT   =   -3.707; QGAM   =    7.414    optimization parameters              
                                                                                
   Description                                                                  
     l     E      TYP  RCUT    TYP  RCUT                                        
     0   .000     23  2.800                                                     
     0   .000     23  2.800                                                     
     1   .000     23  2.700                                                     
     1  2.000     23  2.700                                                     
     2   .000     23  2.700                                                     
     2   .000     23  2.700                                                     
  local pseudopotential read in
  partial core-charges read in
  atomic valenz-charges read in
  non local Contribution for L=           0  read in
    real space projection operators read in
  non local Contribution for L=           0  read in
    real space projection operators read in
  non local Contribution for L=           1  read in
    real space projection operators read in
  non local Contribution for L=           1  read in
    real space projection operators read in
  non local Contribution for L=           2  read in
    real space projection operators read in
  non local Contribution for L=           2  read in
    real space projection operators read in
    PAW grid and wavefunctions read in
 
   number of l-projection  operators is LMAX  =           6
   number of lm-projection operators is LMMAX =          18
 
 POTCAR:   PAW Si 02Apr1999                       
   VRHFIN =Si: s2p2                                                             
   LEXCH  = CA                                                                  
   EATOM  =   103.4338 eV,    7.6022 Ry                                         
                                                                                
   TITEL  = PAW Si 02Apr1999                                                    
   LULTRA =        F    use ultrasoft PP ?                                      
   IUNSCR =        1    unscreen: 0-lin 1-nonlin 2-no                           
   RPACOR =    1.500    partial core radius                                     
   POMASS =   28.085; ZVAL   =    4.000    mass and valenz                      
   RCORE  =    1.900    outmost cutoff radius                                   
   RWIGS  =    2.480; RWIGS  =    1.312    wigner-seitz radius (au A)           
   ENMAX  =  245.704; ENMIN  =  184.278 eV                                      
   ICORE  =        2    local potential                                         
   LCOR   =        T    correct aug charges                                     
   LPAW   =        T    paw PP                                                  
   EAUG   =  322.069                                                            
   DEXC   =    -.006                                                            
   RMAX   =    2.941    core radius for proj-oper                               
   RAUG   =    1.300    factor for augmentation sphere                          
   RDEP   =    1.993    core radius for depl-charge                             
   QCUT   =   -4.250; QGAM   =    8.499    optimization parameters              
                                                                                
   Description                                                                  
     l     E      TYP  RCUT    TYP  RCUT                                        
     0   .000     23  1.900                                                     
     0   .000     23  1.900                                                     
     1   .000     23  1.900                                                     
     1   .000     23  1.900                                                     
     2   .000      7  1.900                                                     
  local pseudopotential read in
  partial core-charges read in
  atomic valenz-charges read in
  non local Contribution for L=           0  read in
    real space projection operators read in
  non local Contribution for L=           0  read in
    real space projection operators read in
  non local Contribution for L=           1  read in
    real space projection operators read in
  non local Contribution for L=           1  read in
    real space projection operators read in
    PAW grid and wavefunctions read in
 
   number of l-projection  operators is LMAX  =           4
   number of lm-projection operators is LMMAX =           8
 
 Optimization of the real space projectors (new method)

 maximal supplied QI-value         = 13.42
 optimisation between [QCUT,QGAM] = [ 11.40, 22.81] = [ 36.42,145.68] Ry 
 Optimized for a Real-space Cutoff    1.56 Angstroem

   l    n(q)    QCUT    max X(q) W(low)/X(q) W(high)/X(q)  e(spline) 
   0     11    11.404     7.180    0.12E-04    0.23E-04    0.91E-07
   0     11    11.404    14.700    0.33E-04    0.82E-04    0.45E-06
   1     10    11.404     3.780    0.19E-04    0.22E-04    0.42E-07
   1     10    11.404     4.341    0.22E-03    0.98E-04    0.21E-06
   2     10    11.404     5.806    0.81E-04    0.60E-05    0.26E-06
   2     10    11.404    65.524    0.41E-03    0.30E-04    0.12E-05
 Optimization of the real space projectors (new method)

 maximal supplied QI-value         = 19.84
 optimisation between [QCUT,QGAM] = [ 11.31, 22.82] = [ 35.82,145.81] Ry 
 Optimized for a Real-space Cutoff    1.16 Angstroem

   l    n(q)    QCUT    max X(q) W(low)/X(q) W(high)/X(q)  e(spline) 
   0      8    11.310     8.540    0.14E-04    0.11E-04    0.43E-08
   0      8    11.310   104.916    0.28E-03    0.31E-03    0.39E-07
   1      7    11.310     5.806    0.79E-05    0.47E-04    0.19E-07
   1      7    11.310    72.249    0.28E-03    0.28E-03    0.75E-07
 PAW Ba_sv 17Apr2000                    :
 energy of atom  1       EATOM= -704.0172
 kinetic energy error for atom=    0.0005 (will be added to EATOM!!)
 PAW Si 02Apr1999                       :
 energy of atom  2       EATOM= -103.4338
 kinetic energy error for atom=    0.0006 (will be added to EATOM!!)
 
 
 POSCAR: ba8 si16                                
  positions in direct lattice
  velocities in cartesian coordinates
 exchange correlation table for  LEXCH =        2
   RHO(1)=    0.500       N(1)  =     2000
   RHO(2)=  100.500       N(2)  =     4000
 


--------------------------------------------------------------------------------------------------------


 ion  position               nearest neighbor table
   1  0.006  0.250  0.706-  21 3.35  16 3.44  11 3.44  17 3.63  17 3.63   5 4.36   5 4.36   7 4.68

   2  0.388  0.750  0.294-  22 3.35  12 3.44  15 3.44  18 3.63  18 3.63   6 4.36   6 4.36   8 4.68

   3  0.182  0.750  0.183-  20 3.30   9 3.46  14 3.46  19 3.65  19 3.65  12 3.66  15 3.66  22 3.69
                            23 3.84   5 4.28   7 4.36   7 4.36
   4  0.212  0.250  0.817-  19 3.30  13 3.46  10 3.46  20 3.65  20 3.65  16 3.66  11 3.66  21 3.69
                            24 3.84   6 4.28   8 4.36   8 4.36
   5  0.060  0.750  0.914-  11 3.41  16 3.41   9 3.42  14 3.42  21 3.44  21 3.44  17 3.63   3 4.28
                             1 4.36   1 4.36
   6  0.334  0.250  0.086-  15 3.41  12 3.41  13 3.42  10 3.42  22 3.44  22 3.44  18 3.63   4 4.28
                             2 4.36   2 4.36
   7  0.128  0.250  0.391-  14 3.43   9 3.43  23 3.57  23 3.57  19 3.70  16 3.85  11 3.85  15 3.88
                            12 3.88   3 4.36   3 4.36   1 4.68
   8  0.266  0.750  0.609-  10 3.43  13 3.43  24 3.57  24 3.57  20 3.70  12 3.85  15 3.85  11 3.88
                            16 3.88   4 4.36   4 4.36   2 4.68
   9  0.073  0.074  0.138-  14 2.39  21 2.41  19 2.44   5 3.42   7 3.43   3 3.46
  10  0.321  0.926  0.862-  13 2.39  22 2.41  20 2.44   6 3.42   8 3.43   4 3.46
  11  0.115  0.928  0.663-  16 2.41  23 2.42  17 2.43   5 3.41   1 3.44   4 3.66   7 3.85   8 3.88

  12  0.279  0.072  0.337-  15 2.41  24 2.42  18 2.43   6 3.41   2 3.44   3 3.66   8 3.85   7 3.88

  13  0.321  0.574  0.862-  10 2.39  22 2.41  20 2.44   6 3.42   8 3.43   4 3.46
  14  0.073  0.426  0.138-   9 2.39  21 2.41  19 2.44   5 3.42   7 3.43   3 3.46
  15  0.279  0.428  0.337-  12 2.41  24 2.42  18 2.43   6 3.41   2 3.44   3 3.66   8 3.85   7 3.88

  16  0.115  0.572  0.663-  11 2.41  23 2.42  17 2.43   5 3.41   1 3.44   4 3.66   7 3.85   8 3.88

  17  0.031  0.750  0.606-  11 2.43  16 2.43  23 2.45   1 3.63   1 3.63   5 3.63
  18  0.363  0.250  0.394-  15 2.43  12 2.43  24 2.45   2 3.63   2 3.63   6 3.63
  19  0.157  0.250  0.077-  21 2.42  14 2.44   9 2.44   4 3.30   3 3.65   3 3.65   7 3.70
  20  0.237  0.750  0.923-  22 2.42  10 2.44  13 2.44   3 3.30   4 3.65   4 3.65   8 3.70
  21  0.074  0.250  0.958-  14 2.41   9 2.41  19 2.42   1 3.35   5 3.44   5 3.44   4 3.69
  22  0.320  0.750  0.042-  10 2.41  13 2.41  20 2.42   2 3.35   6 3.44   6 3.44   3 3.69
  23  0.113  0.750  0.482-  11 2.42  16 2.42  17 2.45   7 3.57   7 3.57   3 3.84
  24  0.281  0.250  0.518-  15 2.42  12 2.42  18 2.45   8 3.57   8 3.57   4 3.84
 
  LATTYP: Found a simple orthorhombic cell.
 ALAT       =     6.7778496742
 B/A-ratio  =     1.7117734747
 C/A-ratio  =     3.5423429602
  
  Lattice vectors:
  
 A1 = (   0.0000000000,   6.7778496742,   0.0000000000)
 A2 = (   0.0000000000,   0.0000000000, -11.6021432877)
 A3 = ( -24.0094680786,   0.0000000000,   0.0000000000)


Analysis of symmetry for initial positions (statically):
=====================================================================
 Subroutine PRICEL returns:
 Original cell was already a primitive cell.
 

 Routine SETGRP: Setting up the symmetry group for a 
 simple orthorhombic supercell.


 Subroutine GETGRP returns: Found  4 space group operations
 (whereof  1 operations were pure point group operations)
 out of a pool of  8 trial point group operations.


The static configuration has the point symmetry C_1 .
 The point group associated with its full space group is C_2h.


Analysis of symmetry for dynamics (positions and initial velocities):
=====================================================================
 Subroutine PRICEL returns:
 Original cell was already a primitive cell.
 

 Routine SETGRP: Setting up the symmetry group for a 
 simple orthorhombic supercell.


 Subroutine GETGRP returns: Found  4 space group operations
 (whereof  1 operations were pure point group operations)
 out of a pool of  8 trial point group operations.


The dynamic configuration has the point symmetry C_1 .
 The point group associated with its full space group is C_2h.


Analysis of constrained symmetry for selective dynamics:
=====================================================================
 Subroutine PRICEL returns:
 Original cell was already a primitive cell.
 

 Routine SETGRP: Setting up the symmetry group for a 
 simple orthorhombic supercell.


 Subroutine GETGRP returns: Found  4 space group operations
 (whereof  1 operations were pure point group operations)
 out of a pool of  8 trial point group operations.


The constrained configuration has the point symmetry C_1 .
 The point group associated with its full space group is C_2h.


 Subroutine INISYM returns: Found  4 space group operations
 (whereof  1 operations are pure point group operations),
 and found     1 'primitive' translations

 
 
 KPOINTS: k-density: 8.0                          

Automatic generation of k-mesh.
Space group operators:
 irot       det(A)        alpha          n_x          n_y          n_z        tau_x        tau_y        tau_z
    1     1.000000     0.000000     1.000000     0.000000     0.000000     0.000000     0.000000     0.000000
    2    -1.000000     0.000000     1.000000     0.000000     0.000000    -0.606011     0.000000     0.000000
    3     1.000000   180.000000     0.000000     1.000000     0.000000    -0.606011     0.500000     0.000000
    4    -1.000000   180.000000     0.000000     1.000000     0.000000     0.000000     0.500000     0.000000
 
 Subroutine IBZKPT returns following result:
 ===========================================
 
 Found     15 irreducible k-points:
 
 Following reciprocal coordinates:
            Coordinates               Weight
  0.000000  0.000000  0.000000      1.000000
  0.000000  0.125000  0.000000      2.000000
  0.000000  0.250000  0.000000      2.000000
  0.000000  0.375000  0.000000      2.000000
  0.000000  0.500000  0.000000      1.000000
  0.000000  0.000000  0.200000      2.000000
  0.000000  0.125000  0.200000      4.000000
  0.000000  0.250000  0.200000      4.000000
  0.000000  0.375000  0.200000      4.000000
  0.000000  0.500000  0.200000      2.000000
  0.000000  0.000000  0.400000      2.000000
  0.000000  0.125000  0.400000      4.000000
  0.000000  0.250000  0.400000      4.000000
  0.000000  0.375000  0.400000      4.000000
  0.000000  0.500000  0.400000      2.000000
 
 Following cartesian coordinates:
            Coordinates               Weight
  0.000000  0.000000  0.000000      1.000000
  0.000000  0.018442  0.000000      2.000000
  0.000000  0.036885  0.000000      2.000000
  0.000000  0.055327  0.000000      2.000000
  0.000000  0.073770  0.000000      1.000000
  0.000000  0.000000  0.017238      2.000000
  0.000000  0.018442  0.017238      4.000000
  0.000000  0.036885  0.017238      4.000000
  0.000000  0.055327  0.017238      4.000000
  0.000000  0.073770  0.017238      2.000000
  0.000000  0.000000  0.034476      2.000000
  0.000000  0.018442  0.034476      4.000000
  0.000000  0.036885  0.034476      4.000000
  0.000000  0.055327  0.034476      4.000000
  0.000000  0.073770  0.034476      2.000000
 
 TETIRR: Found    108 inequivalent tetrahedra from      240


--------------------------------------------------------------------------------------------------------




 Dimension of arrays:
   k-points           NKPTS =     15   k-points in BZ     NKDIM =     15   number of bands    NBANDS=     88
   number of dos      NEDOS =    301   number of ions     NIONS =     24
   non local maximal  LDIM  =      6   non local SUM 2l+1 LMDIM =     18
   total plane-waves  NPLWV = 358400
   max r-space proj   IRMAX =   3093   max aug-charges    IRDMAX=  12081
   dimension x,y,z NGX =   140 NGY =   40 NGZ =   64
   dimension x,y,z NGXF=   280 NGYF=   80 NGZF=  128
   support grid    NGXF=   280 NGYF=   80 NGZF=  128
   ions per type =               8  16
   NGX,Y,Z   is equivalent  to a cutoff of   9.69,  9.81,  9.17 a.u.
   NGXF,Y,Z  is equivalent  to a cutoff of  19.39, 19.62, 18.34 a.u.

 SYSTEM =  unknown system                          
 POSCAR =  ba8 si16                                

 Startparameter for this run:
   NWRITE =      2    write-flag & timer
   PREC   = normal    normal or accurate (medium, high low for compatibility)
   ISTART =      0    job   : 0-new  1-cont  2-samecut
   ICHARG =      2    charge: 1-file 2-atom 10-const
   ISPIN  =      1    spin polarized calculation?
   LNONCOLLINEAR =      F non collinear calculations
   LSORBIT =      F    spin-orbit coupling
   INIWAV =      1    electr: 0-lowe 1-rand  2-diag
   LASPH  =      F    aspherical Exc in radial PAW
   METAGGA=      F    non-selfconsistent MetaGGA calc.

 Electronic Relaxation 1
   ENCUT  =  500.0 eV  36.75 Ry    6.06 a.u.  43.77 12.36 21.15*2*pi/ulx,y,z
   ENINI  =  500.0     initial cutoff
   ENAUG  =  351.2 eV  augmentation charge cutoff
   NELM   =    100;   NELMIN=  2; NELMDL= -5     # of ELM steps 
   EDIFF  = 0.1E-05   stopping-criterion for ELM
   LREAL  =      T    real-space projection
   NLSPLINE    = F    spline interpolate recip. space projectors
   LCOMPAT=      F    compatible to vasp.4.4
   GGA_COMPAT  = T    GGA compatible to vasp.4.4-vasp.4.6
   LMAXPAW     = -100 max onsite density
   LMAXMIX     =    2 max onsite mixed and CHGCAR
   VOSKOWN=      0    Vosko Wilk Nusair interpolation
   ROPT   =   -0.00050  -0.00050
 Ionic relaxation
   EDIFFG = -.1E-02   stopping-criterion for IOM
   NSW    =      0    number of steps for IOM
   NBLOCK =      1;   KBLOCK =      1    inner block; outer block 
   IBRION =     -1    ionic relax: 0-MD 1-quasi-New 2-CG
   NFREE  =      0    steps in history (QN), initial steepest desc. (CG)
   ISIF   =      2    stress and relaxation
   IWAVPR =     10    prediction:  0-non 1-charg 2-wave 3-comb
   ISYM   =      2    0-nonsym 1-usesym 2-fastsym
   LCORR  =      T    Harris-Foulkes like correction to forces

   POTIM  = 0.3000    time-step for ionic-motion
   TEIN   =    0.0    initial temperature
   TEBEG  =    0.0;   TEEND  =   0.0 temperature during run
   SMASS  =  -3.00    Nose mass-parameter (am)
   estimated Nose-frequenzy (Omega)   =  0.10E-29 period in steps =****** mass=  -0.132E-25a.u.
   SCALEE = 1.0000    scale energy and forces
   NPACO  =    256;   APACO  = 16.0  distance and # of slots for P.C.
   PSTRESS=    0.0 pullay stress

  Mass of Ions in am
   POMASS = 137.33 28.09
  Ionic Valenz
   ZVAL   =  10.00  4.00
  Atomic Wigner-Seitz radii
   RWIGS  =  -1.00 -1.00
  virtual crystal weights 
   VCA    =   1.00  1.00
   NELECT =     144.0000    total number of electrons
   NUPDOWN=      -1.0000    fix difference up-down

 DOS related values:
   EMIN   =  10.00;   EMAX   =-10.00  energy-range for DOS
   EFERMI =   0.00
   ISMEAR =    -5;   SIGMA  =   0.01  broadening in eV -4-tet -1-fermi 0-gaus

 Electronic relaxation 2 (details)
   IALGO  =     38    algorithm
   LDIAG  =      T    sub-space diagonalisation (order eigenvalues)
   LSUBROT=      F    optimize rotation matrix (better conditioning)
   TURBO    =      0    0=normal 1=particle mesh
   IRESTART =      0    0=no restart 2=restart with 2 vectors
   NREBOOT  =      0    no. of reboots
   NMIN     =      0    reboot dimension
   EREF     =   0.00    reference energy to select bands
   IMIX   =      4    mixing-type and parameters
     AMIX     =   0.40;   BMIX     =  1.00
     AMIX_MAG =   1.60;   BMIX_MAG =  1.00
     AMIN     =   0.10
     WC   =   100.;   INIMIX=   1;  MIXPRE=   1;  MAXMIX= -45

 Intra band minimization:
   WEIMIN = 0.0000     energy-eigenvalue tresh-hold
   EBREAK =  0.28E-08  absolut break condition
   DEPER  =   0.30     relativ break condition  

   TIME   =   0.40     timestep for ELM

  volume/ion in A,a.u.               =      78.67       530.88
  Fermi-wavevector in a.u.,A,eV,Ry     =   0.694264  1.311969  6.558046  0.482003
  Thomas-Fermi vector in A             =   1.776709
 
 Write flags
   LWAVE        =      T    write WAVECAR
   LDOWNSAMPLE  =      F    k-point downsampling of WAVECAR
   LCHARG       =      T    write CHGCAR
   LVTOT        =      F    write LOCPOT, total local potential
   LVHAR        =      F    write LOCPOT, Hartree potential only
   LELF         =      F    write electronic localiz. function (ELF)
   LORBIT       =      0    0 simple, 1 ext, 2 COOP (PROOUT), +10 PAW based schemes


 Dipole corrections
   LMONO  =      F    monopole corrections only (constant potential shift)
   LDIPOL =      F    correct potential (dipole corrections)
   IDIPOL =      0    1-x, 2-y, 3-z, 4-all directions 
   EPSILON=  1.0000000 bulk dielectric constant

 Exchange correlation treatment:
   GGA     =    --    GGA type
   LEXCH   =     2    internal setting for exchange type
   VOSKOWN=      0    Vosko Wilk Nusair interpolation
   LHFCALC =     F    Hartree Fock is set to
   LHFONE  =     F    Hartree Fock one center treatment
   AEXX    =    0.0000 exact exchange contribution

 Linear response parameters
   LEPSILON=     F    determine dielectric tensor
   LRPA    =     F    only Hartree local field effects (RPA)
   LNABLA  =     F    use nabla operator in PAW spheres
   LVEL    =     F    velocity operator in full k-point grid
   LINTERFAST=   F  fast interpolation
   KINTER  =     0    interpolate to denser k-point grid
   CSHIFT  =0.1000    complex shift for real part using Kramers Kronig
   OMEGAMAX=  -1.0    maximum frequency
   DEG_THRESHOLD= 0.2000000E-02 threshold for treating states as degnerate
   RTIME   =   -0.100 relaxation time in fs
  (WPLASMAI=    0.000 imaginary part of plasma frequency in eV, 0.658/RTIME)
   DFIELD  = 0.0000000 0.0000000 0.0000000 field for delta impulse in time
 
 Orbital magnetization related:
   ORBITALMAG=     F  switch on orbital magnetization
   LCHIMAG   =     F  perturbation theory with respect to B field
   DQ        =  0.001000  dq finite difference perturbation B field
   LLRAUG    =     F  two centre corrections for induced B field



--------------------------------------------------------------------------------------------------------


 Static calculation
 charge density and potential will be updated during run
 non-spin polarized calculation
 Variant of blocked Davidson
 Davidson routine will perform the subspace rotation
 perform sub-space diagonalisation
    after iterative eigenvector-optimisation
 modified Broyden-mixing scheme, WC =      100.0
 initial mixing is a Kerker type mixing with AMIX =  0.4000 and BMIX =      1.0000
 Hartree-type preconditioning will be used
 using additional bands           16
 real space projection scheme for non local part
 use partial core corrections
 calculate Harris-corrections to forces 
   (improved forces if not selfconsistent)
 use of overlap-Matrix (Vanderbilt PP)
 Fermi weights with tetrahedron method with Bloechl corrections


--------------------------------------------------------------------------------------------------------


  energy-cutoff  :      500.00
  volume of cell :     1888.05
      direct lattice vectors                 reciprocal lattice vectors
    24.009468079  0.000000000  0.000000000     0.041650236  0.000000000  0.000000000
     0.000000000  6.777849674  0.000000000     0.000000000  0.147539419  0.000000000
     0.000000000  0.000000000 11.602143288     0.000000000  0.000000000  0.086190971

  length of vectors
    24.009468079  6.777849674 11.602143288     0.041650236  0.147539419  0.086190971


 
 k-points in units of 2pi/SCALE and weight: k-density: 8.0                          
   0.00000000  0.00000000  0.00000000       0.025
   0.00000000  0.01844243  0.00000000       0.050
   0.00000000  0.03688485  0.00000000       0.050
   0.00000000  0.05532728  0.00000000       0.050
   0.00000000  0.07376971  0.00000000       0.025
   0.00000000  0.00000000  0.01723819       0.050
   0.00000000  0.01844243  0.01723819       0.100
   0.00000000  0.03688485  0.01723819       0.100
   0.00000000  0.05532728  0.01723819       0.100
   0.00000000  0.07376971  0.01723819       0.050
   0.00000000  0.00000000  0.03447639       0.050
   0.00000000  0.01844243  0.03447639       0.100
   0.00000000  0.03688485  0.03447639       0.100
   0.00000000  0.05532728  0.03447639       0.100
   0.00000000  0.07376971  0.03447639       0.050
 
 k-points in reciprocal lattice and weights: k-density: 8.0                          
   0.00000000  0.00000000  0.00000000       0.025
   0.00000000  0.12500000  0.00000000       0.050
   0.00000000  0.25000000  0.00000000       0.050
   0.00000000  0.37500000  0.00000000       0.050
   0.00000000  0.50000000  0.00000000       0.025
   0.00000000  0.00000000  0.20000000       0.050
   0.00000000  0.12500000  0.20000000       0.100
   0.00000000  0.25000000  0.20000000       0.100
   0.00000000  0.37500000  0.20000000       0.100
   0.00000000  0.50000000  0.20000000       0.050
   0.00000000  0.00000000  0.40000000       0.050
   0.00000000  0.12500000  0.40000000       0.100
   0.00000000  0.25000000  0.40000000       0.100
   0.00000000  0.37500000  0.40000000       0.100
   0.00000000  0.50000000  0.40000000       0.050
 
 position of ions in fractional coordinates (direct lattice) 
   0.00569361  0.25000000  0.70559264
   0.38829546  0.75000002  0.29440736
   0.18192962  0.75000002  0.18277398
   0.21205945  0.25000000  0.81722600
   0.05978014  0.75000002  0.91379399
   0.33420893  0.25000000  0.08620599
   0.12784309  0.25000000  0.39115685
   0.26614598  0.75000002  0.60884319
   0.07289913  0.07390429  0.13830967
   0.32108994  0.92609570  0.86169031
   0.11472410  0.92800325  0.66326697
   0.27926497  0.07199674  0.33673303
   0.32108994  0.57390430  0.86169031
   0.07289913  0.42609570  0.13830967
   0.27926497  0.42800325  0.33673303
   0.11472410  0.57199675  0.66326697
   0.03110981  0.75000002  0.60631049
   0.36287926  0.25000000  0.39368951
   0.15651343  0.25000000  0.07745386
   0.23747566  0.75000002  0.92254612
   0.07418398  0.25000000  0.95753945
   0.31980509  0.75000002  0.04246057
   0.11343925  0.75000002  0.48207104
   0.28054982  0.25000000  0.51792888
 
 position of ions in cartesian coordinates  (Angst):
   0.13670066  1.69446242  8.18638693
   9.32276745  5.08338737  3.41575636
   4.36803341  5.08338737  2.12056989
   5.09143467  1.69446242  9.48157316
   1.43528938  5.08338737 10.60196882
   8.02417870  1.69446242  1.00017423
   3.06944466  1.69446242  4.53825786
   6.39002342  5.08338737  7.06388591
   1.75026941  0.50091218  1.60468860
   7.70919867  6.27693743  9.99745445
   2.75446463  6.28986651  7.69531846
   6.70500345  0.48798311  3.90682483
   7.70919867  3.88983708  9.99745445
   1.75026941  2.88801260  1.60468860
   6.70500345  2.90094167  3.90682483
   2.75446463  3.87690800  7.69531846
   0.74692994  5.08338737  7.03450118
   8.71253796  1.69446242  4.56764210
   3.75780416  1.69446242  0.89863078
   5.70166416  5.08338737 10.70351226
   1.78111780  1.69446242 11.10950987
   7.67835016  5.08338737  0.49263359
   2.72361612  5.08338737  5.59305722
   6.73585196  1.69446242  6.00908511
 


--------------------------------------------------------------------------------------------------------


 k-point  1 :   0.0000 0.0000 0.0000  plane waves:   47989
 k-point  2 :   0.0000 0.1250 0.0000  plane waves:   47929
 k-point  3 :   0.0000 0.2500 0.0000  plane waves:   47901
 k-point  4 :   0.0000 0.3750 0.0000  plane waves:   47910
 k-point  5 :   0.0000 0.5000 0.0000  plane waves:   47868
 k-point  6 :   0.0000 0.0000 0.2000  plane waves:   48006
 k-point  7 :   0.0000 0.1250 0.2000  plane waves:   47967
 k-point  8 :   0.0000 0.2500 0.2000  plane waves:   47907
 k-point  9 :   0.0000 0.3750 0.2000  plane waves:   47884
 k-point 10 :   0.0000 0.5000 0.2000  plane waves:   47884
 k-point 11 :   0.0000 0.0000 0.4000  plane waves:   47922
 k-point 12 :   0.0000 0.1250 0.4000  plane waves:   47954
 k-point 13 :   0.0000 0.2500 0.4000  plane waves:   47967
 k-point 14 :   0.0000 0.3750 0.4000  plane waves:   47928
 k-point 15 :   0.0000 0.5000 0.4000  plane waves:   47890

 maximum and minimum number of plane-waves per node :     12077    11868

 maximum number of plane-waves:     48006
 maximum index in each direction: 
   IXMAX=   43   IYMAX=   12   IZMAX=   21
   IXMIN=  -43   IYMIN=  -12   IZMIN=  -21


 real space projection operators:
  total allocation   :       4543.55 KBytes
  max/ min on nodes  :       1141.69       1130.91


 parallel 3D FFT for wavefunctions:
    minimum data exchange during FFTs selected (reduces bandwidth)
 parallel 3D FFT for charge:
    minimum data exchange during FFTs selected (reduces bandwidth)


 total amount of memory used by VASP MPI-rank0    79351. kBytes
=======================================================================

   base      :      30000. kBytes
   nonlr-proj:       2645. kBytes
   fftplans  :       5898. kBytes
   grid      :       8824. kBytes
   one-center:         93. kBytes
   wavefun   :      31891. kBytes
 
     INWAV:  cpu time    0.0000: real time    0.0000
 Broyden mixing: mesh for mixing (old mesh)
   NGX = 87   NGY = 25   NGZ = 43
  (NGX  =280   NGY  = 80   NGZ  =128)
  gives a total of  93525 points

 initial charge density was supplied:
 charge density of overlapping atoms calculated
 number of electron     144.0000000 magnetization 
 keeping initial charge density in first step


--------------------------------------------------------------------------------------------------------


 Maximum index for non-local projection operator          742
 Maximum index for augmentation-charges          601 (set IRDMAX)


--------------------------------------------------------------------------------------------------------


 First call to EWALD:  gamma=   0.143
 Maximum number of real-space cells 2x 5x 3
 Maximum number of reciprocal cells 5x 2x 3

    FEWALD:  cpu time    0.0049: real time    0.0049


--------------------------------------- Iteration      1(   1)  ---------------------------------------


    POTLOK:  cpu time    0.0242: real time    0.0430
    SETDIJ:  cpu time    0.0051: real time    0.0054
     EDDAV:  cpu time    2.6621: real time    2.6824
 BZINTS: Fermi energy:  6.900842;144.000000 electrons
         Band energy:-495.161456;  BLOECHL correction: -0.033120
       DOS:  cpu time    0.0120: real time    0.0120
    --------------------------------------------
      LOOP:  cpu time    2.7034: real time    2.7428

 eigenvalue-minimisations  :  2776
 total energy-change (2. order) : 0.1158446E+04  (-0.4796190E+04)
 number of electron     144.0000000 magnetization 
 augmentation part      144.0000000 magnetization 

 Free energy of the ion-electron system (eV)
  ---------------------------------------------------
  alpha Z        PSCENC =       166.34077906
  Ewald energy   TEWEN  =     11179.93280405
  -Hartree energ DENC   =    -17313.74347501
  -exchange      EXHF   =         0.00000000
  -V(xc)+E(xc)   XCENC  =        45.76410466
  PAW double counting   =      3711.26622449    -3423.01674647
  entropy T*S    EENTRO =         0.00000000
  eigenvalues    EBANDS =      -495.16145572
  atomic energy  EATOM  =      7287.06411261
  Solvation  Ediel_sol  =         0.00000000
  ---------------------------------------------------
  free energy    TOTEN  =      1158.44634767 eV

  energy without entropy =     1158.44634767  energy(sigma->0) =     1158.44634767


--------------------------------------------------------------------------------------------------------




--------------------------------------- Iteration      1(   2)  ---------------------------------------


     EDDAV:  cpu time    3.4858: real time    3.5053
 BZINTS: Fermi energy: -1.924619;144.000000 electrons
         Band energy:***********;  BLOECHL correction:  0.000000
       DOS:  cpu time    0.0034: real time    0.0034
    --------------------------------------------
      LOOP:  cpu time    3.4891: real time    3.5087

 eigenvalue-minimisations  :  3768
 total energy-change (2. order) :-0.1110561E+04  (-0.1081925E+04)
 number of electron     144.0000000 magnetization 
 augmentation part      144.0000000 magnetization 

 Free energy of the ion-electron system (eV)
  ---------------------------------------------------
  alpha Z        PSCENC =       166.34077906
  Ewald energy   TEWEN  =     11179.93280405
  -Hartree energ DENC   =    -17313.74347501
  -exchange      EXHF   =         0.00000000
  -V(xc)+E(xc)   XCENC  =        45.76410466
  PAW double counting   =      3711.26622449    -3423.01674647
  entropy T*S    EENTRO =         0.00000000
  eigenvalues    EBANDS =     -1605.72250568
  atomic energy  EATOM  =      7287.06411261
  Solvation  Ediel_sol  =         0.00000000
  ---------------------------------------------------
  free energy    TOTEN  =        47.88529771 eV

  energy without entropy =       47.88529771  energy(sigma->0) =       47.88529771


--------------------------------------------------------------------------------------------------------




--------------------------------------- Iteration      1(   3)  ---------------------------------------


     EDDAV:  cpu time    2.9614: real time    2.9808
 BZINTS: Fermi energy: -3.396658;144.000000 electrons
         Band energy:***********;  BLOECHL correction:  0.000000
       DOS:  cpu time    0.0023: real time    0.0023
    --------------------------------------------
      LOOP:  cpu time    2.9637: real time    2.9831

 eigenvalue-minimisations  :  3224
 total energy-change (2. order) :-0.1662083E+03  (-0.1655060E+03)
 number of electron     144.0000000 magnetization 
 augmentation part      144.0000000 magnetization 

 Free energy of the ion-electron system (eV)
  ---------------------------------------------------
  alpha Z        PSCENC =       166.34077906
  Ewald energy   TEWEN  =     11179.93280405
  -Hartree energ DENC   =    -17313.74347501
  -exchange      EXHF   =         0.00000000
  -V(xc)+E(xc)   XCENC  =        45.76410466
  PAW double counting   =      3711.26622449    -3423.01674647
  entropy T*S    EENTRO =         0.00000000
  eigenvalues    EBANDS =     -1771.93085474
  atomic energy  EATOM  =      7287.06411261
  Solvation  Ediel_sol  =         0.00000000
  ---------------------------------------------------
  free energy    TOTEN  =      -118.32305135 eV

  energy without entropy =     -118.32305135  energy(sigma->0) =     -118.32305135


--------------------------------------------------------------------------------------------------------




--------------------------------------- Iteration      1(   4)  ---------------------------------------


     EDDAV:  cpu time    3.5012: real time    3.5211
 BZINTS: Fermi energy: -3.462987;144.000000 electrons
         Band energy:***********;  BLOECHL correction:  0.000000
       DOS:  cpu time    0.0024: real time    0.0024
    --------------------------------------------
      LOOP:  cpu time    3.5036: real time    3.5235

 eigenvalue-minimisations  :  3784
 total energy-change (2. order) :-0.6149465E+01  (-0.6130979E+01)
 number of electron     144.0000000 magnetization 
 augmentation part      144.0000000 magnetization 

 Free energy of the ion-electron system (eV)
  ---------------------------------------------------
  alpha Z        PSCENC =       166.34077906
  Ewald energy   TEWEN  =     11179.93280405
  -Hartree energ DENC   =    -17313.74347501
  -exchange      EXHF   =         0.00000000
  -V(xc)+E(xc)   XCENC  =        45.76410466
  PAW double counting   =      3711.26622449    -3423.01674647
  entropy T*S    EENTRO =         0.00000000
  eigenvalues    EBANDS =     -1778.08031981
  atomic energy  EATOM  =      7287.06411261
  Solvation  Ediel_sol  =         0.00000000
  ---------------------------------------------------
  free energy    TOTEN  =      -124.47251642 eV

  energy without entropy =     -124.47251642  energy(sigma->0) =     -124.47251642


--------------------------------------------------------------------------------------------------------




--------------------------------------- Iteration      1(   5)  ---------------------------------------


     EDDAV:  cpu time    3.7372: real time    3.7585
 BZINTS: Fermi energy: -3.425197;144.000000 electrons
         Band energy:***********;  BLOECHL correction:  0.000000
       DOS:  cpu time    0.0022: real time    0.0022
    CHARGE:  cpu time    0.1596: real time    0.1600
    MIXING:  cpu time    0.0057: real time    0.0059
    --------------------------------------------
      LOOP:  cpu time    3.9048: real time    3.9267

 eigenvalue-minimisations  :  4192
 total energy-change (2. order) :-0.3193222E+00  (-0.3192192E+00)
 number of electron     144.0000009 magnetization 
 augmentation part      -16.8539981 magnetization 

 Broyden mixing:
  rms(total) = 0.96144E+00    rms(broyden)= 0.96143E+00
  rms(prec ) = 0.12327E+01
  weight for this iteration     100.00

 Free energy of the ion-electron system (eV)
  ---------------------------------------------------
  alpha Z        PSCENC =       166.34077906
  Ewald energy   TEWEN  =     11179.93280405
  -Hartree energ DENC   =    -17313.74347501
  -exchange      EXHF   =         0.00000000
  -V(xc)+E(xc)   XCENC  =        45.76410466
  PAW double counting   =      3711.26622449    -3423.01674647
  entropy T*S    EENTRO =         0.00000000
  eigenvalues    EBANDS =     -1778.39964197
  atomic energy  EATOM  =      7287.06411261
  Solvation  Ediel_sol  =         0.00000000
  ---------------------------------------------------
  free energy    TOTEN  =      -124.79183858 eV

  energy without entropy =     -124.79183858  energy(sigma->0) =     -124.79183858


--------------------------------------------------------------------------------------------------------




--------------------------------------- Iteration      1(   6)  ---------------------------------------


    POTLOK:  cpu time    0.0202: real time    0.0319
    SETDIJ:  cpu time    0.0018: real time    0.0018
     EDDAV:  cpu time    2.9106: real time    2.9175
 BZINTS: Fermi energy: -2.350853;144.000000 electrons
         Band energy:***********;  BLOECHL correction:  0.000000
       DOS:  cpu time    0.0021: real time    0.0021
    CHARGE:  cpu time    0.1568: real time    0.1572
    MIXING:  cpu time    0.0060: real time    0.0061
    --------------------------------------------
      LOOP:  cpu time    3.0976: real time    3.1165

 eigenvalue-minimisations  :  3000
 total energy-change (2. order) : 0.8996786E+01  (-0.2312802E+01)
 number of electron     144.0000008 magnetization 
 augmentation part      -16.7245028 magnetization 

 Broyden mixing:
  rms(total) = 0.47406E+00    rms(broyden)= 0.47406E+00
  rms(prec ) = 0.58710E+00
  weight for this iteration     100.00

 eigenvalues of (default mixing * dielectric matrix)
  average eigenvalue GAMMA=   1.5213
  1.5213

 Free energy of the ion-electron system (eV)
  ---------------------------------------------------
  alpha Z        PSCENC =       166.34077906
  Ewald energy   TEWEN  =     11179.93280405
  -Hartree energ DENC   =    -17402.44027833
  -exchange      EXHF   =         0.00000000
  -V(xc)+E(xc)   XCENC  =        48.44633639
  PAW double counting   =      3742.68011528    -3462.24940994
  entropy T*S    EENTRO =         0.00000000
  eigenvalues    EBANDS =     -1675.56951136
  atomic energy  EATOM  =      7287.06411261
  Solvation  Ediel_sol  =         0.00000000
  ---------------------------------------------------
  free energy    TOTEN  =      -115.79505224 eV

  energy without entropy =     -115.79505224  energy(sigma->0) =     -115.79505224


--------------------------------------------------------------------------------------------------------




--------------------------------------- Iteration      1(   7)  ---------------------------------------


    POTLOK:  cpu time    0.0236: real time    0.0375
    SETDIJ:  cpu time    0.0016: real time    0.0016
     EDDAV:  cpu time    3.0200: real time    3.0271
 BZINTS: Fermi energy: -1.601634;144.000000 electrons
         Band energy:***********;  BLOECHL correction:  0.000000
       DOS:  cpu time    0.0022: real time    0.0022
    CHARGE:  cpu time    0.1600: real time    0.1604
    MIXING:  cpu time    0.0078: real time    0.0082
    --------------------------------------------
      LOOP:  cpu time    3.2152: real time    3.2370

 eigenvalue-minimisations  :  3480
 total energy-change (2. order) : 0.1322314E+01  (-0.1033805E+01)
 number of electron     144.0000007 magnetization 
 augmentation part      -16.8512606 magnetization 

 Broyden mixing:
  rms(total) = 0.24140E+00    rms(broyden)= 0.24140E+00
  rms(prec ) = 0.29168E+00
  weight for this iteration     100.00

 eigenvalues of (default mixing * dielectric matrix)
  average eigenvalue GAMMA=   1.7762
  1.7762  1.7762

 Free energy of the ion-electron system (eV)
  ---------------------------------------------------
  alpha Z        PSCENC =       166.34077906
  Ewald energy   TEWEN  =     11179.93280405
  -Hartree energ DENC   =    -17474.05685208
  -exchange      EXHF   =         0.00000000
  -V(xc)+E(xc)   XCENC  =        50.56789689
  PAW double counting   =      3783.73578392    -3509.52676041
  entropy T*S    EENTRO =         0.00000000
  eigenvalues    EBANDS =     -1598.53050225
  atomic energy  EATOM  =      7287.06411261
  Solvation  Ediel_sol  =         0.00000000
  ---------------------------------------------------
  free energy    TOTEN  =      -114.47273821 eV

  energy without entropy =     -114.47273821  energy(sigma->0) =     -114.47273821


--------------------------------------------------------------------------------------------------------




--------------------------------------- Iteration      1(   8)  ---------------------------------------


    POTLOK:  cpu time    0.0350: real time    0.0449
    SETDIJ:  cpu time    0.0016: real time    0.0016
     EDDAV:  cpu time    2.8511: real time    2.8580
 BZINTS: Fermi energy: -1.433506;144.000000 electrons
         Band energy:***********;  BLOECHL correction:  0.000000
       DOS:  cpu time    0.0023: real time    0.0023
    CHARGE:  cpu time    0.1589: real time    0.1593
    MIXING:  cpu time    0.0075: real time    0.0078
    --------------------------------------------
      LOOP:  cpu time    3.0564: real time    3.0738

 eigenvalue-minimisations  :  3104
 total energy-change (2. order) : 0.2821038E+00  (-0.3688072E+00)
 number of electron     144.0000008 magnetization 
 augmentation part      -17.0195433 magnetization 

 Broyden mixing:
  rms(total) = 0.11713E+00    rms(broyden)= 0.11713E+00
  rms(prec ) = 0.18762E+00
  weight for this iteration     100.00

 eigenvalues of (default mixing * dielectric matrix)
  average eigenvalue GAMMA=   1.6350
  2.5057  1.1996  1.1996

 Free energy of the ion-electron system (eV)
  ---------------------------------------------------
  alpha Z        PSCENC =       166.34077906
  Ewald energy   TEWEN  =     11179.93280405
  -Hartree energ DENC   =    -17505.71980068
  -exchange      EXHF   =         0.00000000
  -V(xc)+E(xc)   XCENC  =        51.44544684
  PAW double counting   =      3830.22683114    -3557.98936745
  entropy T*S    EENTRO =         0.00000000
  eigenvalues    EBANDS =     -1565.49143994
  atomic energy  EATOM  =      7287.06411261
  Solvation  Ediel_sol  =         0.00000000
  ---------------------------------------------------
  free energy    TOTEN  =      -114.19063438 eV

  energy without entropy =     -114.19063438  energy(sigma->0) =     -114.19063438


--------------------------------------------------------------------------------------------------------




--------------------------------------- Iteration      1(   9)  ---------------------------------------


    POTLOK:  cpu time    0.0366: real time    0.0467
    SETDIJ:  cpu time    0.0017: real time    0.0017
     EDDAV:  cpu time    2.9491: real time    2.9560
 BZINTS: Fermi energy: -1.095467;144.000000 electrons
         Band energy:***********;  BLOECHL correction:  0.000000
       DOS:  cpu time    0.0020: real time    0.0020
    CHARGE:  cpu time    0.1464: real time    0.1467
    MIXING:  cpu time    0.0050: real time    0.0051
    --------------------------------------------
      LOOP:  cpu time    3.1407: real time    3.1582

 eigenvalue-minimisations  :  3112
 total energy-change (2. order) : 0.2842827E+00  (-0.1105888E+00)
 number of electron     144.0000008 magnetization 
 augmentation part      -17.0086947 magnetization 

 Broyden mixing:
  rms(total) = 0.54611E-01    rms(broyden)= 0.54611E-01
  rms(prec ) = 0.80545E-01
  weight for this iteration     100.00

 eigenvalues of (default mixing * dielectric matrix)
  average eigenvalue GAMMA=   1.3860
  2.3778  1.1878  1.1878  0.7908

 Free energy of the ion-electron system (eV)
  ---------------------------------------------------
  alpha Z        PSCENC =       166.34077906
  Ewald energy   TEWEN  =     11179.93280405
  -Hartree energ DENC   =    -17543.97080559
  -exchange      EXHF   =         0.00000000
  -V(xc)+E(xc)   XCENC  =        52.30705129
  PAW double counting   =      3841.33965263    -3570.53529422
  entropy T*S    EENTRO =         0.00000000
  eigenvalues    EBANDS =     -1526.38465151
  atomic energy  EATOM  =      7287.06411261
  Solvation  Ediel_sol  =         0.00000000
  ---------------------------------------------------
  free energy    TOTEN  =      -113.90635168 eV

  energy without entropy =     -113.90635168  energy(sigma->0) =     -113.90635168


--------------------------------------------------------------------------------------------------------




--------------------------------------- Iteration      1(  10)  ---------------------------------------


    POTLOK:  cpu time    0.0186: real time    0.0309
    SETDIJ:  cpu time    0.0017: real time    0.0017
     EDDAV:  cpu time    3.1844: real time    3.1920
 BZINTS: Fermi energy: -1.052242;144.000000 electrons
         Band energy:***********;  BLOECHL correction:  0.000000
       DOS:  cpu time    0.0023: real time    0.0023
    CHARGE:  cpu time    0.1485: real time    0.1489
    MIXING:  cpu time    0.0056: real time    0.0057
    --------------------------------------------
      LOOP:  cpu time    3.3612: real time    3.3815

 eigenvalue-minimisations  :  3656
 total energy-change (2. order) :-0.3339793E-02  (-0.2482826E-01)
 number of electron     144.0000008 magnetization 
 augmentation part      -17.0519700 magnetization 

 Broyden mixing:
  rms(total) = 0.41887E-01    rms(broyden)= 0.41887E-01
  rms(prec ) = 0.62562E-01
  weight for this iteration     100.00

 eigenvalues of (default mixing * dielectric matrix)
  average eigenvalue GAMMA=   1.6056
  2.5165  2.5165  0.9709  0.9709  1.0533

 Free energy of the ion-electron system (eV)
  ---------------------------------------------------
  alpha Z        PSCENC =       166.34077906
  Ewald energy   TEWEN  =     11179.93280405
  -Hartree energ DENC   =    -17554.83853759
  -exchange      EXHF   =         0.00000000
  -V(xc)+E(xc)   XCENC  =        52.32152531
  PAW double counting   =      3836.93910075    -3565.77833052
  entropy T*S    EENTRO =         0.00000000
  eigenvalues    EBANDS =     -1515.89114514
  atomic energy  EATOM  =      7287.06411261
  Solvation  Ediel_sol  =         0.00000000
  ---------------------------------------------------
  free energy    TOTEN  =      -113.90969148 eV

  energy without entropy =     -113.90969148  energy(sigma->0) =     -113.90969148


--------------------------------------------------------------------------------------------------------




--------------------------------------- Iteration      1(  11)  ---------------------------------------


    POTLOK:  cpu time    0.0180: real time    0.0296
    SETDIJ:  cpu time    0.0021: real time    0.0021
     EDDAV:  cpu time    3.1342: real time    3.1416
 BZINTS: Fermi energy: -0.919802;144.000000 electrons
         Band energy:***********;  BLOECHL correction:  0.000000
       DOS:  cpu time    0.0020: real time    0.0020
    CHARGE:  cpu time    0.1633: real time    0.1637
    MIXING:  cpu time    0.0056: real time    0.0057
    --------------------------------------------
      LOOP:  cpu time    3.3251: real time    3.3447

 eigenvalue-minimisations  :  3256
 total energy-change (2. order) : 0.1875570E-01  (-0.5804610E-02)
 number of electron     144.0000008 magnetization 
 augmentation part      -17.0639829 magnetization 

 Broyden mixing:
  rms(total) = 0.14527E-01    rms(broyden)= 0.14527E-01
  rms(prec ) = 0.31105E-01
  weight for this iteration     100.00

 eigenvalues of (default mixing * dielectric matrix)
  average eigenvalue GAMMA=   1.6025
  2.8200  2.7846  1.0585  1.0585  0.9466  0.9466

 Free energy of the ion-electron system (eV)
  ---------------------------------------------------
  alpha Z        PSCENC =       166.34077906
  Ewald energy   TEWEN  =     11179.93280405
  -Hartree energ DENC   =    -17575.84495916
  -exchange      EXHF   =         0.00000000
  -V(xc)+E(xc)   XCENC  =        52.49219065
  PAW double counting   =      3838.36658858    -3566.80902227
  entropy T*S    EENTRO =         0.00000000
  eigenvalues    EBANDS =     -1495.43342929
  atomic energy  EATOM  =      7287.06411261
  Solvation  Ediel_sol  =         0.00000000
  ---------------------------------------------------
  free energy    TOTEN  =      -113.89093578 eV

  energy without entropy =     -113.89093578  energy(sigma->0) =     -113.89093578


--------------------------------------------------------------------------------------------------------




--------------------------------------- Iteration      1(  12)  ---------------------------------------


    POTLOK:  cpu time    0.0248: real time    0.0372
    SETDIJ:  cpu time    0.0019: real time    0.0019
     EDDAV:  cpu time    3.0836: real time    3.0909
 BZINTS: Fermi energy: -0.844018;144.000000 electrons
         Band energy:***********;  BLOECHL correction:  0.000000
       DOS:  cpu time    0.0019: real time    0.0019
    CHARGE:  cpu time    0.1532: real time    0.1535
    MIXING:  cpu time    0.0052: real time    0.0053
    --------------------------------------------
      LOOP:  cpu time    3.2706: real time    3.2908

 eigenvalue-minimisations  :  3256
 total energy-change (2. order) : 0.1455385E-03  (-0.1235858E-02)
 number of electron     144.0000008 magnetization 
 augmentation part      -17.0595225 magnetization 

 Broyden mixing:
  rms(total) = 0.12469E-01    rms(broyden)= 0.12469E-01
  rms(prec ) = 0.21310E-01
  weight for this iteration     100.00

 eigenvalues of (default mixing * dielectric matrix)
  average eigenvalue GAMMA=   1.7205
  3.7694  2.1262  2.1262  1.1157  1.1157  0.8952  0.8952

 Free energy of the ion-electron system (eV)
  ---------------------------------------------------
  alpha Z        PSCENC =       166.34077906
  Ewald energy   TEWEN  =     11179.93280405
  -Hartree energ DENC   =    -17588.27590166
  -exchange      EXHF   =         0.00000000
  -V(xc)+E(xc)   XCENC  =        52.57273868
  PAW double counting   =      3837.64889693    -3565.99037971
  entropy T*S    EENTRO =         0.00000000
  eigenvalues    EBANDS =     -1483.18384018
  atomic energy  EATOM  =      7287.06411261
  Solvation  Ediel_sol  =         0.00000000
  ---------------------------------------------------
  free energy    TOTEN  =      -113.89079024 eV

  energy without entropy =     -113.89079024  energy(sigma->0) =     -113.89079024


--------------------------------------------------------------------------------------------------------




--------------------------------------- Iteration      1(  13)  ---------------------------------------


    POTLOK:  cpu time    0.0186: real time    0.0301
    SETDIJ:  cpu time    0.0015: real time    0.0015
     EDDAV:  cpu time    3.1176: real time    3.1250
 BZINTS: Fermi energy: -0.690820;144.000000 electrons
         Band energy:***********;  BLOECHL correction:  0.000000
       DOS:  cpu time    0.0023: real time    0.0024
    CHARGE:  cpu time    0.1481: real time    0.1485
    MIXING:  cpu time    0.0054: real time    0.0055
    --------------------------------------------
      LOOP:  cpu time    3.2937: real time    3.3130

 eigenvalue-minimisations  :  3304
 total energy-change (2. order) :-0.6384051E-02  (-0.1060580E-02)
 number of electron     144.0000008 magnetization 
 augmentation part      -17.0599166 magnetization 

 Broyden mixing:
  rms(total) = 0.71583E-02    rms(broyden)= 0.71583E-02
  rms(prec ) = 0.12265E-01
  weight for this iteration     100.00

 eigenvalues of (default mixing * dielectric matrix)
  average eigenvalue GAMMA=   1.8166
  4.3944  2.5439  2.5439  1.2004  1.2004  0.8824  0.8835  0.8835

 Free energy of the ion-electron system (eV)
  ---------------------------------------------------
  alpha Z        PSCENC =       166.34077906
  Ewald energy   TEWEN  =     11179.93280405
  -Hartree energ DENC   =    -17599.58573807
  -exchange      EXHF   =         0.00000000
  -V(xc)+E(xc)   XCENC  =        52.65761178
  PAW double counting   =      3836.68105678    -3565.16774569
  entropy T*S    EENTRO =         0.00000000
  eigenvalues    EBANDS =     -1471.82005481
  atomic energy  EATOM  =      7287.06411261
  Solvation  Ediel_sol  =         0.00000000
  ---------------------------------------------------
  free energy    TOTEN  =      -113.89717429 eV

  energy without entropy =     -113.89717429  energy(sigma->0) =     -113.89717429


--------------------------------------------------------------------------------------------------------




--------------------------------------- Iteration      1(  14)  ---------------------------------------


    POTLOK:  cpu time    0.0187: real time    0.0298
    SETDIJ:  cpu time    0.0029: real time    0.0029
     EDDAV:  cpu time    2.7632: real time    2.7698
 BZINTS: Fermi energy: -0.666143;144.000000 electrons
         Band energy:***********;  BLOECHL correction:  0.000000
       DOS:  cpu time    0.0025: real time    0.0025
    CHARGE:  cpu time    0.1565: real time    0.1569
    MIXING:  cpu time    0.0081: real time    0.0082
    --------------------------------------------
      LOOP:  cpu time    2.9519: real time    2.9700

 eigenvalue-minimisations  :  3096
 total energy-change (2. order) :-0.4404397E-02  (-0.2411405E-03)
 number of electron     144.0000008 magnetization 
 augmentation part      -17.0600053 magnetization 

 Broyden mixing:
  rms(total) = 0.51863E-02    rms(broyden)= 0.51863E-02
  rms(prec ) = 0.84047E-02
  weight for this iteration     100.00

 eigenvalues of (default mixing * dielectric matrix)
  average eigenvalue GAMMA=   1.8450
  4.8404  2.8069  2.2534  1.3768  1.3768  0.9061  0.9061  1.0692  1.0692

 Free energy of the ion-electron system (eV)
  ---------------------------------------------------
  alpha Z        PSCENC =       166.34077906
  Ewald energy   TEWEN  =     11179.93280405
  -Hartree energ DENC   =    -17603.45470858
  -exchange      EXHF   =         0.00000000
  -V(xc)+E(xc)   XCENC  =        52.65707719
  PAW double counting   =      3835.45196789    -3563.91230672
  entropy T*S    EENTRO =         0.00000000
  eigenvalues    EBANDS =     -1467.98130418
  atomic energy  EATOM  =      7287.06411261
  Solvation  Ediel_sol  =         0.00000000
  ---------------------------------------------------
  free energy    TOTEN  =      -113.90157869 eV

  energy without entropy =     -113.90157869  energy(sigma->0) =     -113.90157869


--------------------------------------------------------------------------------------------------------




--------------------------------------- Iteration      1(  15)  ---------------------------------------


    POTLOK:  cpu time    0.0395: real time    0.0505
    SETDIJ:  cpu time    0.0030: real time    0.0030
     EDDAV:  cpu time    2.8834: real time    2.8902
 BZINTS: Fermi energy: -0.651986;144.000000 electrons
         Band energy:***********;  BLOECHL correction:  0.000000
       DOS:  cpu time    0.0023: real time    0.0023
    CHARGE:  cpu time    0.1601: real time    0.1604
    MIXING:  cpu time    0.0098: real time    0.0099
    --------------------------------------------
      LOOP:  cpu time    3.0980: real time    3.1163

 eigenvalue-minimisations  :  3144
 total energy-change (2. order) :-0.1691929E-02  (-0.1617560E-03)
 number of electron     144.0000008 magnetization 
 augmentation part      -17.0613736 magnetization 

 Broyden mixing:
  rms(total) = 0.22556E-02    rms(broyden)= 0.22556E-02
  rms(prec ) = 0.42818E-02
  weight for this iteration     100.00

 eigenvalues of (default mixing * dielectric matrix)
  average eigenvalue GAMMA=   1.9354
  5.5999  3.4189  2.3515  0.9018  0.9018  1.4356  1.3228  1.3228  1.1194  0.9797

 Free energy of the ion-electron system (eV)
  ---------------------------------------------------
  alpha Z        PSCENC =       166.34077906
  Ewald energy   TEWEN  =     11179.93280405
  -Hartree energ DENC   =    -17605.29212417
  -exchange      EXHF   =         0.00000000
  -V(xc)+E(xc)   XCENC  =        52.65200799
  PAW double counting   =      3835.63921156    -3564.06250822
  entropy T*S    EENTRO =         0.00000000
  eigenvalues    EBANDS =     -1466.17755350
  atomic energy  EATOM  =      7287.06411261
  Solvation  Ediel_sol  =         0.00000000
  ---------------------------------------------------
  free energy    TOTEN  =      -113.90327062 eV

  energy without entropy =     -113.90327062  energy(sigma->0) =     -113.90327062


--------------------------------------------------------------------------------------------------------




--------------------------------------- Iteration      1(  16)  ---------------------------------------


    POTLOK:  cpu time    0.0375: real time    0.0486
    SETDIJ:  cpu time    0.0021: real time    0.0021
     EDDAV:  cpu time    2.9443: real time    2.9513
 BZINTS: Fermi energy: -0.642846;144.000000 electrons
         Band energy:***********;  BLOECHL correction:  0.000000
       DOS:  cpu time    0.0023: real time    0.0023
    CHARGE:  cpu time    0.1458: real time    0.1461
    MIXING:  cpu time    0.0059: real time    0.0060
    --------------------------------------------
      LOOP:  cpu time    3.1378: real time    3.1563

 eigenvalue-minimisations  :  3152
 total energy-change (2. order) :-0.1242888E-02  (-0.6410489E-04)
 number of electron     144.0000008 magnetization 
 augmentation part      -17.0609366 magnetization 

 Broyden mixing:
  rms(total) = 0.14936E-02    rms(broyden)= 0.14936E-02
  rms(prec ) = 0.28181E-02
  weight for this iteration     100.00

 eigenvalues of (default mixing * dielectric matrix)
  average eigenvalue GAMMA=   1.9823
  5.7226  4.0086  2.1405  2.1405  0.9053  0.9053  1.4673  1.2610  1.2610  0.9964
  0.9964

 Free energy of the ion-electron system (eV)
  ---------------------------------------------------
  alpha Z        PSCENC =       166.34077906
  Ewald energy   TEWEN  =     11179.93280405
  -Hartree energ DENC   =    -17606.54244737
  -exchange      EXHF   =         0.00000000
  -V(xc)+E(xc)   XCENC  =        52.65024941
  PAW double counting   =      3835.64165114    -3564.07438377
  entropy T*S    EENTRO =         0.00000000
  eigenvalues    EBANDS =     -1464.91727862
  atomic energy  EATOM  =      7287.06411261
  Solvation  Ediel_sol  =         0.00000000
  ---------------------------------------------------
  free energy    TOTEN  =      -113.90451351 eV

  energy without entropy =     -113.90451351  energy(sigma->0) =     -113.90451351


--------------------------------------------------------------------------------------------------------




--------------------------------------- Iteration      1(  17)  ---------------------------------------


    POTLOK:  cpu time    0.0236: real time    0.0380
    SETDIJ:  cpu time    0.0016: real time    0.0016
     EDDAV:  cpu time    2.6856: real time    2.6920
 BZINTS: Fermi energy: -0.637799;144.000000 electrons
         Band energy:***********;  BLOECHL correction:  0.000000
       DOS:  cpu time    0.0023: real time    0.0023
    CHARGE:  cpu time    0.1447: real time    0.1450
    MIXING:  cpu time    0.0066: real time    0.0066
    --------------------------------------------
      LOOP:  cpu time    2.8644: real time    2.8855

 eigenvalue-minimisations  :  2912
 total energy-change (2. order) :-0.7817443E-03  (-0.3378595E-04)
 number of electron     144.0000008 magnetization 
 augmentation part      -17.0610405 magnetization 

 Broyden mixing:
  rms(total) = 0.95964E-03    rms(broyden)= 0.95964E-03
  rms(prec ) = 0.18451E-02
  weight for this iteration     100.00

 eigenvalues of (default mixing * dielectric matrix)
  average eigenvalue GAMMA=   2.0631
  6.1730  4.5202  2.5882  2.3332  1.6468  0.9039  0.9039  1.2686  1.2686  0.9753
  1.0880  1.0880

 Free energy of the ion-electron system (eV)
  ---------------------------------------------------
  alpha Z        PSCENC =       166.34077906
  Ewald energy   TEWEN  =     11179.93280405
  -Hartree energ DENC   =    -17607.24944582
  -exchange      EXHF   =         0.00000000
  -V(xc)+E(xc)   XCENC  =        52.64938540
  PAW double counting   =      3835.68102705    -3564.10983352
  entropy T*S    EENTRO =         0.00000000
  eigenvalues    EBANDS =     -1464.21412407
  atomic energy  EATOM  =      7287.06411261
  Solvation  Ediel_sol  =         0.00000000
  ---------------------------------------------------
  free energy    TOTEN  =      -113.90529525 eV

  energy without entropy =     -113.90529525  energy(sigma->0) =     -113.90529525


--------------------------------------------------------------------------------------------------------




--------------------------------------- Iteration      1(  18)  ---------------------------------------


    POTLOK:  cpu time    0.0188: real time    0.0324
    SETDIJ:  cpu time    0.0018: real time    0.0018
     EDDAV:  cpu time    2.8777: real time    2.8845
 BZINTS: Fermi energy: -0.634534;144.000000 electrons
         Band energy:***********;  BLOECHL correction:  0.000000
       DOS:  cpu time    0.0022: real time    0.0022
    CHARGE:  cpu time    0.1538: real time    0.1542
    MIXING:  cpu time    0.0057: real time    0.0057
    --------------------------------------------
      LOOP:  cpu time    3.0601: real time    3.0810

 eigenvalue-minimisations  :  3000
 total energy-change (2. order) :-0.1002846E-02  (-0.2084557E-04)
 number of electron     144.0000008 magnetization 
 augmentation part      -17.0611678 magnetization 

 Broyden mixing:
  rms(total) = 0.57976E-03    rms(broyden)= 0.57976E-03
  rms(prec ) = 0.98821E-03
  weight for this iteration     100.00

 eigenvalues of (default mixing * dielectric matrix)
  average eigenvalue GAMMA=   2.1374
  5.9482  5.7787  2.9111  2.4547  1.8792  0.9035  0.9035  1.3548  1.3548  1.1866
  1.1866  0.9622  0.9622

 Free energy of the ion-electron system (eV)
  ---------------------------------------------------
  alpha Z        PSCENC =       166.34077906
  Ewald energy   TEWEN  =     11179.93280405
  -Hartree energ DENC   =    -17607.93812628
  -exchange      EXHF   =         0.00000000
  -V(xc)+E(xc)   XCENC  =        52.65041216
  PAW double counting   =      3835.65962526    -3564.08824199
  entropy T*S    EENTRO =         0.00000000
  eigenvalues    EBANDS =     -1463.52766296
  atomic energy  EATOM  =      7287.06411261
  Solvation  Ediel_sol  =         0.00000000
  ---------------------------------------------------
  free energy    TOTEN  =      -113.90629810 eV

  energy without entropy =     -113.90629810  energy(sigma->0) =     -113.90629810


--------------------------------------------------------------------------------------------------------




--------------------------------------- Iteration      1(  19)  ---------------------------------------


    POTLOK:  cpu time    0.0204: real time    0.0319
    SETDIJ:  cpu time    0.0019: real time    0.0019
     EDDAV:  cpu time    2.6192: real time    2.6254
 BZINTS: Fermi energy: -0.634455;144.000000 electrons
         Band energy:***********;  BLOECHL correction:  0.000000
       DOS:  cpu time    0.0023: real time    0.0023
    CHARGE:  cpu time    0.1522: real time    0.1525
    MIXING:  cpu time    0.0068: real time    0.0069
    --------------------------------------------
      LOOP:  cpu time    2.8028: real time    2.8209

 eigenvalue-minimisations  :  2672
 total energy-change (2. order) :-0.7407691E-03  (-0.1099424E-04)
 number of electron     144.0000008 magnetization 
 augmentation part      -17.0613926 magnetization 

 Broyden mixing:
  rms(total) = 0.42966E-03    rms(broyden)= 0.42966E-03
  rms(prec ) = 0.62329E-03
  weight for this iteration     100.00

 eigenvalues of (default mixing * dielectric matrix)
  average eigenvalue GAMMA=   2.2502
  6.4898  6.4898  3.3159  2.5760  2.3154  1.5474  1.5474  0.9035  0.9035  1.2174
  1.2174  0.9947  0.9947  0.9904

 Free energy of the ion-electron system (eV)
  ---------------------------------------------------
  alpha Z        PSCENC =       166.34077906
  Ewald energy   TEWEN  =     11179.93280405
  -Hartree energ DENC   =    -17608.12551767
  -exchange      EXHF   =         0.00000000
  -V(xc)+E(xc)   XCENC  =        52.64936141
  PAW double counting   =      3835.64565204    -3564.07408595
  entropy T*S    EENTRO =         0.00000000
  eigenvalues    EBANDS =     -1463.34014440
  atomic energy  EATOM  =      7287.06411261
  Solvation  Ediel_sol  =         0.00000000
  ---------------------------------------------------
  free energy    TOTEN  =      -113.90703887 eV

  energy without entropy =     -113.90703887  energy(sigma->0) =     -113.90703887


--------------------------------------------------------------------------------------------------------




--------------------------------------- Iteration      1(  20)  ---------------------------------------


    POTLOK:  cpu time    0.0200: real time    0.0324
    SETDIJ:  cpu time    0.0017: real time    0.0017
     EDDAV:  cpu time    2.6562: real time    2.6624
 BZINTS: Fermi energy: -0.634550;144.000000 electrons
         Band energy:***********;  BLOECHL correction:  0.000000
       DOS:  cpu time    0.0023: real time    0.0023
    CHARGE:  cpu time    0.1564: real time    0.1568
    MIXING:  cpu time    0.0074: real time    0.0074
    --------------------------------------------
      LOOP:  cpu time    2.8439: real time    2.8631

 eigenvalue-minimisations  :  2728
 total energy-change (2. order) :-0.3929367E-03  (-0.6150427E-05)
 number of electron     144.0000008 magnetization 
 augmentation part      -17.0614842 magnetization 

 Broyden mixing:
  rms(total) = 0.15678E-03    rms(broyden)= 0.15678E-03
  rms(prec ) = 0.21041E-03
  weight for this iteration     100.00

 eigenvalues of (default mixing * dielectric matrix)
  average eigenvalue GAMMA=   2.3234
  7.4620  6.8737  3.6904  2.7619  2.3103  1.6605  1.6605  0.9036  0.9036  1.2223
  1.2223  1.1296  1.1296  0.9603  0.9603

 Free energy of the ion-electron system (eV)
  ---------------------------------------------------
  alpha Z        PSCENC =       166.34077906
  Ewald energy   TEWEN  =     11179.93280405
  -Hartree energ DENC   =    -17608.21569875
  -exchange      EXHF   =         0.00000000
  -V(xc)+E(xc)   XCENC  =        52.64905155
  PAW double counting   =      3835.65616104    -3564.08390361
  entropy T*S    EENTRO =         0.00000000
  eigenvalues    EBANDS =     -1463.25073774
  atomic energy  EATOM  =      7287.06411261
  Solvation  Ediel_sol  =         0.00000000
  ---------------------------------------------------
  free energy    TOTEN  =      -113.90743180 eV

  energy without entropy =     -113.90743180  energy(sigma->0) =     -113.90743180


--------------------------------------------------------------------------------------------------------




--------------------------------------- Iteration      1(  21)  ---------------------------------------


    POTLOK:  cpu time    0.0189: real time    0.0300
    SETDIJ:  cpu time    0.0015: real time    0.0015
     EDDAV:  cpu time    2.4509: real time    2.4567
 BZINTS: Fermi energy: -0.635053;144.000000 electrons
         Band energy:***********;  BLOECHL correction:  0.000000
       DOS:  cpu time    0.0023: real time    0.0023
    CHARGE:  cpu time    0.1547: real time    0.1551
    MIXING:  cpu time    0.0061: real time    0.0061
    --------------------------------------------
      LOOP:  cpu time    2.6345: real time    2.6518

 eigenvalue-minimisations  :  2512
 total energy-change (2. order) :-0.1053034E-03  (-0.1210820E-05)
 number of electron     144.0000008 magnetization 
 augmentation part      -17.0614236 magnetization 

 Broyden mixing:
  rms(total) = 0.91240E-04    rms(broyden)= 0.91240E-04
  rms(prec ) = 0.11441E-03
  weight for this iteration     100.00

 eigenvalues of (default mixing * dielectric matrix)
  average eigenvalue GAMMA=   2.3891
  8.6865  6.8540  3.9465  2.9670  2.3605  1.8697  1.8697  0.9035  0.9035  1.2374
  1.2374  1.2567  1.2131  0.9654  0.9654  0.9894

 Free energy of the ion-electron system (eV)
  ---------------------------------------------------
  alpha Z        PSCENC =       166.34077906
  Ewald energy   TEWEN  =     11179.93280405
  -Hartree energ DENC   =    -17608.22951034
  -exchange      EXHF   =         0.00000000
  -V(xc)+E(xc)   XCENC  =        52.64882892
  PAW double counting   =      3835.64358143    -3564.07106321
  entropy T*S    EENTRO =         0.00000000
  eigenvalues    EBANDS =     -1463.23706962
  atomic energy  EATOM  =      7287.06411261
  Solvation  Ediel_sol  =         0.00000000
  ---------------------------------------------------
  free energy    TOTEN  =      -113.90753711 eV

  energy without entropy =     -113.90753711  energy(sigma->0) =     -113.90753711


--------------------------------------------------------------------------------------------------------




--------------------------------------- Iteration      1(  22)  ---------------------------------------


    POTLOK:  cpu time    0.0193: real time    0.0309
    SETDIJ:  cpu time    0.0019: real time    0.0019
     EDDAV:  cpu time    2.3409: real time    2.3465
 BZINTS: Fermi energy: -0.635622;144.000000 electrons
         Band energy:***********;  BLOECHL correction:  0.000000
       DOS:  cpu time    0.0023: real time    0.0023
    CHARGE:  cpu time    0.1585: real time    0.1589
    MIXING:  cpu time    0.0067: real time    0.0067
    --------------------------------------------
      LOOP:  cpu time    2.5295: real time    2.5472

 eigenvalue-minimisations  :  2312
 total energy-change (2. order) :-0.3584355E-04  (-0.3394625E-06)
 number of electron     144.0000008 magnetization 
 augmentation part      -17.0614125 magnetization 

 Broyden mixing:
  rms(total) = 0.45957E-04    rms(broyden)= 0.45957E-04
  rms(prec ) = 0.60732E-04
  weight for this iteration     100.00

 eigenvalues of (default mixing * dielectric matrix)
  average eigenvalue GAMMA=   2.3687
  8.8431  6.9733  4.0743  3.0732  2.4594  1.9088  1.9088  0.9035  0.9035  1.3607
  1.3607  1.2413  1.2413  1.1059  0.9586  0.9586  0.9928

 Free energy of the ion-electron system (eV)
  ---------------------------------------------------
  alpha Z        PSCENC =       166.34077906
  Ewald energy   TEWEN  =     11179.93280405
  -Hartree energ DENC   =    -17608.21348351
  -exchange      EXHF   =         0.00000000
  -V(xc)+E(xc)   XCENC  =        52.64848650
  PAW double counting   =      3835.63056418    -3564.05813809
  entropy T*S    EENTRO =         0.00000000
  eigenvalues    EBANDS =     -1463.25269774
  atomic energy  EATOM  =      7287.06411261
  Solvation  Ediel_sol  =         0.00000000
  ---------------------------------------------------
  free energy    TOTEN  =      -113.90757295 eV

  energy without entropy =     -113.90757295  energy(sigma->0) =     -113.90757295


--------------------------------------------------------------------------------------------------------




--------------------------------------- Iteration      1(  23)  ---------------------------------------


    POTLOK:  cpu time    0.0185: real time    0.0309
    SETDIJ:  cpu time    0.0016: real time    0.0016
     EDDAV:  cpu time    1.9743: real time    1.9790
 BZINTS: Fermi energy: -0.635936;144.000000 electrons
         Band energy:***********;  BLOECHL correction:  0.000000
       DOS:  cpu time    0.0023: real time    0.0023
    CHARGE:  cpu time    0.1565: real time    0.1569
    MIXING:  cpu time    0.0118: real time    0.0119
    --------------------------------------------
      LOOP:  cpu time    2.1651: real time    2.1825

 eigenvalue-minimisations  :  2000
 total energy-change (2. order) :-0.8672971E-05  (-0.5731651E-07)
 number of electron     144.0000008 magnetization 
 augmentation part      -17.0614115 magnetization 

 Broyden mixing:
  rms(total) = 0.25302E-04    rms(broyden)= 0.25302E-04
  rms(prec ) = 0.34473E-04
  weight for this iteration     100.00

 eigenvalues of (default mixing * dielectric matrix)
  average eigenvalue GAMMA=   2.3921
  8.9734  7.0470  4.2007  3.3417  2.6229  2.2666  1.9174  1.9174  0.9035  0.9035
  1.2377  1.2377  1.2657  1.2657  1.0595  0.9674  0.9674  0.9635

 Free energy of the ion-electron system (eV)
  ---------------------------------------------------
  alpha Z        PSCENC =       166.34077906
  Ewald energy   TEWEN  =     11179.93280405
  -Hartree energ DENC   =    -17608.21925221
  -exchange      EXHF   =         0.00000000
  -V(xc)+E(xc)   XCENC  =        52.64854770
  PAW double counting   =      3835.62907616    -3564.05670582
  entropy T*S    EENTRO =         0.00000000
  eigenvalues    EBANDS =     -1463.24694316
  atomic energy  EATOM  =      7287.06411261
  Solvation  Ediel_sol  =         0.00000000
  ---------------------------------------------------
  free energy    TOTEN  =      -113.90758162 eV

  energy without entropy =     -113.90758162  energy(sigma->0) =     -113.90758162


--------------------------------------------------------------------------------------------------------




--------------------------------------- Iteration      1(  24)  ---------------------------------------


    POTLOK:  cpu time    0.0206: real time    0.0311
    SETDIJ:  cpu time    0.0017: real time    0.0017
     EDDAV:  cpu time    1.9754: real time    1.9801
 BZINTS: Fermi energy: -0.636260;144.000000 electrons
         Band energy:***********;  BLOECHL correction:  0.000000
       DOS:  cpu time    0.0025: real time    0.0025
    CHARGE:  cpu time    0.1390: real time    0.1393
    MIXING:  cpu time    0.0077: real time    0.0077
    --------------------------------------------
      LOOP:  cpu time    2.1469: real time    2.1625

 eigenvalue-minimisations  :  1872
 total energy-change (2. order) :-0.3046303E-05  (-0.3760006E-07)
 number of electron     144.0000008 magnetization 
 augmentation part      -17.0614121 magnetization 

 Broyden mixing:
  rms(total) = 0.85697E-05    rms(broyden)= 0.85697E-05
  rms(prec ) = 0.13277E-04
  weight for this iteration     100.00

 eigenvalues of (default mixing * dielectric matrix)
  average eigenvalue GAMMA=   2.3679
  9.0350  7.0465  4.2805  3.5595  2.6673  2.5388  1.8830  1.8830  0.9035  0.9035
  1.3868  1.3868  1.2362  1.2362  1.1600  0.9587  0.9587  0.9834  0.9834

 Free energy of the ion-electron system (eV)
  ---------------------------------------------------
  alpha Z        PSCENC =       166.34077906
  Ewald energy   TEWEN  =     11179.93280405
  -Hartree energ DENC   =    -17608.21660293
  -exchange      EXHF   =         0.00000000
  -V(xc)+E(xc)   XCENC  =        52.64850831
  PAW double counting   =      3835.62944677    -3564.05712055
  entropy T*S    EENTRO =         0.00000000
  eigenvalues    EBANDS =     -1463.24951197
  atomic energy  EATOM  =      7287.06411261
  Solvation  Ediel_sol  =         0.00000000
  ---------------------------------------------------
  free energy    TOTEN  =      -113.90758467 eV

  energy without entropy =     -113.90758467  energy(sigma->0) =     -113.90758467


--------------------------------------------------------------------------------------------------------




--------------------------------------- Iteration      1(  25)  ---------------------------------------


    POTLOK:  cpu time    0.0233: real time    0.0353
    SETDIJ:  cpu time    0.0016: real time    0.0016
     EDDAV:  cpu time    1.9993: real time    2.0041
 BZINTS: Fermi energy: -0.636563;144.000000 electrons
         Band energy:***********;  BLOECHL correction:  0.000000
       DOS:  cpu time    0.0023: real time    0.0023
    --------------------------------------------
      LOOP:  cpu time    2.0264: real time    2.0432

 eigenvalue-minimisations  :  1920
 total energy-change (2. order) :-0.6381360E-06  (-0.1261005E-07)
 number of electron     144.0000008 magnetization 
 augmentation part      -17.0614121 magnetization 

 Free energy of the ion-electron system (eV)
  ---------------------------------------------------
  alpha Z        PSCENC =       166.34077906
  Ewald energy   TEWEN  =     11179.93280405
  -Hartree energ DENC   =    -17608.21513775
  -exchange      EXHF   =         0.00000000
  -V(xc)+E(xc)   XCENC  =        52.64847766
  PAW double counting   =      3835.62969791    -3564.05736260
  entropy T*S    EENTRO =         0.00000000
  eigenvalues    EBANDS =     -1463.25095624
  atomic energy  EATOM  =      7287.06411261
  Solvation  Ediel_sol  =         0.00000000
  ---------------------------------------------------
  free energy    TOTEN  =      -113.90758531 eV

[...]
      7     -28.2581      2.00000
      8     -28.2577      2.00000
      9     -14.9437      2.00000
     10     -14.9436      2.00000
     11     -14.8848      2.00000
     12     -14.8848      2.00000
     13     -14.8142      2.00000
     14     -14.8142      2.00000
     15     -14.1389      2.00000
     16     -14.1327      2.00000
     17     -14.0893      2.00000
     18     -14.0883      2.00000
     19     -14.0468      2.00000
     20     -14.0457      2.00000
     21     -14.0397      2.00000
     22     -14.0316      2.00000
     23     -13.9119      2.00000
     24     -13.9110      2.00000
     25     -13.9058      2.00000
     26     -13.9044      2.00000
     27     -13.5473      2.00000
     28     -13.5391      2.00000
     29     -13.4938      2.00000
     30     -13.4861      2.00000
     31     -13.4723      2.00000
     32     -13.4701      2.00000
     33     -11.1685      2.00000
     34     -11.1609      2.00000
     35     -10.9033      2.00000
     36     -10.8907      2.00000
     37      -6.5259      2.00000
     38      -6.5165      2.00000
     39      -6.3223      2.00000
     40      -6.2742      2.00000
     41      -6.2332      2.00000
     42      -6.1986      2.00000
     43      -6.0192      2.00000
     44      -6.0054      2.00000
     45      -5.9697      2.00000
     46      -5.9323      2.00000
     47      -5.9216      2.00000
     48      -5.8230      2.00000
     49      -2.9069      2.00000
     50      -2.8231      2.00000
     51      -2.6912      2.00000
     52      -2.6512      2.00000
     53      -2.2994      2.00000
     54      -2.2646      2.00000
     55      -2.2515      2.00000
     56      -2.1951      2.00000
     57      -2.1014      2.00000
     58      -2.0771      2.00000
     59      -1.9149      2.00000
     60      -1.8591      2.00000
     61      -1.7927      2.00000
     62      -1.7183      2.00000
     63      -1.6041      2.00000
     64      -1.5759      2.00000
     65      -1.4530      2.00000
     66      -1.3973      2.00000
     67      -1.3002      2.00000
     68      -1.1626      2.00000
     69      -1.0973      2.00000
     70      -1.0457      2.00000
     71      -0.9610      2.00000
     72      -0.9093      2.00000
     73       0.2126      0.00000
     74       0.2456      0.00000
     75       0.3591      0.00000
     76       0.4053      0.00000
     77       0.4843      0.00000
     78       0.5567      0.00000
     79       0.7015      0.00000
     80       0.7305      0.00000
     81       0.7907      0.00000
     82       0.8695      0.00000
     83       1.0615      0.00000
     84       1.1346      0.00000
     85       1.2123      0.00000
     86       1.3171      0.00000
     87       1.4207      0.00000
     88       1.5235      0.00000

 k-point    15 :       0.0000    0.5000    0.4000
  band No.  band energies     occupation 
      1     -29.6677      2.00000
      2     -29.6677      2.00000
      3     -28.8595      2.00000
      4     -28.8595      2.00000
      5     -28.6759      2.00000
      6     -28.6759      2.00000
      7     -28.2579      2.00000
      8     -28.2579      2.00000
      9     -14.9431      2.00000
     10     -14.9431      2.00000
     11     -14.8857      2.00000
     12     -14.8857      2.00000
     13     -14.8165      2.00000
     14     -14.8165      2.00000
     15     -14.1371      2.00000
     16     -14.1371      2.00000
     17     -14.0907      2.00000
     18     -14.0907      2.00000
     19     -14.0440      2.00000
     20     -14.0440      2.00000
     21     -14.0375      2.00000
     22     -14.0375      2.00000
     23     -13.9121      2.00000
     24     -13.9121      2.00000
     25     -13.9068      2.00000
     26     -13.9067      2.00000
     27     -13.5428      2.00000
     28     -13.5428      2.00000
     29     -13.4905      2.00000
     30     -13.4905      2.00000
     31     -13.4703      2.00000
     32     -13.4703      2.00000
     33     -11.1593      2.00000
     34     -11.1593      2.00000
     35     -10.8874      2.00000
     36     -10.8874      2.00000
     37      -6.5497      2.00000
     38      -6.5497      2.00000
     39      -6.2833      2.00000
     40      -6.2833      2.00000
     41      -6.2117      2.00000
     42      -6.2117      2.00000
     43      -5.9868      2.00000
     44      -5.9868      2.00000
     45      -5.9553      2.00000
     46      -5.9553      2.00000
     47      -5.8704      2.00000
     48      -5.8704      2.00000
     49      -2.8133      2.00000
     50      -2.8133      2.00000
     51      -2.6904      2.00000
     52      -2.6904      2.00000
     53      -2.2917      2.00000
     54      -2.2917      2.00000
     55      -2.2213      2.00000
     56      -2.2213      2.00000
     57      -2.1035      2.00000
     58      -2.1035      2.00000
     59      -1.8175      2.00000
     60      -1.8175      2.00000
     61      -1.6868      2.00000
     62      -1.6868      2.00000
     63      -1.6299      2.00000
     64      -1.6299      2.00000
     65      -1.4370      2.00000
     66      -1.4370      2.00000
     67      -1.2396      2.00000
     68      -1.2396      2.00000
     69      -1.0838      2.00000
     70      -1.0838      2.00000
     71      -0.9399      2.00000
     72      -0.9398      2.00000
     73       0.1349      0.00000
     74       0.1350      0.00000
     75       0.3479      0.00000
     76       0.3479      0.00000
     77       0.5387      0.00000
     78       0.5387      0.00000
     79       0.6589      0.00000
     80       0.6589      0.00000
     81       0.7434      0.00000
     82       0.7434      0.00000
     83       1.0968      0.00000
     84       1.0968      0.00000
     85       1.3039      0.00000
     86       1.3040      0.00000
     87       1.4019      0.00000
     88       1.4019      0.00000


--------------------------------------------------------------------------------------------------------


 soft charge-density along one line, spin component           1
         0         1         2         3         4         5         6         7         8         9
 total charge-density along one line
 
 pseudopotential strength for first ion, spin component:           1
  3.725  -5.731  -0.000  -0.009  -0.039  -0.000  -0.004  -0.018
 -5.731  -3.004   0.000   0.002   0.009  -0.000  -0.002  -0.007
 -0.000   0.000  -7.161  -0.000  -0.000   1.854  -0.000  -0.000
 -0.009   0.002  -0.000  -7.156  -0.001  -0.000   1.866  -0.004
 -0.039   0.009  -0.000  -0.001  -7.156  -0.000  -0.004   1.865
 -0.000  -0.000   1.854  -0.000  -0.000   7.202  -0.000  -0.000
 -0.004  -0.002  -0.000   1.866  -0.004  -0.000   7.204  -0.000
 -0.018  -0.007  -0.000  -0.004   1.865  -0.000  -0.000   7.204
 -0.000   0.000  -0.013  -0.000  -0.000  -0.010  -0.000  -0.000
 -0.000   0.000  -0.002  -0.000  -0.000  -0.001  -0.000  -0.000
  0.002  -0.001   0.000  -0.004   0.007   0.000  -0.003   0.006
 -0.002   0.001  -0.000  -0.013  -0.003  -0.000  -0.009  -0.002
  0.003  -0.001   0.000  -0.001  -0.013   0.000  -0.001  -0.009
  0.000   0.000   0.001   0.000   0.000   0.000   0.000   0.000
  0.000   0.000   0.000   0.000   0.000  -0.000   0.000   0.000
 -0.000  -0.000  -0.000   0.000  -0.000  -0.000   0.000  -0.000
  0.000   0.000   0.000   0.001   0.000   0.000   0.000   0.000
 -0.000  -0.000  -0.000   0.000   0.001  -0.000   0.000   0.000
 total augmentation occupancy for first ion, spin component:           1
  2.117  -0.284   0.000   0.014   0.054   0.000  -0.006  -0.019  -0.000   0.000   0.015  -0.014   0.037   0.000   0.000  -0.007
 -0.284   0.655   0.000  -0.035  -0.136  -0.000   0.014   0.034   0.000   0.000  -0.024   0.019  -0.071   0.000   0.000   0.033
  0.000   0.000   2.012   0.000   0.000  -0.012  -0.000   0.000  -0.082   0.019   0.000   0.000   0.000   0.060  -0.040   0.000
  0.014  -0.035   0.000   1.999   0.003   0.000  -0.003  -0.002   0.000   0.000  -0.044  -0.069  -0.014  -0.000   0.000   0.037
  0.054  -0.136   0.000   0.003   1.994   0.000  -0.002  -0.000   0.000   0.000   0.033  -0.008  -0.052  -0.000   0.000  -0.022
  0.000   0.000  -0.012   0.000   0.000   0.008   0.000  -0.000   0.022  -0.008   0.000   0.000   0.000  -0.030   0.013   0.000
 -0.006   0.014   0.000  -0.003  -0.002  -0.000   0.005   0.001  -0.000   0.000   0.016   0.017   0.005   0.000   0.000  -0.023
 -0.019   0.034   0.000  -0.002  -0.000  -0.000   0.001   0.004   0.000   0.000  -0.006   0.001   0.009   0.000   0.000   0.008
 -0.000   0.000  -0.082   0.000   0.000   0.022   0.000   0.000   0.148  -0.010   0.000   0.000   0.000  -0.187   0.015   0.000
 -0.000  -0.000   0.019   0.000   0.000  -0.008   0.000   0.000  -0.010   0.070   0.000   0.000   0.000   0.013  -0.087   0.000
  0.015  -0.024   0.000  -0.044   0.033  -0.000   0.016  -0.006   0.000   0.000   0.123   0.053   0.023   0.000   0.000  -0.154
 -0.014   0.019  -0.000  -0.069  -0.008  -0.000   0.017   0.001   0.000  -0.000   0.053   0.091   0.009   0.000   0.000  -0.074
  0.037  -0.071  -0.000  -0.014  -0.052   0.000   0.005   0.009  -0.000   0.000   0.023   0.009   0.099   0.000  -0.000  -0.031
  0.000   0.000   0.060   0.000  -0.000  -0.030   0.000   0.000  -0.187   0.013   0.000   0.000   0.000   0.264  -0.027   0.000
  0.000   0.000  -0.040  -0.000   0.000   0.013   0.000   0.000   0.015  -0.087   0.000   0.000   0.000  -0.027   0.118   0.000
 -0.007   0.033   0.000   0.037  -0.022   0.000  -0.023   0.008   0.000   0.000  -0.154  -0.074  -0.031   0.000   0.000   0.213
  0.009  -0.041  -0.000   0.048  -0.003   0.000  -0.024  -0.002   0.000   0.000  -0.072  -0.116  -0.013  -0.000   0.000   0.110
 -0.029   0.088   0.000   0.020   0.034   0.000  -0.008  -0.012   0.000  -0.000  -0.032  -0.015  -0.131   0.000   0.000   0.051


------------------------ aborting loop because EDIFF is reached ----------------------------------------


    CHARGE:  cpu time    0.1458: real time    0.1461
    FORLOC:  cpu time    0.0092: real time    0.0092
    FORNL :  cpu time    0.4793: real time    0.4804
    STRESS:  cpu time    1.4682: real time    1.4719
    FORCOR:  cpu time    0.0265: real time    0.0265
    FORHAR:  cpu time    0.0220: real time    0.0221
    MIXING:  cpu time    0.0096: real time    0.0096
    OFIELD:  cpu time    0.0000: real time    0.0000

  FORCE on cell =-STRESS in cart. coord.  units (eV):
  Direction    XX          YY          ZZ          XY          YZ          ZX
  --------------------------------------------------------------------------------------
  Alpha Z   166.34078   166.34078   166.34078
  Ewald  -18864.50616 15307.94556 14736.48015    -0.00003     0.00000   171.09819
  Hartree-15814.32684 16940.19644 16482.34100     0.00000    -0.00000   133.72428
  E(xc)    -456.30204  -456.74911  -456.74667    -0.00000    -0.00000     0.05517
  Local   33265.09271-33684.30288-32648.26516     0.00002    -0.00000  -303.81473
  n-local   344.34604   344.95598   346.76699     0.06704    -0.21395    -0.97430
  augment  -171.31249  -171.86341  -171.95899    -0.00000    -0.00000     0.21946
  Kinetic  1512.56918  1531.98476  1526.13407    -0.07500    -0.82039    -0.40146
  Fock        0.00000     0.00000     0.00000     0.00000     0.00000     0.00000
  -------------------------------------------------------------------------------------
  Total     -18.09881   -21.49189   -18.90783     0.00000     0.00000    -0.09339
  in kB     -15.35847   -18.23780   -16.04499     0.00000     0.00000    -0.07925
  external pressure =      -16.55 kB  Pullay stress =        0.00 kB


 VOLUME and BASIS-vectors are now :
 -----------------------------------------------------------------------------
  energy-cutoff  :      500.00
  volume of cell :     1888.05
      direct lattice vectors                 reciprocal lattice vectors
    24.009468079  0.000000000  0.000000000     0.041650236  0.000000000  0.000000000
     0.000000000  6.777849674  0.000000000     0.000000000  0.147539419  0.000000000
     0.000000000  0.000000000 11.602143288     0.000000000  0.000000000  0.086190971

  length of vectors
    24.009468079  6.777849674 11.602143288     0.041650236  0.147539419  0.086190971


 FORCES acting on ions
    electron-ion (+dipol)            ewald-force                    non-local-force                 convergence-correction
 -----------------------------------------------------------------------------------------------
   0.766E+03 0.100E-04 0.503E+02   -.760E+03 0.101E-04 -.494E+02   -.422E+01 -.809E-19 -.880E+00   0.819E-04 -.758E-09 0.441E-04
   -.766E+03 -.614E-04 -.503E+02   0.760E+03 -.131E-04 0.494E+02   0.422E+01 -.210E-18 0.880E+00   -.819E-04 0.879E-09 -.441E-04
   0.914E+02 -.598E-04 -.488E+02   -.911E+02 -.177E-04 0.474E+02   0.407E-01 0.541E-18 0.141E+01   0.168E-03 0.130E-08 -.159E-03
   -.914E+02 0.106E-04 0.488E+02   0.911E+02 0.127E-04 -.474E+02   -.407E-01 0.598E-18 -.141E+01   -.168E-03 -.117E-08 0.159E-03
   0.615E+03 -.597E-04 -.513E+02   -.613E+03 -.166E-04 0.514E+02   -.175E+01 -.298E-18 -.133E+00   0.197E-03 0.105E-08 -.157E-03
   -.615E+03 0.895E-05 0.513E+02   0.613E+03 0.144E-04 -.514E+02   0.175E+01 0.388E-18 0.133E+00   -.197E-03 -.958E-09 0.157E-03
   0.353E+03 0.111E-04 -.204E+02   -.352E+03 0.126E-04 0.196E+02   -.409E+00 0.125E-17 0.836E+00   0.171E-03 -.115E-08 0.303E-04
   -.353E+03 -.613E-04 0.204E+02   0.352E+03 -.125E-04 -.196E+02   0.409E+00 -.117E-17 -.836E+00   -.171E-03 0.119E-08 -.303E-04
   0.271E+03 0.379E+02 -.500E+02   -.271E+03 -.389E+02 0.505E+02   -.190E+00 0.948E+00 -.475E+00   0.132E-03 0.618E-04 -.800E-04
   -.271E+03 -.379E+02 0.500E+02   0.271E+03 0.389E+02 -.505E+02   0.190E+00 -.948E+00 0.475E+00   -.132E-03 -.618E-04 0.800E-04
   0.113E+03 -.360E+02 0.648E+01   -.114E+03 0.365E+02 -.555E+01   0.267E+00 -.535E+00 -.927E+00   0.148E-04 -.774E-04 0.895E-05
   -.113E+03 0.360E+02 -.648E+01   0.114E+03 -.365E+02 0.555E+01   -.267E+00 0.535E+00 0.927E+00   -.148E-04 0.774E-04 -.894E-05
   -.271E+03 0.379E+02 0.500E+02   0.271E+03 -.389E+02 -.505E+02   0.190E+00 0.948E+00 0.475E+00   -.132E-03 0.618E-04 0.800E-04
   0.271E+03 -.379E+02 -.500E+02   -.271E+03 0.389E+02 0.505E+02   -.190E+00 -.948E+00 -.475E+00   0.132E-03 -.618E-04 -.800E-04
   -.113E+03 -.360E+02 -.648E+01   0.114E+03 0.365E+02 0.555E+01   -.267E+00 -.535E+00 0.927E+00   -.148E-04 -.774E-04 -.894E-05
   0.113E+03 0.360E+02 0.648E+01   -.114E+03 -.365E+02 -.555E+01   0.267E+00 0.535E+00 -.927E+00   0.148E-04 0.774E-04 0.895E-05
   0.325E+03 -.511E-05 0.492E+02   -.326E+03 -.611E-05 -.496E+02   0.104E+01 0.336E-18 0.332E+00   0.123E-03 0.331E-09 0.559E-04
   -.325E+03 0.621E-05 -.492E+02   0.326E+03 0.636E-05 0.496E+02   -.104E+01 -.373E-18 -.332E+00   -.123E-03 -.326E-09 -.559E-04
   0.329E+02 0.860E-05 -.126E+02   -.317E+02 0.745E-05 0.118E+02   -.108E+01 0.122E-18 0.859E+00   0.678E-05 -.454E-09 -.397E-04
   -.329E+02 -.366E-05 0.126E+02   0.317E+02 -.709E-05 -.118E+02   0.108E+01 -.128E-18 -.859E+00   -.678E-05 0.435E-09 0.397E-04
   0.235E+03 0.430E-05 0.146E+02   -.235E+03 0.806E-05 -.152E+02   -.386E-01 0.122E-18 0.673E+00   0.124E-03 -.395E-09 0.160E-04
   -.235E+03 -.648E-05 -.146E+02   0.235E+03 -.813E-05 0.152E+02   0.386E-01 -.158E-19 -.673E+00   -.124E-03 0.385E-09 -.160E-04
   0.150E+03 -.724E-05 0.615E+02   -.149E+03 -.708E-05 -.625E+02   -.549E+00 0.315E-17 0.108E+01   0.328E-04 0.427E-09 0.131E-03
   -.150E+03 0.366E-05 -.615E+02   0.149E+03 0.700E-05 0.625E+02   0.549E+00 -.237E-17 -.108E+01   -.328E-04 -.416E-09 -.131E-03
 -----------------------------------------------------------------------------------------------
   0.195E-03 -.211E-03 0.712E-04   -.227E-12 0.198E-13 0.284E-13   0.222E-15 0.850E-18 0.222E-15   -.179E-07 0.371E-09 -.473E-08
 
 
 POSITION                                       TOTAL-FORCE (eV/Angst)
 -----------------------------------------------------------------------------------
      0.13670      1.69446      8.18639         1.041339      0.000000      0.000555
      9.32277      5.08339      3.41576        -1.041339     -0.000000     -0.000555
      4.36803      5.08339      2.12057         0.333683      0.000000      0.000167
      5.09143      1.69446      9.48157        -0.333683      0.000000     -0.000167
      1.43529      5.08339     10.60197         0.739171     -0.000000      0.000594
      8.02418      1.69446      1.00017        -0.739171      0.000000     -0.000594
      3.06944      1.69446      4.53826         0.512855     -0.000000     -0.000661
      6.39002      5.08339      7.06389        -0.512855      0.000000      0.000661
      1.75027      0.50091      1.60469         0.051341      0.000324     -0.000021
      7.70920      6.27694      9.99745        -0.051341     -0.000324      0.000021
      2.75446      6.28987      7.69532         0.222905     -0.000031      0.000156
      6.70500      0.48798      3.90682        -0.222905      0.000031     -0.000156
      7.70920      3.88984      9.99745        -0.051341      0.000324      0.000021
      1.75027      2.88801      1.60469         0.051341     -0.000324     -0.000021
      6.70500      2.90094      3.90682        -0.222905     -0.000031     -0.000156
      2.75446      3.87691      7.69532         0.222905      0.000031      0.000156
      0.74693      5.08339      7.03450         0.014465     -0.000000     -0.000193
      8.71254      1.69446      4.56764        -0.014465      0.000000      0.000193
      3.75780      1.69446      0.89863         0.117295     -0.000000      0.000553
      5.70166      5.08339     10.70351        -0.117295     -0.000000     -0.000553
      1.78112      1.69446     11.10951        -0.037076      0.000000     -0.000462
      7.67835      5.08339      0.49263         0.037076     -0.000000      0.000462
      2.72362      5.08339      5.59306        -0.224987     -0.000000      0.000547
      6.73585      1.69446      6.00909         0.224987     -0.000000     -0.000547
 -----------------------------------------------------------------------------------
    total drift:                                0.000195     -0.000211      0.000071


--------------------------------------------------------------------------------------------------------



  FREE ENERGIE OF THE ION-ELECTRON SYSTEM (eV)
  ---------------------------------------------------
  free  energy   TOTEN  =      -113.90758531 eV

  energy  without entropy=     -113.90758531  energy(sigma->0) =     -113.90758531
 


--------------------------------------------------------------------------------------------------------


    POTLOK:  cpu time    0.0204: real time    0.0204


--------------------------------------------------------------------------------------------------------


 writing wavefunctions
     LOOP+:  cpu time   82.1006: real time   83.2519
    4ORBIT:  cpu time    0.0000: real time    0.0000
 BZINTS: Fermi energy: -0.636563;144.000000 electrons
         Band energy:***********;  BLOECHL correction:  0.000000

 total amount of memory used by VASP MPI-rank0    79351. kBytes
=======================================================================

   base      :      30000. kBytes
   nonlr-proj:       2645. kBytes
   fftplans  :       5898. kBytes
   grid      :       8824. kBytes
   one-center:         93. kBytes
   wavefun   :      31891. kBytes
 
  
  
 General timing and accounting informations for this job:
 ========================================================
  
                  Total CPU time used (sec):       89.940
                            User time (sec):       84.970
                          System time (sec):        4.970
                         Elapsed time (sec):       93.157
  
                   Maximum memory used (kb):      162828.
                   Average memory used (kb):           0.
  
                          Minor page faults:        61766
                          Major page faults:          226
                 Voluntary context switches:        13609
