 vasp.5.4.4.18Apr17-6-g9f103f2a35 (build Nov 21 2017 15:30:27) complex          
  
 executed on             LinuxIFC date 2020.09.14  18:30:38
 running on   64 total cores
 distrk:  each k-point on   32 cores,    2 groups
 distr:  one band on NCORES_PER_BAND=   4 cores,    8 groups


--------------------------------------------------------------------------------------------------------


 INCAR:
 POTCAR:   PAW Ba_sv 17Apr2000                    
 POTCAR:   PAW Si 02Apr1999                       

 ----------------------------------------------------------------------------- 
|                                                                             |
|           W    W    AA    RRRRR   N    N  II  N    N   GGGG   !!!           |
|           W    W   A  A   R    R  NN   N  II  NN   N  G    G  !!!           |
|           W    W  A    A  R    R  N N  N  II  N N  N  G       !!!           |
|           W WW W  AAAAAA  RRRRR   N  N N  II  N  N N  G  GGG   !            |
|           WW  WW  A    A  R   R   N   NN  II  N   NN  G    G                |
|           W    W  A    A  R    R  N    N  II  N    N   GGGG   !!!           |
|                                                                             |
|      You have enabled k-point parallelism (KPAR>1).                         |
|      This developmental code was originally  written by Paul Kent at ORNL,  |
|      and carefully double checked in Vienna.                                |
|      GW as well as linear response parallelism added by Martijn Marsman     |
|      and Georg Kresse.                                                      |
|      Carefully verify results versus KPAR=1.                                |
|      Report problems to Paul Kent and Vienna.                               |
|                                                                             |
 ----------------------------------------------------------------------------- 

 POTCAR:   PAW Ba_sv 17Apr2000                    
   VRHFIN =Ba: s2p6s2                                                           
   LEXCH  = CA                                                                  
   EATOM  =   704.0172 eV,   51.7438 Ry                                         
                                                                                
   TITEL  = PAW Ba_sv 17Apr2000                                                 
   LULTRA =        F    use ultrasoft PP ?                                      
   IUNSCR =        1    unscreen: 0-lin 1-nonlin 2-no                           
   RPACOR =    2.400    partial core radius                                     
   POMASS =  137.327; ZVAL   =   10.000    mass and valenz                      
   RCORE  =    2.800    outmost cutoff radius                                   
   RWIGS  =    3.740; RWIGS  =    1.979    wigner-seitz radius (au A)           
   ENMAX  =  186.981; ENMIN  =  140.236 eV                                      
   RCLOC  =    2.516    cutoff for local pot                                    
   LCOR   =        T    correct aug charges                                     
   LPAW   =        T    paw PP                                                  
   EAUG   =  351.165                                                            
   DEXC   =     .000                                                            
   RMAX   =    3.372    core radius for proj-oper                               
   RAUG   =    1.300    factor for augmentation sphere                          
   RDEP   =    2.976    core radius for depl-charge                             
   QCUT   =   -3.707; QGAM   =    7.414    optimization parameters              
                                                                                
   Description                                                                  
     l     E      TYP  RCUT    TYP  RCUT                                        
     0   .000     23  2.800                                                     
     0   .000     23  2.800                                                     
     1   .000     23  2.700                                                     
     1  2.000     23  2.700                                                     
     2   .000     23  2.700                                                     
     2   .000     23  2.700                                                     
  local pseudopotential read in
  partial core-charges read in
  atomic valenz-charges read in
  non local Contribution for L=           0  read in
    real space projection operators read in
  non local Contribution for L=           0  read in
    real space projection operators read in
  non local Contribution for L=           1  read in
    real space projection operators read in
  non local Contribution for L=           1  read in
    real space projection operators read in
  non local Contribution for L=           2  read in
    real space projection operators read in
  non local Contribution for L=           2  read in
    real space projection operators read in
    PAW grid and wavefunctions read in
 
   number of l-projection  operators is LMAX  =           6
   number of lm-projection operators is LMMAX =          18
 
 POTCAR:   PAW Si 02Apr1999                       
   VRHFIN =Si: s2p2                                                             
   LEXCH  = CA                                                                  
   EATOM  =   103.4338 eV,    7.6022 Ry                                         
                                                                                
   TITEL  = PAW Si 02Apr1999                                                    
   LULTRA =        F    use ultrasoft PP ?                                      
   IUNSCR =        1    unscreen: 0-lin 1-nonlin 2-no                           
   RPACOR =    1.500    partial core radius                                     
   POMASS =   28.085; ZVAL   =    4.000    mass and valenz                      
   RCORE  =    1.900    outmost cutoff radius                                   
   RWIGS  =    2.480; RWIGS  =    1.312    wigner-seitz radius (au A)           
   ENMAX  =  245.704; ENMIN  =  184.278 eV                                      
   ICORE  =        2    local potential                                         
   LCOR   =        T    correct aug charges                                     
   LPAW   =        T    paw PP                                                  
   EAUG   =  322.069                                                            
   DEXC   =    -.006                                                            
   RMAX   =    2.941    core radius for proj-oper                               
   RAUG   =    1.300    factor for augmentation sphere                          
   RDEP   =    1.993    core radius for depl-charge                             
   QCUT   =   -4.250; QGAM   =    8.499    optimization parameters              
                                                                                
   Description                                                                  
     l     E      TYP  RCUT    TYP  RCUT                                        
     0   .000     23  1.900                                                     
     0   .000     23  1.900                                                     
     1   .000     23  1.900                                                     
     1   .000     23  1.900                                                     
     2   .000      7  1.900                                                     
  local pseudopotential read in
  partial core-charges read in
  atomic valenz-charges read in
  non local Contribution for L=           0  read in
    real space projection operators read in
  non local Contribution for L=           0  read in
    real space projection operators read in
  non local Contribution for L=           1  read in
    real space projection operators read in
  non local Contribution for L=           1  read in
    real space projection operators read in
    PAW grid and wavefunctions read in
 
   number of l-projection  operators is LMAX  =           4
   number of lm-projection operators is LMMAX =           8
 
 Optimization of the real space projectors (new method)

 maximal supplied QI-value         = 13.42
 optimisation between [QCUT,QGAM] = [ 11.40, 22.81] = [ 36.42,145.68] Ry 
 Optimized for a Real-space Cutoff    1.56 Angstroem

   l    n(q)    QCUT    max X(q) W(low)/X(q) W(high)/X(q)  e(spline) 
   0     11    11.404     7.180    0.12E-04    0.23E-04    0.91E-07
   0     11    11.404    14.700    0.33E-04    0.82E-04    0.45E-06
   1     10    11.404     3.780    0.19E-04    0.22E-04    0.42E-07
   1     10    11.404     4.341    0.22E-03    0.98E-04    0.21E-06
   2     10    11.404     5.806    0.81E-04    0.60E-05    0.26E-06
   2     10    11.404    65.524    0.41E-03    0.30E-04    0.12E-05
 Optimization of the real space projectors (new method)

 maximal supplied QI-value         = 19.84
 optimisation between [QCUT,QGAM] = [ 11.31, 22.82] = [ 35.82,145.81] Ry 
 Optimized for a Real-space Cutoff    1.16 Angstroem

   l    n(q)    QCUT    max X(q) W(low)/X(q) W(high)/X(q)  e(spline) 
   0      8    11.310     8.540    0.14E-04    0.11E-04    0.43E-08
   0      8    11.310   104.916    0.28E-03    0.31E-03    0.39E-07
   1      7    11.310     5.806    0.79E-05    0.47E-04    0.19E-07
   1      7    11.310    72.249    0.28E-03    0.28E-03    0.75E-07
 PAW Ba_sv 17Apr2000                    :
 energy of atom  1       EATOM= -704.0172
 kinetic energy error for atom=    0.0005 (will be added to EATOM!!)
 PAW Si 02Apr1999                       :
 energy of atom  2       EATOM= -103.4338
 kinetic energy error for atom=    0.0006 (will be added to EATOM!!)
 
 
 POSCAR: ba8 si16                                
  positions in direct lattice
  velocities in cartesian coordinates
 exchange correlation table for  LEXCH =        2
   RHO(1)=    0.500       N(1)  =     2000
   RHO(2)=  100.500       N(2)  =     4000
 


--------------------------------------------------------------------------------------------------------


 ion  position               nearest neighbor table
   1  0.006  0.250  0.710-  21 3.36  16 3.45  11 3.45  17 3.64  17 3.64   5 4.36   5 4.36   7 4.68

   2  0.374  0.750  0.290-  22 3.36  12 3.45  15 3.45  18 3.64  18 3.64   6 4.36   6 4.36   8 4.68

   3  0.182  0.750  0.185-  20 3.27  22 3.42  12 3.44  15 3.44   9 3.45  14 3.45  19 3.64  19 3.64
                            23 3.83   5 4.26   7 4.37   7 4.37
   4  0.197  0.250  0.815-  19 3.27  21 3.42  16 3.44  11 3.44  13 3.45  10 3.45  20 3.64  20 3.64
                            24 3.83   6 4.26   8 4.37   8 4.37
   5  0.060  0.750  0.919-   9 3.42  14 3.42  21 3.45  21 3.45  11 3.45  16 3.45  17 3.68  20 3.92
                             3 4.26   1 4.36   1 4.36
   6  0.320  0.250  0.081-  13 3.42  10 3.42  22 3.45  22 3.45  15 3.45  12 3.45  18 3.68  19 3.92
                             4 4.26   2 4.36   2 4.36
   7  0.128  0.250  0.395-  14 3.42   9 3.42  23 3.55  23 3.55  15 3.56  12 3.56  24 3.61  19 3.67
                            16 3.82  11 3.82   3 4.37   3 4.37   1 4.68
   8  0.252  0.750  0.605-  10 3.42  13 3.42  24 3.55  24 3.55  11 3.56  16 3.56  23 3.61  20 3.67
                            12 3.82  15 3.82   4 4.37   4 4.37   2 4.68
   9  0.073  0.074  0.143-  14 2.39  21 2.41  19 2.43   7 3.42   5 3.42   3 3.45
  10  0.307  0.926  0.857-  13 2.39  22 2.41  20 2.43   8 3.42   6 3.42   4 3.45
  11  0.115  0.927  0.664-  16 2.40  23 2.42  17 2.43   4 3.44   5 3.45   1 3.45   8 3.56   7 3.82

  12  0.265  0.073  0.336-  15 2.40  24 2.42  18 2.43   3 3.44   6 3.45   2 3.45   7 3.56   8 3.82

  13  0.307  0.574  0.857-  10 2.39  22 2.41  20 2.43   8 3.42   6 3.42   4 3.45
  14  0.073  0.426  0.143-   9 2.39  21 2.41  19 2.43   7 3.42   5 3.42   3 3.45
  15  0.265  0.427  0.336-  12 2.40  24 2.42  18 2.43   3 3.44   6 3.45   2 3.45   7 3.56   8 3.82

  16  0.115  0.573  0.664-  11 2.40  23 2.42  17 2.43   4 3.44   5 3.45   1 3.45   8 3.56   7 3.82

  17  0.031  0.750  0.607-  11 2.43  16 2.43  23 2.45   1 3.64   1 3.64   5 3.68
  18  0.348  0.250  0.393-  15 2.43  12 2.43  24 2.45   2 3.64   2 3.64   6 3.68
  19  0.157  0.250  0.084-  21 2.43  14 2.43   9 2.43   4 3.27   3 3.64   3 3.64   7 3.67   6 3.92

  20  0.223  0.750  0.916-  22 2.43  10 2.43  13 2.43   3 3.27   4 3.64   4 3.64   8 3.67   5 3.92

  21  0.074  0.250  0.963-  14 2.41   9 2.41  19 2.43   1 3.36   4 3.42   5 3.45   5 3.45
  22  0.305  0.750  0.037-  10 2.41  13 2.41  20 2.43   2 3.36   3 3.42   6 3.45   6 3.45
  23  0.113  0.750  0.483-  11 2.42  16 2.42  17 2.45   7 3.55   7 3.55   8 3.61   3 3.83
  24  0.266  0.250  0.517-  15 2.42  12 2.42  18 2.45   8 3.55   8 3.55   7 3.61   4 3.83
 
  LATTYP: Found a simple orthorhombic cell.
 ALAT       =     6.7778496742
 B/A-ratio  =     1.7117734747
 C/A-ratio  =     3.5423429602
  
  Lattice vectors:
  
 A1 = (   0.0000000000,   6.7778496742,   0.0000000000)
 A2 = (   0.0000000000,   0.0000000000, -11.6021432877)
 A3 = ( -24.0094680786,   0.0000000000,   0.0000000000)


Analysis of symmetry for initial positions (statically):
=====================================================================
 Subroutine PRICEL returns:
 Original cell was already a primitive cell.
 

 Routine SETGRP: Setting up the symmetry group for a 
 simple orthorhombic supercell.


 Subroutine GETGRP returns: Found  4 space group operations
 (whereof  1 operations were pure point group operations)
 out of a pool of  8 trial point group operations.


The static configuration has the point symmetry C_1 .
 The point group associated with its full space group is C_2h.


Analysis of symmetry for dynamics (positions and initial velocities):
=====================================================================
 Subroutine PRICEL returns:
 Original cell was already a primitive cell.
 

 Routine SETGRP: Setting up the symmetry group for a 
 simple orthorhombic supercell.


 Subroutine GETGRP returns: Found  4 space group operations
 (whereof  1 operations were pure point group operations)
 out of a pool of  8 trial point group operations.


The dynamic configuration has the point symmetry C_1 .
 The point group associated with its full space group is C_2h.


Analysis of constrained symmetry for selective dynamics:
=====================================================================
 Subroutine PRICEL returns:
 Original cell was already a primitive cell.
 

 Routine SETGRP: Setting up the symmetry group for a 
 simple orthorhombic supercell.


 Subroutine GETGRP returns: Found  4 space group operations
 (whereof  1 operations were pure point group operations)
 out of a pool of  8 trial point group operations.


The constrained configuration has the point symmetry C_1 .
 The point group associated with its full space group is C_2h.


 Subroutine INISYM returns: Found  4 space group operations
 (whereof  1 operations are pure point group operations),
 and found     1 'primitive' translations

 
 
 KPOINTS: k-density: 8.0                          

Automatic generation of k-mesh.
Space group operators:
 irot       det(A)        alpha          n_x          n_y          n_z        tau_x        tau_y        tau_z
    1     1.000000     0.000000     1.000000     0.000000     0.000000     0.000000     0.000000     0.000000
    2    -1.000000     0.000000     1.000000     0.000000     0.000000    -0.620589     0.000000     0.000000
    3     1.000000   180.000000     0.000000     1.000000     0.000000    -0.620589     0.500000     0.000000
    4    -1.000000   180.000000     0.000000     1.000000     0.000000     0.000000     0.500000     0.000000
 
 Subroutine IBZKPT returns following result:
 ===========================================
 
 Found     15 irreducible k-points:
 
 Following reciprocal coordinates:
            Coordinates               Weight
  0.000000  0.000000  0.000000      1.000000
  0.000000  0.125000  0.000000      2.000000
  0.000000  0.250000  0.000000      2.000000
  0.000000  0.375000  0.000000      2.000000
  0.000000  0.500000  0.000000      1.000000
  0.000000  0.000000  0.200000      2.000000
  0.000000  0.125000  0.200000      4.000000
  0.000000  0.250000  0.200000      4.000000
  0.000000  0.375000  0.200000      4.000000
  0.000000  0.500000  0.200000      2.000000
  0.000000  0.000000  0.400000      2.000000
  0.000000  0.125000  0.400000      4.000000
  0.000000  0.250000  0.400000      4.000000
  0.000000  0.375000  0.400000      4.000000
  0.000000  0.500000  0.400000      2.000000
 
 Following cartesian coordinates:
            Coordinates               Weight
  0.000000  0.000000  0.000000      1.000000
  0.000000  0.018442  0.000000      2.000000
  0.000000  0.036885  0.000000      2.000000
  0.000000  0.055327  0.000000      2.000000
  0.000000  0.073770  0.000000      1.000000
  0.000000  0.000000  0.017238      2.000000
  0.000000  0.018442  0.017238      4.000000
  0.000000  0.036885  0.017238      4.000000
  0.000000  0.055327  0.017238      4.000000
  0.000000  0.073770  0.017238      2.000000
  0.000000  0.000000  0.034476      2.000000
  0.000000  0.018442  0.034476      4.000000
  0.000000  0.036885  0.034476      4.000000
  0.000000  0.055327  0.034476      4.000000
  0.000000  0.073770  0.034476      2.000000
 
 TETIRR: Found    108 inequivalent tetrahedra from      240


--------------------------------------------------------------------------------------------------------




 Dimension of arrays:
   k-points           NKPTS =     15   k-points in BZ     NKDIM =     15   number of bands    NBANDS=     88
   number of dos      NEDOS =    301   number of ions     NIONS =     24
   non local maximal  LDIM  =      6   non local SUM 2l+1 LMDIM =     18
   total plane-waves  NPLWV = 358400
   max r-space proj   IRMAX =   3093   max aug-charges    IRDMAX=  12081
   dimension x,y,z NGX =   140 NGY =   40 NGZ =   64
   dimension x,y,z NGXF=   280 NGYF=   80 NGZF=  128
   support grid    NGXF=   280 NGYF=   80 NGZF=  128
   ions per type =               8  16
   NGX,Y,Z   is equivalent  to a cutoff of   9.69,  9.81,  9.17 a.u.
   NGXF,Y,Z  is equivalent  to a cutoff of  19.39, 19.62, 18.34 a.u.

 SYSTEM =  unknown system                          
 POSCAR =  ba8 si16                                

 Startparameter for this run:
   NWRITE =      2    write-flag & timer
   PREC   = normal    normal or accurate (medium, high low for compatibility)
   ISTART =      0    job   : 0-new  1-cont  2-samecut
   ICHARG =      2    charge: 1-file 2-atom 10-const
   ISPIN  =      1    spin polarized calculation?
   LNONCOLLINEAR =      F non collinear calculations
   LSORBIT =      F    spin-orbit coupling
   INIWAV =      1    electr: 0-lowe 1-rand  2-diag
   LASPH  =      F    aspherical Exc in radial PAW
   METAGGA=      F    non-selfconsistent MetaGGA calc.

 Electronic Relaxation 1
   ENCUT  =  500.0 eV  36.75 Ry    6.06 a.u.  43.77 12.36 21.15*2*pi/ulx,y,z
   ENINI  =  500.0     initial cutoff
   ENAUG  =  351.2 eV  augmentation charge cutoff
   NELM   =    100;   NELMIN=  2; NELMDL= -5     # of ELM steps 
   EDIFF  = 0.1E-05   stopping-criterion for ELM
   LREAL  =      T    real-space projection
   NLSPLINE    = F    spline interpolate recip. space projectors
   LCOMPAT=      F    compatible to vasp.4.4
   GGA_COMPAT  = T    GGA compatible to vasp.4.4-vasp.4.6
   LMAXPAW     = -100 max onsite density
   LMAXMIX     =    2 max onsite mixed and CHGCAR
   VOSKOWN=      0    Vosko Wilk Nusair interpolation
   ROPT   =   -0.00050  -0.00050
 Ionic relaxation
   EDIFFG = -.1E-02   stopping-criterion for IOM
   NSW    =      0    number of steps for IOM
   NBLOCK =      1;   KBLOCK =      1    inner block; outer block 
   IBRION =     -1    ionic relax: 0-MD 1-quasi-New 2-CG
   NFREE  =      0    steps in history (QN), initial steepest desc. (CG)
   ISIF   =      2    stress and relaxation
   IWAVPR =     10    prediction:  0-non 1-charg 2-wave 3-comb
   ISYM   =      2    0-nonsym 1-usesym 2-fastsym
   LCORR  =      T    Harris-Foulkes like correction to forces

   POTIM  = 0.3000    time-step for ionic-motion
   TEIN   =    0.0    initial temperature
   TEBEG  =    0.0;   TEEND  =   0.0 temperature during run
   SMASS  =  -3.00    Nose mass-parameter (am)
   estimated Nose-frequenzy (Omega)   =  0.10E-29 period in steps =****** mass=  -0.132E-25a.u.
   SCALEE = 1.0000    scale energy and forces
   NPACO  =    256;   APACO  = 16.0  distance and # of slots for P.C.
   PSTRESS=    0.0 pullay stress

  Mass of Ions in am
   POMASS = 137.33 28.09
  Ionic Valenz
   ZVAL   =  10.00  4.00
  Atomic Wigner-Seitz radii
   RWIGS  =  -1.00 -1.00
  virtual crystal weights 
   VCA    =   1.00  1.00
   NELECT =     144.0000    total number of electrons
   NUPDOWN=      -1.0000    fix difference up-down

 DOS related values:
   EMIN   =  10.00;   EMAX   =-10.00  energy-range for DOS
   EFERMI =   0.00
   ISMEAR =    -5;   SIGMA  =   0.01  broadening in eV -4-tet -1-fermi 0-gaus

 Electronic relaxation 2 (details)
   IALGO  =     38    algorithm
   LDIAG  =      T    sub-space diagonalisation (order eigenvalues)
   LSUBROT=      F    optimize rotation matrix (better conditioning)
   TURBO    =      0    0=normal 1=particle mesh
   IRESTART =      0    0=no restart 2=restart with 2 vectors
   NREBOOT  =      0    no. of reboots
   NMIN     =      0    reboot dimension
   EREF     =   0.00    reference energy to select bands
   IMIX   =      4    mixing-type and parameters
     AMIX     =   0.40;   BMIX     =  1.00
     AMIX_MAG =   1.60;   BMIX_MAG =  1.00
     AMIN     =   0.10
     WC   =   100.;   INIMIX=   1;  MIXPRE=   1;  MAXMIX= -45

 Intra band minimization:
   WEIMIN = 0.0000     energy-eigenvalue tresh-hold
   EBREAK =  0.28E-08  absolut break condition
   DEPER  =   0.30     relativ break condition  

   TIME   =   0.40     timestep for ELM

  volume/ion in A,a.u.               =      78.67       530.88
  Fermi-wavevector in a.u.,A,eV,Ry     =   0.694264  1.311969  6.558046  0.482003
  Thomas-Fermi vector in A             =   1.776709
 
 Write flags
   LWAVE        =      T    write WAVECAR
   LDOWNSAMPLE  =      F    k-point downsampling of WAVECAR
   LCHARG       =      T    write CHGCAR
   LVTOT        =      F    write LOCPOT, total local potential
   LVHAR        =      F    write LOCPOT, Hartree potential only
   LELF         =      F    write electronic localiz. function (ELF)
   LORBIT       =      0    0 simple, 1 ext, 2 COOP (PROOUT), +10 PAW based schemes


 Dipole corrections
   LMONO  =      F    monopole corrections only (constant potential shift)
   LDIPOL =      F    correct potential (dipole corrections)
   IDIPOL =      0    1-x, 2-y, 3-z, 4-all directions 
   EPSILON=  1.0000000 bulk dielectric constant

 Exchange correlation treatment:
   GGA     =    --    GGA type
   LEXCH   =     2    internal setting for exchange type
   VOSKOWN=      0    Vosko Wilk Nusair interpolation
   LHFCALC =     F    Hartree Fock is set to
   LHFONE  =     F    Hartree Fock one center treatment
   AEXX    =    0.0000 exact exchange contribution

 Linear response parameters
   LEPSILON=     F    determine dielectric tensor
   LRPA    =     F    only Hartree local field effects (RPA)
   LNABLA  =     F    use nabla operator in PAW spheres
   LVEL    =     F    velocity operator in full k-point grid
   LINTERFAST=   F  fast interpolation
   KINTER  =     0    interpolate to denser k-point grid
   CSHIFT  =0.1000    complex shift for real part using Kramers Kronig
   OMEGAMAX=  -1.0    maximum frequency
   DEG_THRESHOLD= 0.2000000E-02 threshold for treating states as degnerate
   RTIME   =   -0.100 relaxation time in fs
  (WPLASMAI=    0.000 imaginary part of plasma frequency in eV, 0.658/RTIME)
   DFIELD  = 0.0000000 0.0000000 0.0000000 field for delta impulse in time
 
 Orbital magnetization related:
   ORBITALMAG=     F  switch on orbital magnetization
   LCHIMAG   =     F  perturbation theory with respect to B field
   DQ        =  0.001000  dq finite difference perturbation B field
   LLRAUG    =     F  two centre corrections for induced B field



--------------------------------------------------------------------------------------------------------


 Static calculation
 charge density and potential will be updated during run
 non-spin polarized calculation
 Variant of blocked Davidson
 Davidson routine will perform the subspace rotation
 perform sub-space diagonalisation
    after iterative eigenvector-optimisation
 modified Broyden-mixing scheme, WC =      100.0
 initial mixing is a Kerker type mixing with AMIX =  0.4000 and BMIX =      1.0000
 Hartree-type preconditioning will be used
 using additional bands           16
 real space projection scheme for non local part
 use partial core corrections
 calculate Harris-corrections to forces 
   (improved forces if not selfconsistent)
 use of overlap-Matrix (Vanderbilt PP)
 Fermi weights with tetrahedron method with Bloechl corrections


--------------------------------------------------------------------------------------------------------


  energy-cutoff  :      500.00
  volume of cell :     1888.05
      direct lattice vectors                 reciprocal lattice vectors
    24.009468079  0.000000000  0.000000000     0.041650236  0.000000000  0.000000000
     0.000000000  6.777849674  0.000000000     0.000000000  0.147539419  0.000000000
     0.000000000  0.000000000 11.602143288     0.000000000  0.000000000  0.086190971

  length of vectors
    24.009468079  6.777849674 11.602143288     0.041650236  0.147539419  0.086190971


 
 k-points in units of 2pi/SCALE and weight: k-density: 8.0                          
   0.00000000  0.00000000  0.00000000       0.025
   0.00000000  0.01844243  0.00000000       0.050
   0.00000000  0.03688485  0.00000000       0.050
   0.00000000  0.05532728  0.00000000       0.050
   0.00000000  0.07376971  0.00000000       0.025
   0.00000000  0.00000000  0.01723819       0.050
   0.00000000  0.01844243  0.01723819       0.100
   0.00000000  0.03688485  0.01723819       0.100
   0.00000000  0.05532728  0.01723819       0.100
   0.00000000  0.07376971  0.01723819       0.050
   0.00000000  0.00000000  0.03447639       0.050
   0.00000000  0.01844243  0.03447639       0.100
   0.00000000  0.03688485  0.03447639       0.100
   0.00000000  0.05532728  0.03447639       0.100
   0.00000000  0.07376971  0.03447639       0.050
 
 k-points in reciprocal lattice and weights: k-density: 8.0                          
   0.00000000  0.00000000  0.00000000       0.025
   0.00000000  0.12500000  0.00000000       0.050
   0.00000000  0.25000000  0.00000000       0.050
   0.00000000  0.37500000  0.00000000       0.050
   0.00000000  0.50000000  0.00000000       0.025
   0.00000000  0.00000000  0.20000000       0.050
   0.00000000  0.12500000  0.20000000       0.100
   0.00000000  0.25000000  0.20000000       0.100
   0.00000000  0.37500000  0.20000000       0.100
   0.00000000  0.50000000  0.20000000       0.050
   0.00000000  0.00000000  0.40000000       0.050
   0.00000000  0.12500000  0.40000000       0.100
   0.00000000  0.25000000  0.40000000       0.100
   0.00000000  0.37500000  0.40000000       0.100
   0.00000000  0.50000000  0.40000000       0.050
 
 position of ions in fractional coordinates (direct lattice) 
   0.00569361  0.25000000  0.70997575
   0.37371788  0.75000002  0.29002425
   0.18192962  0.75000002  0.18500999
   0.19748187  0.25000000  0.81498999
   0.05978014  0.75000002  0.91857200
   0.31963135  0.25000000  0.08142798
   0.12784309  0.25000000  0.39519160
   0.25156840  0.75000002  0.60480845
   0.07289913  0.07386022  0.14334729
   0.30651236  0.92613977  0.85665269
   0.11472410  0.92709700  0.66366610
   0.26468739  0.07290300  0.33633390
   0.30651236  0.57386023  0.85665269
   0.07289913  0.42613977  0.14334729
   0.26468739  0.42709700  0.33633390
   0.11472410  0.57290300  0.66366610
   0.03110981  0.75000002  0.60704238
   0.34830168  0.25000000  0.39295762
   0.15651343  0.25000000  0.08418115
   0.22289807  0.75000002  0.91581882
   0.07418398  0.25000000  0.96284281
   0.30522751  0.75000002  0.03715721
   0.11343925  0.75000002  0.48281612
   0.26597224  0.25000000  0.51718380
 
 position of ions in cartesian coordinates  (Angst):
   0.13670066  1.69446242  8.23724038
   8.97276745  5.08338737  3.36490290
   4.36803341  5.08338737  2.14651245
   4.74143467  1.69446242  9.45563060
   1.43528938  5.08338737 10.65740391
   7.67417870  1.69446242  0.94473913
   3.06944466  1.69446242  4.58506951
   6.04002342  5.08338737  7.01707425
   1.75026941  0.50061349  1.66313574
   7.35919867  6.27723612  9.93900731
   2.75446463  6.28372407  7.69994920
   6.35500345  0.49412555  3.90219409
   7.35919867  3.88953839  9.93900731
   1.75026941  2.88831129  1.66313574
   6.35500345  2.89479923  3.90219409
   2.75446463  3.88305044  7.69994920
   0.74692994  5.08338737  7.04299270
   8.36253796  1.69446242  4.55915059
   3.75780416  1.69446242  0.97668182
   5.35166416  5.08338737 10.62546123
   1.78111780  1.69446242 11.17104023
   7.32835016  5.08338737  0.43110323
   2.72361612  5.08338737  5.60170183
   6.38585195  1.69446242  6.00044051
 


--------------------------------------------------------------------------------------------------------


 k-point  1 :   0.0000 0.0000 0.0000  plane waves:   47989
 k-point  2 :   0.0000 0.1250 0.0000  plane waves:   47929
 k-point  3 :   0.0000 0.2500 0.0000  plane waves:   47901
 k-point  4 :   0.0000 0.3750 0.0000  plane waves:   47910
 k-point  5 :   0.0000 0.5000 0.0000  plane waves:   47868
 k-point  6 :   0.0000 0.0000 0.2000  plane waves:   48006
 k-point  7 :   0.0000 0.1250 0.2000  plane waves:   47967
 k-point  8 :   0.0000 0.2500 0.2000  plane waves:   47907
 k-point  9 :   0.0000 0.3750 0.2000  plane waves:   47884
 k-point 10 :   0.0000 0.5000 0.2000  plane waves:   47884
 k-point 11 :   0.0000 0.0000 0.4000  plane waves:   47922
 k-point 12 :   0.0000 0.1250 0.4000  plane waves:   47954
 k-point 13 :   0.0000 0.2500 0.4000  plane waves:   47967
 k-point 14 :   0.0000 0.3750 0.4000  plane waves:   47928
 k-point 15 :   0.0000 0.5000 0.4000  plane waves:   47890

 maximum and minimum number of plane-waves per node :     12077    11868

 maximum number of plane-waves:     48006
 maximum index in each direction: 
   IXMAX=   43   IYMAX=   12   IZMAX=   21
   IXMIN=  -43   IYMIN=  -12   IZMIN=  -21


 real space projection operators:
  total allocation   :       4532.14 KBytes
  max/ min on nodes  :       1135.14       1130.91


 parallel 3D FFT for wavefunctions:
    minimum data exchange during FFTs selected (reduces bandwidth)
 parallel 3D FFT for charge:
    minimum data exchange during FFTs selected (reduces bandwidth)


 total amount of memory used by VASP MPI-rank0    79349. kBytes
=======================================================================

   base      :      30000. kBytes
   nonlr-proj:       2643. kBytes
   fftplans  :       5898. kBytes
   grid      :       8824. kBytes
   one-center:         93. kBytes
   wavefun   :      31891. kBytes
 
     INWAV:  cpu time    0.0000: real time    0.0000
 Broyden mixing: mesh for mixing (old mesh)
   NGX = 87   NGY = 25   NGZ = 43
  (NGX  =280   NGY  = 80   NGZ  =128)
  gives a total of  93525 points

 initial charge density was supplied:
 charge density of overlapping atoms calculated
 number of electron     144.0000000 magnetization 
 keeping initial charge density in first step


--------------------------------------------------------------------------------------------------------


 Maximum index for non-local projection operator          745
 Maximum index for augmentation-charges          603 (set IRDMAX)


--------------------------------------------------------------------------------------------------------


 First call to EWALD:  gamma=   0.143
 Maximum number of real-space cells 2x 5x 3
 Maximum number of reciprocal cells 5x 2x 3

    FEWALD:  cpu time    0.0037: real time    0.0037


--------------------------------------- Iteration      1(   1)  ---------------------------------------


    POTLOK:  cpu time    0.0239: real time    0.1125
    SETDIJ:  cpu time    0.0030: real time    0.0031
     EDDAV:  cpu time    2.5530: real time    2.5889
 BZINTS: Fermi energy:  6.994016;144.000000 electrons
         Band energy:-492.845670;  BLOECHL correction: -0.025337
       DOS:  cpu time    0.0129: real time    0.0129
    --------------------------------------------
      LOOP:  cpu time    2.5928: real time    2.7174

 eigenvalue-minimisations  :  2768
 total energy-change (2. order) : 0.1173161E+04  (-0.4801712E+04)
 number of electron     144.0000000 magnetization 
 augmentation part      144.0000000 magnetization 

 Free energy of the ion-electron system (eV)
  ---------------------------------------------------
  alpha Z        PSCENC =       166.34077906
  Ewald energy   TEWEN  =     12352.86195074
  -Hartree energ DENC   =    -18475.43558204
  -exchange      EXHF   =         0.00000000
  -V(xc)+E(xc)   XCENC  =        46.92569640
  PAW double counting   =      3711.26622449    -3423.01674647
  entropy T*S    EENTRO =         0.00000000
  eigenvalues    EBANDS =      -492.84566974
  atomic energy  EATOM  =      7287.06411261
  Solvation  Ediel_sol  =         0.00000000
  ---------------------------------------------------
  free energy    TOTEN  =      1173.16076505 eV

  energy without entropy =     1173.16076505  energy(sigma->0) =     1173.16076505


--------------------------------------------------------------------------------------------------------




--------------------------------------- Iteration      1(   2)  ---------------------------------------


     EDDAV:  cpu time    3.2013: real time    3.2202
 BZINTS: Fermi energy: -2.062911;144.000000 electrons
         Band energy:***********;  BLOECHL correction:  0.000000
       DOS:  cpu time    0.0029: real time    0.0029
    --------------------------------------------
      LOOP:  cpu time    3.2042: real time    3.2231

 eigenvalue-minimisations  :  3736
 total energy-change (2. order) :-0.1123661E+04  (-0.1092252E+04)
 number of electron     144.0000000 magnetization 
 augmentation part      144.0000000 magnetization 

 Free energy of the ion-electron system (eV)
  ---------------------------------------------------
  alpha Z        PSCENC =       166.34077906
  Ewald energy   TEWEN  =     12352.86195074
  -Hartree energ DENC   =    -18475.43558204
  -exchange      EXHF   =         0.00000000
  -V(xc)+E(xc)   XCENC  =        46.92569640
  PAW double counting   =      3711.26622449    -3423.01674647
  entropy T*S    EENTRO =         0.00000000
  eigenvalues    EBANDS =     -1616.50698107
  atomic energy  EATOM  =      7287.06411261
  Solvation  Ediel_sol  =         0.00000000
  ---------------------------------------------------
  free energy    TOTEN  =        49.49945372 eV

  energy without entropy =       49.49945372  energy(sigma->0) =       49.49945372


--------------------------------------------------------------------------------------------------------




--------------------------------------- Iteration      1(   3)  ---------------------------------------


     EDDAV:  cpu time    3.1268: real time    3.1446
 BZINTS: Fermi energy: -3.421097;144.000000 electrons
         Band energy:***********;  BLOECHL correction:  0.000000
       DOS:  cpu time    0.0025: real time    0.0025
    --------------------------------------------
      LOOP:  cpu time    3.1294: real time    3.1472

 eigenvalue-minimisations  :  3224
 total energy-change (2. order) :-0.1685984E+03  (-0.1678453E+03)
 number of electron     144.0000000 magnetization 
 augmentation part      144.0000000 magnetization 

 Free energy of the ion-electron system (eV)
  ---------------------------------------------------
  alpha Z        PSCENC =       166.34077906
  Ewald energy   TEWEN  =     12352.86195074
  -Hartree energ DENC   =    -18475.43558204
  -exchange      EXHF   =         0.00000000
  -V(xc)+E(xc)   XCENC  =        46.92569640
  PAW double counting   =      3711.26622449    -3423.01674647
  entropy T*S    EENTRO =         0.00000000
  eigenvalues    EBANDS =     -1785.10540744
  atomic energy  EATOM  =      7287.06411261
  Solvation  Ediel_sol  =         0.00000000
  ---------------------------------------------------
  free energy    TOTEN  =      -119.09897265 eV

  energy without entropy =     -119.09897265  energy(sigma->0) =     -119.09897265


--------------------------------------------------------------------------------------------------------




--------------------------------------- Iteration      1(   4)  ---------------------------------------


     EDDAV:  cpu time    3.3639: real time    3.3842
 BZINTS: Fermi energy: -3.541365;144.000000 electrons
         Band energy:***********;  BLOECHL correction:  0.000000
       DOS:  cpu time    0.0026: real time    0.0026
    --------------------------------------------
      LOOP:  cpu time    3.3665: real time    3.3868

 eigenvalue-minimisations  :  3840
 total energy-change (2. order) :-0.6291019E+01  (-0.6273084E+01)
 number of electron     144.0000000 magnetization 
 augmentation part      144.0000000 magnetization 

 Free energy of the ion-electron system (eV)
  ---------------------------------------------------
  alpha Z        PSCENC =       166.34077906
  Ewald energy   TEWEN  =     12352.86195074
  -Hartree energ DENC   =    -18475.43558204
  -exchange      EXHF   =         0.00000000
  -V(xc)+E(xc)   XCENC  =        46.92569640
  PAW double counting   =      3711.26622449    -3423.01674647
  entropy T*S    EENTRO =         0.00000000
  eigenvalues    EBANDS =     -1791.39642656
  atomic energy  EATOM  =      7287.06411261
  Solvation  Ediel_sol  =         0.00000000
  ---------------------------------------------------
  free energy    TOTEN  =      -125.38999177 eV

  energy without entropy =     -125.38999177  energy(sigma->0) =     -125.38999177


--------------------------------------------------------------------------------------------------------




--------------------------------------- Iteration      1(   5)  ---------------------------------------


     EDDAV:  cpu time    3.8012: real time    3.8218
 BZINTS: Fermi energy: -3.531991;144.000000 electrons
         Band energy:***********;  BLOECHL correction:  0.000000
       DOS:  cpu time    0.0023: real time    0.0023
    CHARGE:  cpu time    0.1772: real time    0.1776
    MIXING:  cpu time    0.0057: real time    0.0059
    --------------------------------------------
      LOOP:  cpu time    3.9864: real time    4.0076

 eigenvalue-minimisations  :  4200
 total energy-change (2. order) :-0.3232626E+00  (-0.3231677E+00)
 number of electron     144.0000011 magnetization 
 augmentation part      -16.8763219 magnetization 

 Broyden mixing:
  rms(total) = 0.94889E+00    rms(broyden)= 0.94888E+00
  rms(prec ) = 0.12333E+01
  weight for this iteration     100.00

 Free energy of the ion-electron system (eV)
  ---------------------------------------------------
  alpha Z        PSCENC =       166.34077906
  Ewald energy   TEWEN  =     12352.86195074
  -Hartree energ DENC   =    -18475.43558204
  -exchange      EXHF   =         0.00000000
  -V(xc)+E(xc)   XCENC  =        46.92569640
  PAW double counting   =      3711.26622449    -3423.01674647
  entropy T*S    EENTRO =         0.00000000
  eigenvalues    EBANDS =     -1791.71968916
  atomic energy  EATOM  =      7287.06411261
  Solvation  Ediel_sol  =         0.00000000
  ---------------------------------------------------
  free energy    TOTEN  =      -125.71325438 eV

  energy without entropy =     -125.71325438  energy(sigma->0) =     -125.71325438


--------------------------------------------------------------------------------------------------------




--------------------------------------- Iteration      1(   6)  ---------------------------------------


    POTLOK:  cpu time    0.0216: real time    0.0327
    SETDIJ:  cpu time    0.0108: real time    0.0109
     EDDAV:  cpu time    3.1023: real time    3.1097
 BZINTS: Fermi energy: -2.372664;144.000000 electrons
         Band energy:***********;  BLOECHL correction:  0.000000
       DOS:  cpu time    0.0022: real time    0.0022
    CHARGE:  cpu time    0.1712: real time    0.1716
    MIXING:  cpu time    0.0064: real time    0.0065
    --------------------------------------------
      LOOP:  cpu time    3.3146: real time    3.3335

 eigenvalue-minimisations  :  3000
 total energy-change (2. order) : 0.8917255E+01  (-0.2266767E+01)
 number of electron     144.0000010 magnetization 
 augmentation part      -16.7558726 magnetization 

 Broyden mixing:
  rms(total) = 0.47168E+00    rms(broyden)= 0.47168E+00
  rms(prec ) = 0.58907E+00
  weight for this iteration     100.00

 eigenvalues of (default mixing * dielectric matrix)
  average eigenvalue GAMMA=   1.5175
  1.5175

 Free energy of the ion-electron system (eV)
  ---------------------------------------------------
  alpha Z        PSCENC =       166.34077906
  Ewald energy   TEWEN  =     12352.86195074
  -Hartree energ DENC   =    -18572.81454899
  -exchange      EXHF   =         0.00000000
  -V(xc)+E(xc)   XCENC  =        49.47707893
  PAW double counting   =      3748.56621575    -3468.14502132
  entropy T*S    EENTRO =         0.00000000
  eigenvalues    EBANDS =     -1680.14656627
  atomic energy  EATOM  =      7287.06411261
  Solvation  Ediel_sol  =         0.00000000
  ---------------------------------------------------
  free energy    TOTEN  =      -116.79599950 eV

  energy without entropy =     -116.79599950  energy(sigma->0) =     -116.79599950


--------------------------------------------------------------------------------------------------------




--------------------------------------- Iteration      1(   7)  ---------------------------------------


    POTLOK:  cpu time    0.0220: real time    0.0339
    SETDIJ:  cpu time    0.0028: real time    0.0028
     EDDAV:  cpu time    3.4775: real time    3.4858
 BZINTS: Fermi energy: -1.574369;144.000000 electrons
         Band energy:***********;  BLOECHL correction:  0.000000
       DOS:  cpu time    0.0021: real time    0.0021
    CHARGE:  cpu time    0.1628: real time    0.1632
    MIXING:  cpu time    0.0057: real time    0.0059
    --------------------------------------------
      LOOP:  cpu time    3.6730: real time    3.6938

 eigenvalue-minimisations  :  3592
 total energy-change (2. order) : 0.1384839E+01  (-0.1001563E+01)
 number of electron     144.0000010 magnetization 
 augmentation part      -16.9100565 magnetization 

 Broyden mixing:
  rms(total) = 0.23923E+00    rms(broyden)= 0.23923E+00
  rms(prec ) = 0.29035E+00
  weight for this iteration     100.00

 eigenvalues of (default mixing * dielectric matrix)
  average eigenvalue GAMMA=   1.7556
  1.7556  1.7556

 Free energy of the ion-electron system (eV)
  ---------------------------------------------------
  alpha Z        PSCENC =       166.34077906
  Ewald energy   TEWEN  =     12352.86195074
  -Hartree energ DENC   =    -18648.96624805
  -exchange      EXHF   =         0.00000000
  -V(xc)+E(xc)   XCENC  =        51.56275999
  PAW double counting   =      3794.99586831    -3520.85944121
  entropy T*S    EENTRO =         0.00000000
  eigenvalues    EBANDS =     -1598.41094170
  atomic energy  EATOM  =      7287.06411261
  Solvation  Ediel_sol  =         0.00000000
  ---------------------------------------------------
  free energy    TOTEN  =      -115.41116024 eV

  energy without entropy =     -115.41116024  energy(sigma->0) =     -115.41116024


--------------------------------------------------------------------------------------------------------




--------------------------------------- Iteration      1(   8)  ---------------------------------------


    POTLOK:  cpu time    0.0219: real time    0.0338
    SETDIJ:  cpu time    0.0018: real time    0.0018
     EDDAV:  cpu time    3.1028: real time    3.1101
 BZINTS: Fermi energy: -1.389373;144.000000 electrons
         Band energy:***********;  BLOECHL correction:  0.000000
       DOS:  cpu time    0.0026: real time    0.0026
    CHARGE:  cpu time    0.1625: real time    0.1629
    MIXING:  cpu time    0.0077: real time    0.0081
    --------------------------------------------
      LOOP:  cpu time    3.2993: real time    3.3192

 eigenvalue-minimisations  :  3112
 total energy-change (2. order) : 0.2938503E+00  (-0.3605113E+00)
 number of electron     144.0000010 magnetization 
 augmentation part      -17.0550328 magnetization 

 Broyden mixing:
  rms(total) = 0.11647E+00    rms(broyden)= 0.11647E+00
  rms(prec ) = 0.19177E+00
  weight for this iteration     100.00

 eigenvalues of (default mixing * dielectric matrix)
  average eigenvalue GAMMA=   1.6336
  2.5151  1.1928  1.1928

 Free energy of the ion-electron system (eV)
  ---------------------------------------------------
  alpha Z        PSCENC =       166.34077906
  Ewald energy   TEWEN  =     12352.86195074
  -Hartree energ DENC   =    -18680.86250210
  -exchange      EXHF   =         0.00000000
  -V(xc)+E(xc)   XCENC  =        52.44480622
  PAW double counting   =      3840.95130111    -3568.74252508
  entropy T*S    EENTRO =         0.00000000
  eigenvalues    EBANDS =     -1565.17523245
  atomic energy  EATOM  =      7287.06411261
  Solvation  Ediel_sol  =         0.00000000
  ---------------------------------------------------
  free energy    TOTEN  =      -115.11730990 eV

  energy without entropy =     -115.11730990  energy(sigma->0) =     -115.11730990


--------------------------------------------------------------------------------------------------------




--------------------------------------- Iteration      1(   9)  ---------------------------------------


    POTLOK:  cpu time    0.0194: real time    0.0308
    SETDIJ:  cpu time    0.0058: real time    0.0058
     EDDAV:  cpu time    2.7471: real time    2.7537
 BZINTS: Fermi energy: -1.047417;144.000000 electrons
         Band energy:***********;  BLOECHL correction:  0.000000
       DOS:  cpu time    0.0026: real time    0.0027
    CHARGE:  cpu time    0.1626: real time    0.1630
    MIXING:  cpu time    0.0095: real time    0.0095
    --------------------------------------------
      LOOP:  cpu time    2.9471: real time    2.9655

 eigenvalue-minimisations  :  3112
 total energy-change (2. order) : 0.2930712E+00  (-0.1182456E+00)
 number of electron     144.0000010 magnetization 
 augmentation part      -17.0402827 magnetization 

 Broyden mixing:
  rms(total) = 0.56146E-01    rms(broyden)= 0.56146E-01
  rms(prec ) = 0.80731E-01
  weight for this iteration     100.00

 eigenvalues of (default mixing * dielectric matrix)
  average eigenvalue GAMMA=   1.3802
  2.3797  1.1645  1.1645  0.8123

 Free energy of the ion-electron system (eV)
  ---------------------------------------------------
  alpha Z        PSCENC =       166.34077906
  Ewald energy   TEWEN  =     12352.86195074
  -Hartree energ DENC   =    -18723.12804353
  -exchange      EXHF   =         0.00000000
  -V(xc)+E(xc)   XCENC  =        53.31536704
  PAW double counting   =      3853.85131785    -3583.16657178
  entropy T*S    EENTRO =         0.00000000
  eigenvalues    EBANDS =     -1521.96315068
  atomic energy  EATOM  =      7287.06411261
  Solvation  Ediel_sol  =         0.00000000
  ---------------------------------------------------
  free energy    TOTEN  =      -114.82423869 eV

  energy without entropy =     -114.82423869  energy(sigma->0) =     -114.82423869


--------------------------------------------------------------------------------------------------------




--------------------------------------- Iteration      1(  10)  ---------------------------------------


    POTLOK:  cpu time    0.0210: real time    0.0314
    SETDIJ:  cpu time    0.0041: real time    0.0041
     EDDAV:  cpu time    3.5119: real time    3.5203
 BZINTS: Fermi energy: -0.997884;144.000000 electrons
         Band energy:***********;  BLOECHL correction:  0.000000
       DOS:  cpu time    0.0025: real time    0.0025
    CHARGE:  cpu time    0.1624: real time    0.1628
    MIXING:  cpu time    0.0059: real time    0.0059
    --------------------------------------------
      LOOP:  cpu time    3.7078: real time    3.7270

 eigenvalue-minimisations  :  3640
 total energy-change (2. order) :-0.6392541E-02  (-0.2266391E-01)
 number of electron     144.0000010 magnetization 
 augmentation part      -17.0798536 magnetization 

 Broyden mixing:
  rms(total) = 0.40616E-01    rms(broyden)= 0.40616E-01
  rms(prec ) = 0.62049E-01
  weight for this iteration     100.00

 eigenvalues of (default mixing * dielectric matrix)
  average eigenvalue GAMMA=   1.5758
  2.4413  2.4413  0.9613  0.9613  1.0739

 Free energy of the ion-electron system (eV)
  ---------------------------------------------------
  alpha Z        PSCENC =       166.34077906
  Ewald energy   TEWEN  =     12352.86195074
  -Hartree energ DENC   =    -18732.11756791
  -exchange      EXHF   =         0.00000000
  -V(xc)+E(xc)   XCENC  =        53.29189565
  PAW double counting   =      3849.27445021    -3578.18895717
  entropy T*S    EENTRO =         0.00000000
  eigenvalues    EBANDS =     -1513.35729440
  atomic energy  EATOM  =      7287.06411261
  Solvation  Ediel_sol  =         0.00000000
  ---------------------------------------------------
  free energy    TOTEN  =      -114.83063123 eV

  energy without entropy =     -114.83063123  energy(sigma->0) =     -114.83063123


--------------------------------------------------------------------------------------------------------




--------------------------------------- Iteration      1(  11)  ---------------------------------------


    POTLOK:  cpu time    0.0193: real time    0.0308
    SETDIJ:  cpu time    0.0039: real time    0.0039
     EDDAV:  cpu time    3.2083: real time    3.2160
 BZINTS: Fermi energy: -0.862446;144.000000 electrons
         Band energy:***********;  BLOECHL correction:  0.000000
       DOS:  cpu time    0.0021: real time    0.0021
    CHARGE:  cpu time    0.1653: real time    0.1657
    MIXING:  cpu time    0.0081: real time    0.0081
    --------------------------------------------
      LOOP:  cpu time    3.4070: real time    3.4266

 eigenvalue-minimisations  :  3256
 total energy-change (2. order) : 0.1972287E-01  (-0.4998860E-02)
 number of electron     144.0000010 magnetization 
 augmentation part      -17.0887732 magnetization 

 Broyden mixing:
  rms(total) = 0.15314E-01    rms(broyden)= 0.15314E-01
  rms(prec ) = 0.32261E-01
  weight for this iteration     100.00

 eigenvalues of (default mixing * dielectric matrix)
  average eigenvalue GAMMA=   1.5926
  2.7705  2.7341  1.1703  0.9439  0.9684  0.9684

 Free energy of the ion-electron system (eV)
  ---------------------------------------------------
  alpha Z        PSCENC =       166.34077906
  Ewald energy   TEWEN  =     12352.86195074
  -Hartree energ DENC   =    -18753.42059706
  -exchange      EXHF   =         0.00000000
  -V(xc)+E(xc)   XCENC  =        53.47488220
  PAW double counting   =      3850.55239766    -3579.13829801
  entropy T*S    EENTRO =         0.00000000
  eigenvalues    EBANDS =     -1492.54613556
  atomic energy  EATOM  =      7287.06411261
  Solvation  Ediel_sol  =         0.00000000
  ---------------------------------------------------
  free energy    TOTEN  =      -114.81090836 eV

  energy without entropy =     -114.81090836  energy(sigma->0) =     -114.81090836


--------------------------------------------------------------------------------------------------------




--------------------------------------- Iteration      1(  12)  ---------------------------------------


    POTLOK:  cpu time    0.0188: real time    0.0309
    SETDIJ:  cpu time    0.0061: real time    0.0061
     EDDAV:  cpu time    3.0569: real time    3.0641
 BZINTS: Fermi energy: -0.781944;144.000000 electrons
         Band energy:***********;  BLOECHL correction:  0.000000
       DOS:  cpu time    0.0025: real time    0.0025
    CHARGE:  cpu time    0.1465: real time    0.1469
    MIXING:  cpu time    0.0058: real time    0.0058
    --------------------------------------------
      LOOP:  cpu time    3.2366: real time    3.2564

 eigenvalue-minimisations  :  3248
 total energy-change (2. order) :-0.3216029E-03  (-0.1154245E-02)
 number of electron     144.0000010 magnetization 
 augmentation part      -17.0844501 magnetization 

 Broyden mixing:
  rms(total) = 0.12349E-01    rms(broyden)= 0.12349E-01
  rms(prec ) = 0.21639E-01
  weight for this iteration     100.00

 eigenvalues of (default mixing * dielectric matrix)
  average eigenvalue GAMMA=   1.7311
  3.8156  2.1360  2.1360  1.1135  1.1135  0.9013  0.9013

 Free energy of the ion-electron system (eV)
  ---------------------------------------------------
  alpha Z        PSCENC =       166.34077906
  Ewald energy   TEWEN  =     12352.86195074
  -Hartree energ DENC   =    -18766.58959692
  -exchange      EXHF   =         0.00000000
  -V(xc)+E(xc)   XCENC  =        53.55243784
  PAW double counting   =      3849.38662638    -3577.84822985
  entropy T*S    EENTRO =         0.00000000
  eigenvalues    EBANDS =     -1479.57930982
  atomic energy  EATOM  =      7287.06411261
  Solvation  Ediel_sol  =         0.00000000
  ---------------------------------------------------
  free energy    TOTEN  =      -114.81122997 eV

  energy without entropy =     -114.81122997  energy(sigma->0) =     -114.81122997


--------------------------------------------------------------------------------------------------------




--------------------------------------- Iteration      1(  13)  ---------------------------------------


    POTLOK:  cpu time    0.0188: real time    0.0300
    SETDIJ:  cpu time    0.0017: real time    0.0017
     EDDAV:  cpu time    2.9131: real time    2.9200
 BZINTS: Fermi energy: -0.712771;144.000000 electrons
         Band energy:***********;  BLOECHL correction:  0.000000
       DOS:  cpu time    0.0021: real time    0.0021
    CHARGE:  cpu time    0.1645: real time    0.1649
    MIXING:  cpu time    0.0077: real time    0.0077
    --------------------------------------------
      LOOP:  cpu time    3.1079: real time    3.1264

 eigenvalue-minimisations  :  3280
 total energy-change (2. order) :-0.6970030E-02  (-0.1002263E-02)
 number of electron     144.0000010 magnetization 
 augmentation part      -17.0851529 magnetization 

 Broyden mixing:
  rms(total) = 0.67087E-02    rms(broyden)= 0.67087E-02
  rms(prec ) = 0.11341E-01
  weight for this iteration     100.00

 eigenvalues of (default mixing * dielectric matrix)
  average eigenvalue GAMMA=   1.8088
  4.3825  2.5036  2.5036  1.2103  1.2103  0.8905  0.8905  0.8791

 Free energy of the ion-electron system (eV)
  ---------------------------------------------------
  alpha Z        PSCENC =       166.34077906
  Ewald energy   TEWEN  =     12352.86195074
  -Hartree energ DENC   =    -18778.66613715
  -exchange      EXHF   =         0.00000000
  -V(xc)+E(xc)   XCENC  =        53.63227377
  PAW double counting   =      3848.30411580    -3576.87936880
  entropy T*S    EENTRO =         0.00000000
  eigenvalues    EBANDS =     -1467.47592602
  atomic energy  EATOM  =      7287.06411261
  Solvation  Ediel_sol  =         0.00000000
  ---------------------------------------------------
  free energy    TOTEN  =      -114.81820000 eV

  energy without entropy =     -114.81820000  energy(sigma->0) =     -114.81820000


--------------------------------------------------------------------------------------------------------




--------------------------------------- Iteration      1(  14)  ---------------------------------------


    POTLOK:  cpu time    0.0220: real time    0.0337
    SETDIJ:  cpu time    0.0030: real time    0.0030
     EDDAV:  cpu time    3.0054: real time    3.0125
 BZINTS: Fermi energy: -0.603372;144.000000 electrons
         Band energy:***********;  BLOECHL correction:  0.000000
       DOS:  cpu time    0.0027: real time    0.0027
    CHARGE:  cpu time    0.1554: real time    0.1557
    MIXING:  cpu time    0.0067: real time    0.0068
    --------------------------------------------
      LOOP:  cpu time    3.1951: real time    3.2144

 eigenvalue-minimisations  :  3240
 total energy-change (2. order) :-0.5043413E-02  (-0.2441515E-03)
 number of electron     144.0000010 magnetization 
 augmentation part      -17.0850841 magnetization 

 Broyden mixing:
  rms(total) = 0.51146E-02    rms(broyden)= 0.51146E-02
  rms(prec ) = 0.83474E-02
  weight for this iteration     100.00

 eigenvalues of (default mixing * dielectric matrix)
  average eigenvalue GAMMA=   1.8610
  4.8867  2.8228  2.1360  1.6639  0.9122  0.9122  1.3361  1.0395  1.0395

 Free energy of the ion-electron system (eV)
  ---------------------------------------------------
  alpha Z        PSCENC =       166.34077906
  Ewald energy   TEWEN  =     12352.86195074
  -Hartree energ DENC   =    -18782.52427931
  -exchange      EXHF   =         0.00000000
  -V(xc)+E(xc)   XCENC  =        53.63535644
  PAW double counting   =      3847.22194591    -3575.78217673
  entropy T*S    EENTRO =         0.00000000
  eigenvalues    EBANDS =     -1463.64093213
  atomic energy  EATOM  =      7287.06411261
  Solvation  Ediel_sol  =         0.00000000
  ---------------------------------------------------
  free energy    TOTEN  =      -114.82324341 eV

  energy without entropy =     -114.82324341  energy(sigma->0) =     -114.82324341


--------------------------------------------------------------------------------------------------------




--------------------------------------- Iteration      1(  15)  ---------------------------------------


    POTLOK:  cpu time    0.0238: real time    0.0357
    SETDIJ:  cpu time    0.0073: real time    0.0073
     EDDAV:  cpu time    3.0472: real time    3.0544
 BZINTS: Fermi energy: -0.676578;144.000000 electrons
         Band energy:***********;  BLOECHL correction:  0.000000
       DOS:  cpu time    0.0021: real time    0.0021
    CHARGE:  cpu time    0.1622: real time    0.1626
    MIXING:  cpu time    0.0094: real time    0.0094
    --------------------------------------------
      LOOP:  cpu time    3.2520: real time    3.2716

 eigenvalue-minimisations  :  3088
 total energy-change (2. order) :-0.2417769E-02  (-0.1629575E-03)
 number of electron     144.0000010 magnetization 
 augmentation part      -17.0862023 magnetization 

 Broyden mixing:
  rms(total) = 0.21011E-02    rms(broyden)= 0.21011E-02
  rms(prec ) = 0.39032E-02
  weight for this iteration     100.00

 eigenvalues of (default mixing * dielectric matrix)
  average eigenvalue GAMMA=   1.9536
  5.6538  3.5105  2.3570  1.5015  1.3457  1.3457  0.9096  0.9096  1.0011  1.0011

 Free energy of the ion-electron system (eV)
  ---------------------------------------------------
  alpha Z        PSCENC =       166.34077906
  Ewald energy   TEWEN  =     12352.86195074
  -Hartree energ DENC   =    -18784.39298315
  -exchange      EXHF   =         0.00000000
  -V(xc)+E(xc)   XCENC  =        53.63202625
  PAW double counting   =      3847.44196310    -3575.97057920
  entropy T*S    EENTRO =         0.00000000
  eigenvalues    EBANDS =     -1461.80293059
  atomic energy  EATOM  =      7287.06411261
  Solvation  Ediel_sol  =         0.00000000
  ---------------------------------------------------
  free energy    TOTEN  =      -114.82566118 eV

  energy without entropy =     -114.82566118  energy(sigma->0) =     -114.82566118


--------------------------------------------------------------------------------------------------------




--------------------------------------- Iteration      1(  16)  ---------------------------------------


    POTLOK:  cpu time    0.0279: real time    0.0391
    SETDIJ:  cpu time    0.0021: real time    0.0021
     EDDAV:  cpu time    3.1037: real time    3.1111
 BZINTS: Fermi energy: -0.670574;144.000000 electrons
         Band energy:***********;  BLOECHL correction:  0.000000
       DOS:  cpu time    0.0021: real time    0.0021
    CHARGE:  cpu time    0.1666: real time    0.1670
    MIXING:  cpu time    0.0070: real time    0.0070
    --------------------------------------------
      LOOP:  cpu time    3.3094: real time    3.3283

 eigenvalue-minimisations  :  3144
 total energy-change (2. order) :-0.1242934E-02  (-0.6380729E-04)
 number of electron     144.0000010 magnetization 
 augmentation part      -17.0858956 magnetization 

 Broyden mixing:
  rms(total) = 0.14566E-02    rms(broyden)= 0.14566E-02
  rms(prec ) = 0.26057E-02
  weight for this iteration     100.00

 eigenvalues of (default mixing * dielectric matrix)
  average eigenvalue GAMMA=   2.0006
  5.7751  3.9671  2.1267  2.1267  1.6883  0.9132  0.9132  1.2744  1.2744  0.9738
  0.9738

 Free energy of the ion-electron system (eV)
  ---------------------------------------------------
  alpha Z        PSCENC =       166.34077906
  Ewald energy   TEWEN  =     12352.86195074
  -Hartree energ DENC   =    -18785.53314395
  -exchange      EXHF   =         0.00000000
  -V(xc)+E(xc)   XCENC  =        53.62966348
  PAW double counting   =      3847.41703075    -3575.95733462
  entropy T*S    EENTRO =         0.00000000
  eigenvalues    EBANDS =     -1460.64996218
  atomic energy  EATOM  =      7287.06411261
  Solvation  Ediel_sol  =         0.00000000
  ---------------------------------------------------
  free energy    TOTEN  =      -114.82690411 eV

  energy without entropy =     -114.82690411  energy(sigma->0) =     -114.82690411


--------------------------------------------------------------------------------------------------------




--------------------------------------- Iteration      1(  17)  ---------------------------------------


    POTLOK:  cpu time    0.0185: real time    0.0302
    SETDIJ:  cpu time    0.0091: real time    0.0091
     EDDAV:  cpu time    3.0045: real time    3.0115
 BZINTS: Fermi energy: -0.581777;144.000000 electrons
         Band energy:***********;  BLOECHL correction:  0.000000
       DOS:  cpu time    0.0024: real time    0.0024
    CHARGE:  cpu time    0.1667: real time    0.1671
    MIXING:  cpu time    0.0065: real time    0.0065
    --------------------------------------------
      LOOP:  cpu time    3.2076: real time    3.2269

 eigenvalue-minimisations  :  3032
 total energy-change (2. order) :-0.8336954E-03  (-0.2446499E-04)
 number of electron     144.0000010 magnetization 
 augmentation part      -17.0860221 magnetization 

 Broyden mixing:
  rms(total) = 0.75709E-03    rms(broyden)= 0.75709E-03
  rms(prec ) = 0.15676E-02
  weight for this iteration     100.00

 eigenvalues of (default mixing * dielectric matrix)
  average eigenvalue GAMMA=   2.0420
  6.0359  4.5490  2.5292  2.2916  1.6261  1.3244  1.3244  0.9127  0.9127  0.9549
  1.0212  1.0212

 Free energy of the ion-electron system (eV)
  ---------------------------------------------------
  alpha Z        PSCENC =       166.34077906
  Ewald energy   TEWEN  =     12352.86195074
  -Hartree energ DENC   =    -18786.25631587
  -exchange      EXHF   =         0.00000000
  -V(xc)+E(xc)   XCENC  =        53.62951585
  PAW double counting   =      3847.41724299    -3575.95458271
  entropy T*S    EENTRO =         0.00000000
  eigenvalues    EBANDS =     -1459.93044048
  atomic energy  EATOM  =      7287.06411261
  Solvation  Ediel_sol  =         0.00000000
  ---------------------------------------------------
  free energy    TOTEN  =      -114.82773781 eV

  energy without entropy =     -114.82773781  energy(sigma->0) =     -114.82773781


--------------------------------------------------------------------------------------------------------




--------------------------------------- Iteration      1(  18)  ---------------------------------------


    POTLOK:  cpu time    0.0197: real time    0.0304
    SETDIJ:  cpu time    0.0046: real time    0.0046
     EDDAV:  cpu time    2.7663: real time    2.7728
 BZINTS: Fermi energy: -0.581511;144.000000 electrons
         Band energy:***********;  BLOECHL correction:  0.000000
       DOS:  cpu time    0.0025: real time    0.0025
    CHARGE:  cpu time    0.1727: real time    0.1731
    MIXING:  cpu time    0.0067: real time    0.0067
    --------------------------------------------
      LOOP:  cpu time    2.9724: real time    2.9901

 eigenvalue-minimisations  :  2704
 total energy-change (2. order) :-0.4866395E-03  (-0.1364929E-04)
 number of electron     144.0000010 magnetization 
 augmentation part      -17.0861189 magnetization 

 Broyden mixing:
  rms(total) = 0.54689E-03    rms(broyden)= 0.54689E-03
  rms(prec ) = 0.10168E-02
  weight for this iteration     100.00

 eigenvalues of (default mixing * dielectric matrix)
  average eigenvalue GAMMA=   2.1081
  6.2347  5.2288  2.8589  2.3871  1.8534  1.4096  1.4096  0.9118  0.9118  1.1530
  1.1530  0.9472  0.9472

 Free energy of the ion-electron system (eV)
  ---------------------------------------------------
  alpha Z        PSCENC =       166.34077906
  Ewald energy   TEWEN  =     12352.86195074
  -Hartree energ DENC   =    -18786.76442226
  -exchange      EXHF   =         0.00000000
  -V(xc)+E(xc)   XCENC  =        53.63048150
  PAW double counting   =      3847.44885851    -3575.98700088
  entropy T*S    EENTRO =         0.00000000
  eigenvalues    EBANDS =     -1459.42298372
  atomic energy  EATOM  =      7287.06411261
  Solvation  Ediel_sol  =         0.00000000
  ---------------------------------------------------
  free energy    TOTEN  =      -114.82822445 eV

  energy without entropy =     -114.82822445  energy(sigma->0) =     -114.82822445


--------------------------------------------------------------------------------------------------------




--------------------------------------- Iteration      1(  19)  ---------------------------------------


    POTLOK:  cpu time    0.0203: real time    0.0325
    SETDIJ:  cpu time    0.0016: real time    0.0016
     EDDAV:  cpu time    2.6771: real time    2.6835
 BZINTS: Fermi energy: -0.582998;144.000000 electrons
         Band energy:***********;  BLOECHL correction:  0.000000
       DOS:  cpu time    0.0025: real time    0.0025
    CHARGE:  cpu time    0.1654: real time    0.1658
    MIXING:  cpu time    0.0073: real time    0.0074
    --------------------------------------------
      LOOP:  cpu time    2.8742: real time    2.8932

 eigenvalue-minimisations  :  2608
 total energy-change (2. order) :-0.6253970E-03  (-0.8080228E-05)
 number of electron     144.0000010 magnetization 
 augmentation part      -17.0863611 magnetization 

 Broyden mixing:
  rms(total) = 0.39502E-03    rms(broyden)= 0.39502E-03
  rms(prec ) = 0.60817E-03
  weight for this iteration     100.00

 eigenvalues of (default mixing * dielectric matrix)
  average eigenvalue GAMMA=   2.1749
  6.1267  6.1267  3.1551  2.5361  2.0892  1.5719  1.5719  0.9119  0.9119  1.2419
  1.2419  0.9954  0.9954  0.9720

 Free energy of the ion-electron system (eV)
  ---------------------------------------------------
  alpha Z        PSCENC =       166.34077906
  Ewald energy   TEWEN  =     12352.86195074
  -Hartree energ DENC   =    -18787.07962604
  -exchange      EXHF   =         0.00000000
  -V(xc)+E(xc)   XCENC  =        53.62983574
  PAW double counting   =      3847.44009503    -3575.97643011
  entropy T*S    EENTRO =         0.00000000
  eigenvalues    EBANDS =     -1459.10956687
  atomic energy  EATOM  =      7287.06411261
  Solvation  Ediel_sol  =         0.00000000
  ---------------------------------------------------
  free energy    TOTEN  =      -114.82884984 eV

  energy without entropy =     -114.82884984  energy(sigma->0) =     -114.82884984


--------------------------------------------------------------------------------------------------------




--------------------------------------- Iteration      1(  20)  ---------------------------------------


    POTLOK:  cpu time    0.0195: real time    0.0315
    SETDIJ:  cpu time    0.0016: real time    0.0016
     EDDAV:  cpu time    2.6625: real time    2.6689
 BZINTS: Fermi energy: -0.585740;144.000000 electrons
         Band energy:***********;  BLOECHL correction:  0.000000
       DOS:  cpu time    0.0023: real time    0.0023
    CHARGE:  cpu time    0.1682: real time    0.1686
    MIXING:  cpu time    0.0073: real time    0.0074
    --------------------------------------------
      LOOP:  cpu time    2.8615: real time    2.8802

 eigenvalue-minimisations  :  2576
 total energy-change (2. order) :-0.3867486E-03  (-0.5543626E-05)
 number of electron     144.0000010 magnetization 
 augmentation part      -17.0864404 magnetization 

 Broyden mixing:
  rms(total) = 0.17744E-03    rms(broyden)= 0.17744E-03
  rms(prec ) = 0.25396E-03
  weight for this iteration     100.00

 eigenvalues of (default mixing * dielectric matrix)
  average eigenvalue GAMMA=   2.2876
  6.9289  6.9289  3.7099  2.7689  2.3096  1.6052  1.6052  0.9119  0.9119  1.2489
  1.2489  1.1123  1.1123  0.9557  0.9557

 Free energy of the ion-electron system (eV)
  ---------------------------------------------------
  alpha Z        PSCENC =       166.34077906
  Ewald energy   TEWEN  =     12352.86195074
  -Hartree energ DENC   =    -18787.18499351
  -exchange      EXHF   =         0.00000000
  -V(xc)+E(xc)   XCENC  =        53.62959696
  PAW double counting   =      3847.43756291    -3575.97289558
  entropy T*S    EENTRO =         0.00000000
  eigenvalues    EBANDS =     -1459.00534977
  atomic energy  EATOM  =      7287.06411261
  Solvation  Ediel_sol  =         0.00000000
  ---------------------------------------------------
  free energy    TOTEN  =      -114.82923659 eV

  energy without entropy =     -114.82923659  energy(sigma->0) =     -114.82923659


--------------------------------------------------------------------------------------------------------




--------------------------------------- Iteration      1(  21)  ---------------------------------------


    POTLOK:  cpu time    0.0207: real time    0.0308
    SETDIJ:  cpu time    0.0017: real time    0.0017
     EDDAV:  cpu time    2.5388: real time    2.5448
 BZINTS: Fermi energy: -0.588853;144.000000 electrons
         Band energy:***********;  BLOECHL correction:  0.000000
       DOS:  cpu time    0.0028: real time    0.0028
    CHARGE:  cpu time    0.1795: real time    0.1799
    MIXING:  cpu time    0.0075: real time    0.0076
    --------------------------------------------
      LOOP:  cpu time    2.7510: real time    2.7676

 eigenvalue-minimisations  :  2424
 total energy-change (2. order) :-0.1461232E-03  (-0.1645488E-05)
 number of electron     144.0000010 magnetization 
 augmentation part      -17.0863808 magnetization 

 Broyden mixing:
  rms(total) = 0.10787E-03    rms(broyden)= 0.10787E-03
  rms(prec ) = 0.13398E-03
  weight for this iteration     100.00

 eigenvalues of (default mixing * dielectric matrix)
  average eigenvalue GAMMA=   2.3514
  7.5212  7.5212  3.8453  2.9695  2.3399  1.8449  1.8449  0.9119  0.9119  1.2935
  1.2935  1.1996  1.1996  0.9647  0.9647  0.9961

 Free energy of the ion-electron system (eV)
  ---------------------------------------------------
  alpha Z        PSCENC =       166.34077906
  Ewald energy   TEWEN  =     12352.86195074
  -Hartree energ DENC   =    -18787.22230469
  -exchange      EXHF   =         0.00000000
  -V(xc)+E(xc)   XCENC  =        53.62928532
  PAW double counting   =      3847.41990252    -3575.95544683
  entropy T*S    EENTRO =         0.00000000
  eigenvalues    EBANDS =     -1458.96766144
  atomic energy  EATOM  =      7287.06411261
  Solvation  Ediel_sol  =         0.00000000
  ---------------------------------------------------
  free energy    TOTEN  =      -114.82938272 eV

  energy without entropy =     -114.82938272  energy(sigma->0) =     -114.82938272


--------------------------------------------------------------------------------------------------------




--------------------------------------- Iteration      1(  22)  ---------------------------------------


    POTLOK:  cpu time    0.0202: real time    0.0319
    SETDIJ:  cpu time    0.0068: real time    0.0068
     EDDAV:  cpu time    2.5526: real time    2.5586
 BZINTS: Fermi energy: -0.592200;144.000000 electrons
         Band energy:***********;  BLOECHL correction:  0.000000
       DOS:  cpu time    0.0024: real time    0.0024
    CHARGE:  cpu time    0.1725: real time    0.1730
    MIXING:  cpu time    0.0069: real time    0.0069
    --------------------------------------------
      LOOP:  cpu time    2.7613: real time    2.7795

 eigenvalue-minimisations  :  2344
 total energy-change (2. order) :-0.4253268E-04  (-0.3801948E-06)
 number of electron     144.0000010 magnetization 
 augmentation part      -17.0863734 magnetization 

 Broyden mixing:
  rms(total) = 0.43720E-04    rms(broyden)= 0.43720E-04
  rms(prec ) = 0.57337E-04
  weight for this iteration     100.00

 eigenvalues of (default mixing * dielectric matrix)
  average eigenvalue GAMMA=   2.3708
  8.7480  7.0468  4.1493  3.0785  2.5038  1.9951  1.7312  0.9119  0.9119  1.3423
  1.3423  1.2738  1.2738  1.0496  1.0496  0.9481  0.9481

 Free energy of the ion-electron system (eV)
  ---------------------------------------------------
  alpha Z        PSCENC =       166.34077906
  Ewald energy   TEWEN  =     12352.86195074
  -Hartree energ DENC   =    -18787.21539742
  -exchange      EXHF   =         0.00000000
  -V(xc)+E(xc)   XCENC  =        53.62900314
  PAW double counting   =      3847.40564657    -3575.94134081
  entropy T*S    EENTRO =         0.00000000
  eigenvalues    EBANDS =     -1458.97417913
  atomic energy  EATOM  =      7287.06411261
  Solvation  Ediel_sol  =         0.00000000
  ---------------------------------------------------
  free energy    TOTEN  =      -114.82942525 eV

  energy without entropy =     -114.82942525  energy(sigma->0) =     -114.82942525


--------------------------------------------------------------------------------------------------------




--------------------------------------- Iteration      1(  23)  ---------------------------------------


    POTLOK:  cpu time    0.0190: real time    0.0303
    SETDIJ:  cpu time    0.0035: real time    0.0035
     EDDAV:  cpu time    2.3721: real time    2.3777
 BZINTS: Fermi energy: -0.595292;144.000000 electrons
         Band energy:***********;  BLOECHL correction:  0.000000
       DOS:  cpu time    0.0025: real time    0.0025
    CHARGE:  cpu time    0.1696: real time    0.1700
    MIXING:  cpu time    0.0075: real time    0.0075
    --------------------------------------------
      LOOP:  cpu time    2.5742: real time    2.5915

 eigenvalue-minimisations  :  2096
 total energy-change (2. order) :-0.1411602E-04  (-0.1015658E-06)
 number of electron     144.0000010 magnetization 
 augmentation part      -17.0863790 magnetization 

 Broyden mixing:
  rms(total) = 0.21057E-04    rms(broyden)= 0.21057E-04
  rms(prec ) = 0.28148E-04
  weight for this iteration     100.00

 eigenvalues of (default mixing * dielectric matrix)
  average eigenvalue GAMMA=   2.3801
  8.8692  7.1536  4.1978  3.3058  2.4764  2.1235  1.9612  1.9612  0.9119  0.9119
  1.2755  1.2755  1.2252  1.2252  1.0530  0.9609  0.9609  0.9933

 Free energy of the ion-electron system (eV)
  ---------------------------------------------------
  alpha Z        PSCENC =       166.34077906
  Ewald energy   TEWEN  =     12352.86195074
  -Hartree energ DENC   =    -18787.22160072
  -exchange      EXHF   =         0.00000000
  -V(xc)+E(xc)   XCENC  =        53.62904062
  PAW double counting   =      3847.40567468    -3575.94149695
  entropy T*S    EENTRO =         0.00000000
  eigenvalues    EBANDS =     -1458.96789940
  atomic energy  EATOM  =      7287.06411261
  Solvation  Ediel_sol  =         0.00000000
  ---------------------------------------------------
  free energy    TOTEN  =      -114.82943936 eV

  energy without entropy =     -114.82943936  energy(sigma->0) =     -114.82943936


--------------------------------------------------------------------------------------------------------




--------------------------------------- Iteration      1(  24)  ---------------------------------------


    POTLOK:  cpu time    0.0186: real time    0.0305
    SETDIJ:  cpu time    0.0054: real time    0.0055
     EDDAV:  cpu time    2.2785: real time    2.2839
 BZINTS: Fermi energy: -0.598316;144.000000 electrons
         Band energy:***********;  BLOECHL correction:  0.000000
       DOS:  cpu time    0.0025: real time    0.0026
    CHARGE:  cpu time    0.1856: real time    0.1860
    MIXING:  cpu time    0.0141: real time    0.0142
    --------------------------------------------
      LOOP:  cpu time    2.5048: real time    2.5226

 eigenvalue-minimisations  :  1912
 total energy-change (2. order) :-0.3399644E-05  (-0.2389951E-07)
 number of electron     144.0000010 magnetization 
 augmentation part      -17.0863840 magnetization 

 Broyden mixing:
  rms(total) = 0.10091E-04    rms(broyden)= 0.10091E-04
  rms(prec ) = 0.15580E-04
  weight for this iteration     100.00

 eigenvalues of (default mixing * dielectric matrix)
  average eigenvalue GAMMA=   2.3647
  9.1460  7.0488  4.4182  3.4285  2.6981  2.4627  1.8402  1.8402  0.9119  0.9119
  1.2736  1.2736  1.3094  1.3094  1.0809  1.0809  0.9563  0.9563  0.9819

 Free energy of the ion-electron system (eV)
  ---------------------------------------------------
  alpha Z        PSCENC =       166.34077906
  Ewald energy   TEWEN  =     12352.86195074
  -Hartree energ DENC   =    -18787.21916265
  -exchange      EXHF   =         0.00000000
  -V(xc)+E(xc)   XCENC  =        53.62900511
  PAW double counting   =      3847.40876327    -3575.94455656
  entropy T*S    EENTRO =         0.00000000
  eigenvalues    EBANDS =     -1458.97033433
  atomic energy  EATOM  =      7287.06411261
  Solvation  Ediel_sol  =         0.00000000
  ---------------------------------------------------
  free energy    TOTEN  =      -114.82944276 eV

  energy without entropy =     -114.82944276  energy(sigma->0) =     -114.82944276


--------------------------------------------------------------------------------------------------------




--------------------------------------- Iteration      1(  25)  ---------------------------------------


    POTLOK:  cpu time    0.0304: real time    0.0401
    SETDIJ:  cpu time    0.0019: real time    0.0019
     EDDAV:  cpu time    2.1444: real time    2.1494
 BZINTS: Fermi energy: -0.601152;144.000000 electrons
         Band energy:***********;  BLOECHL correction:  0.000000
       DOS:  cpu time    0.0025: real time    0.0025
    CHARGE:  cpu time    0.1675: real time    0.1679
    MIXING:  cpu time    0.0096: real time    0.0097
    --------------------------------------------
      LOOP:  cpu time    2.3563: real time    2.3716

 eigenvalue-minimisations  :  1856
 total energy-change (2. order) :-0.1118258E-05  (-0.1571672E-07)
 number of electron     144.0000010 magnetization 
 augmentation part      -17.0863886 magnetization 

 Broyden mixing:
  rms(total) = 0.63137E-05    rms(broyden)= 0.63136E-05
  rms(prec ) = 0.94434E-05
  weight for this iteration     100.00

 eigenvalues of (default mixing * dielectric matrix)
  average eigenvalue GAMMA=   2.3610
  9.1203  7.0851  4.4811  3.6188  2.7653  2.5549  2.0335  2.0335  0.9119  0.9119
  1.4679  1.4679  1.2584  1.2584  1.1753  1.1753  0.9606  0.9606  1.0240  0.9549

 Free energy of the ion-electron system (eV)
  ---------------------------------------------------
  alpha Z        PSCENC =       166.34077906
[...]
      7     -27.9796      2.00000
      8     -27.9792      2.00000
      9     -14.9842      2.00000
     10     -14.9840      2.00000
     11     -14.9268      2.00000
     12     -14.9268      2.00000
     13     -14.8631      2.00000
     14     -14.8631      2.00000
     15     -14.0111      2.00000
     16     -14.0095      2.00000
     17     -13.9570      2.00000
     18     -13.9445      2.00000
     19     -13.9099      2.00000
     20     -13.8982      2.00000
     21     -13.8864      2.00000
     22     -13.8793      2.00000
     23     -13.8790      2.00000
     24     -13.8777      2.00000
     25     -13.8256      2.00000
     26     -13.8189      2.00000
     27     -13.3216      2.00000
     28     -13.3107      2.00000
     29     -13.2800      2.00000
     30     -13.2721      2.00000
     31     -13.2417      2.00000
     32     -13.2409      2.00000
     33     -11.2478      2.00000
     34     -11.2351      2.00000
     35     -10.8799      2.00000
     36     -10.8647      2.00000
     37      -6.6002      2.00000
     38      -6.5833      2.00000
     39      -6.3789      2.00000
     40      -6.3407      2.00000
     41      -6.3078      2.00000
     42      -6.2772      2.00000
     43      -6.0333      2.00000
     44      -6.0167      2.00000
     45      -5.9814      2.00000
     46      -5.9290      2.00000
     47      -5.8914      2.00000
     48      -5.7929      2.00000
     49      -2.9900      2.00000
     50      -2.8978      2.00000
     51      -2.7209      2.00000
     52      -2.6740      2.00000
     53      -2.3988      2.00000
     54      -2.3308      2.00000
     55      -2.3051      2.00000
     56      -2.2666      2.00000
     57      -2.1198      2.00000
     58      -2.0975      2.00000
     59      -1.9653      2.00000
     60      -1.8942      2.00000
     61      -1.8236      2.00000
     62      -1.7618      2.00000
     63      -1.6617      2.00000
     64      -1.5954      2.00000
     65      -1.4878      2.00000
     66      -1.4134      2.00000
     67      -1.3201      2.00000
     68      -1.2052      2.00000
     69      -1.0957      2.00000
     70      -0.9821      2.00000
     71      -0.9511      2.00000
     72      -0.8782      2.00000
     73       0.1772      0.00000
     74       0.2068      0.00000
     75       0.3364      0.00000
     76       0.3804      0.00000
     77       0.4359      0.00000
     78       0.5732      0.00000
     79       0.6801      0.00000
     80       0.7274      0.00000
     81       0.7581      0.00000
     82       0.9303      0.00000
     83       1.0433      0.00000
     84       1.1331      0.00000
     85       1.1984      0.00000
     86       1.3509      0.00000
     87       1.4571      0.00000
     88       1.5621      0.00000

 k-point    15 :       0.0000    0.5000    0.4000
  band No.  band energies     occupation 
      1     -29.7143      2.00000
      2     -29.7143      2.00000
      3     -28.6531      2.00000
      4     -28.6531      2.00000
      5     -28.6166      2.00000
      6     -28.6166      2.00000
      7     -27.9794      2.00000
      8     -27.9794      2.00000
      9     -14.9835      2.00000
     10     -14.9835      2.00000
     11     -14.9277      2.00000
     12     -14.9277      2.00000
     13     -14.8652      2.00000
     14     -14.8652      2.00000
     15     -14.0096      2.00000
     16     -14.0096      2.00000
     17     -13.9526      2.00000
     18     -13.9526      2.00000
     19     -13.9079      2.00000
     20     -13.9079      2.00000
     21     -13.8853      2.00000
     22     -13.8853      2.00000
     23     -13.8777      2.00000
     24     -13.8777      2.00000
     25     -13.8214      2.00000
     26     -13.8214      2.00000
     27     -13.3161      2.00000
     28     -13.3161      2.00000
     29     -13.2755      2.00000
     30     -13.2754      2.00000
     31     -13.2412      2.00000
     32     -13.2412      2.00000
     33     -11.2362      2.00000
     34     -11.2362      2.00000
     35     -10.8626      2.00000
     36     -10.8625      2.00000
     37      -6.6192      2.00000
     38      -6.6192      2.00000
     39      -6.3324      2.00000
     40      -6.3324      2.00000
     41      -6.2938      2.00000
     42      -6.2938      2.00000
     43      -6.0008      2.00000
     44      -6.0007      2.00000
     45      -5.9618      2.00000
     46      -5.9618      2.00000
     47      -5.8438      2.00000
     48      -5.8437      2.00000
     49      -2.8981      2.00000
     50      -2.8981      2.00000
     51      -2.7149      2.00000
     52      -2.7149      2.00000
     53      -2.3703      2.00000
     54      -2.3703      2.00000
     55      -2.2932      2.00000
     56      -2.2932      2.00000
     57      -2.1087      2.00000
     58      -2.1087      2.00000
     59      -1.8743      2.00000
     60      -1.8743      2.00000
     61      -1.6955      2.00000
     62      -1.6955      2.00000
     63      -1.6750      2.00000
     64      -1.6750      2.00000
     65      -1.4680      2.00000
     66      -1.4680      2.00000
     67      -1.2562      2.00000
     68      -1.2562      2.00000
     69      -1.0843      2.00000
     70      -1.0843      2.00000
     71      -0.9142      2.00000
     72      -0.9142      2.00000
     73       0.0879      0.00000
     74       0.0879      0.00000
     75       0.3194      0.00000
     76       0.3194      0.00000
     77       0.4960      0.00000
     78       0.4960      0.00000
     79       0.6783      0.00000
     80       0.6783      0.00000
     81       0.7598      0.00000
     82       0.7598      0.00000
     83       1.0935      0.00000
     84       1.0935      0.00000
     85       1.3206      0.00000
     86       1.3206      0.00000
     87       1.4300      0.00000
     88       1.4300      0.00000


--------------------------------------------------------------------------------------------------------


 soft charge-density along one line, spin component           1
         0         1         2         3         4         5         6         7         8         9
 total charge-density along one line
 
 pseudopotential strength for first ion, spin component:           1
  3.745  -5.740  -0.000  -0.009  -0.038  -0.000  -0.004  -0.018
 -5.740  -3.004   0.000   0.002   0.009  -0.000  -0.002  -0.007
 -0.000   0.000  -7.156  -0.000  -0.000   1.861  -0.000  -0.000
 -0.009   0.002  -0.000  -7.152  -0.001  -0.000   1.871  -0.004
 -0.038   0.009  -0.000  -0.001  -7.152  -0.000  -0.004   1.872
 -0.000  -0.000   1.861  -0.000  -0.000   7.201  -0.000  -0.000
 -0.004  -0.002  -0.000   1.871  -0.004  -0.000   7.202  -0.000
 -0.018  -0.007  -0.000  -0.004   1.872  -0.000  -0.000   7.203
 -0.000   0.000  -0.013  -0.000  -0.000  -0.010  -0.000  -0.000
 -0.000   0.000  -0.002  -0.000  -0.000  -0.001  -0.000  -0.000
  0.002  -0.001   0.000  -0.004   0.007   0.000  -0.003   0.005
 -0.002   0.001  -0.000  -0.013  -0.003  -0.000  -0.009  -0.002
  0.003  -0.001   0.000  -0.001  -0.012   0.000  -0.001  -0.009
  0.000   0.000   0.001   0.000   0.000   0.000   0.000   0.000
  0.000   0.000   0.000   0.000   0.000  -0.000   0.000   0.000
 -0.000  -0.000  -0.000   0.000  -0.000  -0.000   0.000  -0.000
  0.000   0.000   0.000   0.001   0.000   0.000   0.000   0.000
 -0.000  -0.000  -0.000   0.000   0.001  -0.000   0.000   0.000
 total augmentation occupancy for first ion, spin component:           1
  2.117  -0.284   0.000   0.014   0.054   0.000  -0.006  -0.019   0.000   0.000   0.011  -0.013   0.034   0.000  -0.000  -0.006
 -0.284   0.654   0.000  -0.036  -0.135   0.000   0.014   0.034   0.000   0.000  -0.017   0.019  -0.064   0.000   0.000   0.030
  0.000   0.000   2.011   0.000   0.000  -0.011  -0.000   0.000  -0.081   0.019  -0.000   0.000  -0.000   0.058  -0.040   0.000
  0.014  -0.036  -0.000   2.000   0.003   0.000  -0.003  -0.002   0.000   0.000  -0.045  -0.068  -0.014   0.000   0.000   0.037
  0.054  -0.135   0.000   0.003   1.995   0.000  -0.002  -0.001   0.000   0.000   0.033  -0.008  -0.052   0.000   0.000  -0.022
  0.000   0.000  -0.011   0.000   0.000   0.008   0.000   0.000   0.022  -0.008   0.000  -0.000   0.000  -0.029   0.013   0.000
 -0.006   0.014  -0.000  -0.003  -0.002  -0.000   0.005   0.001   0.000   0.000   0.016   0.016   0.005   0.000   0.000  -0.023
 -0.019   0.034   0.000  -0.002  -0.001   0.000   0.001   0.005   0.000   0.000  -0.006   0.001   0.009   0.000   0.000   0.008
  0.000  -0.000  -0.081  -0.000  -0.000   0.022   0.000   0.000   0.142  -0.011   0.000   0.000  -0.000  -0.180   0.016  -0.000
  0.000   0.000   0.019   0.000   0.000  -0.008   0.000   0.000  -0.011   0.070   0.000   0.000  -0.000   0.014  -0.088   0.000
  0.011  -0.017   0.000  -0.045   0.033   0.000   0.016  -0.006  -0.000   0.000   0.125   0.051   0.020   0.000   0.000  -0.152
 -0.013   0.019   0.000  -0.068  -0.008  -0.000   0.016   0.001   0.000   0.000   0.051   0.091   0.010  -0.000   0.000  -0.071
  0.034  -0.064   0.000  -0.014  -0.052   0.000   0.005   0.009   0.000   0.000   0.020   0.010   0.100   0.000   0.000  -0.028
  0.000   0.000   0.058   0.000   0.000  -0.029  -0.000   0.000  -0.180   0.014  -0.000  -0.000   0.000   0.256  -0.029   0.000
  0.000  -0.000  -0.040   0.000   0.000   0.013   0.000   0.000   0.016  -0.088   0.000   0.000  -0.000  -0.029   0.119   0.000
 -0.006   0.030   0.000   0.037  -0.022   0.000  -0.023   0.008   0.000   0.000  -0.152  -0.071  -0.028   0.000   0.000   0.208
  0.009  -0.039  -0.000   0.047  -0.002   0.000  -0.024  -0.002   0.000   0.000  -0.069  -0.116  -0.014  -0.000   0.000   0.107
 -0.026   0.079   0.000   0.020   0.034   0.000  -0.008  -0.012   0.000   0.000  -0.030  -0.016  -0.130   0.000   0.000   0.047


------------------------ aborting loop because EDIFF is reached ----------------------------------------


    CHARGE:  cpu time    0.1791: real time    0.1795
    FORLOC:  cpu time    0.0103: real time    0.0103
    FORNL :  cpu time    0.6512: real time    0.6527
    STRESS:  cpu time    1.9234: real time    1.9280
    FORCOR:  cpu time    0.0250: real time    0.0250
    FORHAR:  cpu time    0.0233: real time    0.0234
    MIXING:  cpu time    0.0147: real time    0.0150
    OFIELD:  cpu time    0.0000: real time    0.0000

  FORCE on cell =-STRESS in cart. coord.  units (eV):
  Direction    XX          YY          ZZ          XY          YZ          ZX
  --------------------------------------------------------------------------------------
  Alpha Z   166.34078   166.34078   166.34078
  Ewald  -20078.03077 16498.83878 15932.04034    -0.00002     0.00000   174.07127
  Hartree-17005.32579 18123.38501 17669.15436     0.00000    -0.00000   131.92556
  E(xc)    -457.48664  -457.84729  -457.77735    -0.00000    -0.00000     0.10096
  Local   35666.62585-36058.37649-35030.22048     0.00001    -0.00000  -304.04047
  n-local   344.78593   345.95293   346.38222     0.06591    -0.20273    -1.68788
  augment  -171.53707  -171.95136  -171.88581    -0.00000    -0.00000     0.33972
  Kinetic  1520.16546  1534.79215  1529.43003    -0.04069    -0.82758    -0.66142
  Fock        0.00000     0.00000     0.00000     0.00000     0.00000     0.00000
  -------------------------------------------------------------------------------------
  Total     -14.46225   -18.86548   -16.53591     0.00000     0.00000     0.04775
  in kB     -12.27252   -16.00906   -14.03221     0.00000     0.00000     0.04052
  external pressure =      -14.10 kB  Pullay stress =        0.00 kB


 VOLUME and BASIS-vectors are now :
 -----------------------------------------------------------------------------
  energy-cutoff  :      500.00
  volume of cell :     1888.05
      direct lattice vectors                 reciprocal lattice vectors
    24.009468079  0.000000000  0.000000000     0.041650236  0.000000000  0.000000000
     0.000000000  6.777849674  0.000000000     0.000000000  0.147539419  0.000000000
     0.000000000  0.000000000 11.602143288     0.000000000  0.000000000  0.086190971

  length of vectors
    24.009468079  6.777849674 11.602143288     0.041650236  0.147539419  0.086190971


 FORCES acting on ions
    electron-ion (+dipol)            ewald-force                    non-local-force                 convergence-correction
 -----------------------------------------------------------------------------------------------
   0.793E+03 0.101E-04 0.501E+02   -.788E+03 0.101E-04 -.492E+02   -.419E+01 -.142E-18 -.905E+00   0.143E-03 -.284E-09 -.177E-04
   -.793E+03 -.617E-04 -.501E+02   0.788E+03 -.130E-04 0.492E+02   0.419E+01 0.142E-18 0.905E+00   -.143E-03 0.311E-09 0.177E-04
   0.809E+02 -.582E-04 -.444E+02   -.806E+02 -.194E-04 0.431E+02   -.393E+00 -.659E-19 0.128E+01   0.569E-04 0.438E-09 -.496E-04
   -.809E+02 0.118E-04 0.444E+02   0.806E+02 0.135E-04 -.431E+02   0.393E+00 0.997E-20 -.128E+01   -.569E-04 -.394E-09 0.496E-04
   0.640E+03 -.596E-04 -.530E+02   -.637E+03 -.171E-04 0.534E+02   -.197E+01 0.250E-17 -.360E+00   0.220E-03 0.372E-09 -.228E-04
   -.640E+03 0.897E-05 0.530E+02   0.637E+03 0.149E-04 -.534E+02   0.197E+01 0.227E-17 0.360E+00   -.220E-03 -.340E-09 0.228E-04
   0.373E+03 0.123E-04 -.157E+02   -.371E+03 0.132E-04 0.148E+02   -.113E+01 -.141E-17 0.907E+00   0.112E-03 -.408E-09 -.129E-04
   -.373E+03 -.605E-04 0.157E+02   0.371E+03 -.130E-04 -.148E+02   0.113E+01 -.242E-18 -.907E+00   -.112E-03 0.443E-09 0.129E-04
   0.278E+03 0.383E+02 -.502E+02   -.278E+03 -.393E+02 0.507E+02   -.263E+00 0.937E+00 -.506E+00   0.104E-03 0.375E-04 -.337E-04
   -.278E+03 -.383E+02 0.502E+02   0.278E+03 0.393E+02 -.507E+02   0.263E+00 -.937E+00 0.506E+00   -.104E-03 -.375E-04 0.337E-04
   0.125E+03 -.348E+02 0.710E+01   -.124E+03 0.354E+02 -.624E+01   -.313E+00 -.571E+00 -.856E+00   0.442E-04 -.138E-04 0.473E-05
   -.125E+03 0.348E+02 -.710E+01   0.124E+03 -.354E+02 0.624E+01   0.313E+00 0.571E+00 0.856E+00   -.442E-04 0.138E-04 -.473E-05
   -.278E+03 0.383E+02 0.502E+02   0.278E+03 -.393E+02 -.507E+02   0.263E+00 0.937E+00 0.506E+00   -.104E-03 0.375E-04 0.337E-04
   0.278E+03 -.383E+02 -.502E+02   -.278E+03 0.393E+02 0.507E+02   -.263E+00 -.937E+00 -.506E+00   0.104E-03 -.375E-04 -.337E-04
   -.125E+03 -.348E+02 -.710E+01   0.124E+03 0.354E+02 0.624E+01   0.313E+00 -.571E+00 0.856E+00   -.442E-04 -.138E-04 -.473E-05
   0.125E+03 0.348E+02 0.710E+01   -.124E+03 -.354E+02 -.624E+01   -.313E+00 0.571E+00 -.856E+00   0.442E-04 0.138E-04 0.473E-05
   0.335E+03 -.521E-05 0.490E+02   -.336E+03 -.608E-05 -.494E+02   0.101E+01 0.469E-19 0.362E+00   0.782E-04 0.130E-09 0.950E-05
   -.335E+03 0.619E-05 -.490E+02   0.336E+03 0.635E-05 0.494E+02   -.101E+01 -.476E-19 -.362E+00   -.782E-04 -.113E-09 -.950E-05
   0.317E+02 0.102E-04 -.130E+02   -.307E+02 0.778E-05 0.121E+02   -.862E+00 0.757E-19 0.902E+00   -.346E-05 -.153E-09 -.211E-04
   -.317E+02 -.204E-05 0.130E+02   0.307E+02 -.740E-05 -.121E+02   0.862E+00 0.808E-19 -.902E+00   0.346E-05 0.145E-09 0.211E-04
   0.247E+03 0.442E-05 0.970E+01   -.246E+03 0.817E-05 -.105E+02   -.677E+00 0.552E-18 0.779E+00   0.108E-03 -.137E-09 0.316E-04
   -.247E+03 -.662E-05 -.970E+01   0.246E+03 -.823E-05 0.105E+02   0.677E+00 0.436E-18 -.779E+00   -.108E-03 0.135E-09 -.316E-04
   0.160E+03 -.742E-05 0.649E+02   -.159E+03 -.740E-05 -.659E+02   -.836E+00 -.960E-18 0.970E+00   0.405E-04 0.157E-09 0.246E-04
   -.160E+03 0.369E-05 -.649E+02   0.159E+03 0.725E-05 0.659E+02   0.836E+00 0.331E-17 -.970E+00   -.405E-04 -.149E-09 -.246E-04
 -----------------------------------------------------------------------------------------------
   0.183E-03 -.204E-03 0.718E-04   0.426E-12 0.156E-13 0.426E-13   0.000E+00 -.108E-15 0.111E-15   -.152E-07 0.180E-09 -.377E-08
 
 
 POSITION                                       TOTAL-FORCE (eV/Angst)
 -----------------------------------------------------------------------------------
      0.13670      1.69446      8.23724         0.997754     -0.000000     -0.000144
      8.97277      5.08339      3.36490        -0.997754     -0.000000      0.000144
      4.36803      5.08339      2.14651        -0.086857      0.000000     -0.000047
      4.74143      1.69446      9.45563         0.086857     -0.000000      0.000047
      1.43529      5.08339     10.65740         0.822573     -0.000000      0.000072
      7.67418      1.69446      0.94474        -0.822573      0.000000     -0.000072
      3.06944      1.69446      4.58507         0.403604     -0.000000     -0.000682
      6.04002      5.08339      7.01707        -0.403604     -0.000000      0.000682
      1.75027      0.50061      1.66314         0.029501     -0.000534      0.000313
      7.35920      6.27724      9.93901        -0.029501      0.000534     -0.000313
      2.75446      6.28372      7.69995         0.043961     -0.000373     -0.000128
      6.35500      0.49413      3.90219        -0.043961      0.000373      0.000128
      7.35920      3.88954      9.93901        -0.029501     -0.000534     -0.000313
      1.75027      2.88831      1.66314         0.029501      0.000534      0.000313
      6.35500      2.89480      3.90219        -0.043961     -0.000373      0.000128
      2.75446      3.88305      7.69995         0.043961      0.000373     -0.000128
      0.74693      5.08339      7.04299         0.031554     -0.000000      0.000289
      8.36254      1.69446      4.55915        -0.031554     -0.000000     -0.000289
      3.75780      1.69446      0.97668         0.072141      0.000000     -0.000582
      5.35166      5.08339     10.62546        -0.072141     -0.000000      0.000582
      1.78112      1.69446     11.17104        -0.140270     -0.000000     -0.000570
      7.32835      5.08339      0.43110         0.140270     -0.000000      0.000570
      2.72362      5.08339      5.60170        -0.311071      0.000000     -0.001122
      6.38585      1.69446      6.00044         0.311071      0.000000      0.001122
 -----------------------------------------------------------------------------------
    total drift:                                0.000183     -0.000204      0.000072


--------------------------------------------------------------------------------------------------------



  FREE ENERGIE OF THE ION-ELECTRON SYSTEM (eV)
  ---------------------------------------------------
  free  energy   TOTEN  =      -114.82944429 eV

  energy  without entropy=     -114.82944429  energy(sigma->0) =     -114.82944429
 


--------------------------------------------------------------------------------------------------------


    POTLOK:  cpu time    0.0227: real time    0.0228


--------------------------------------------------------------------------------------------------------


 writing wavefunctions
     LOOP+:  cpu time   88.5472: real time   90.4484
    4ORBIT:  cpu time    0.0000: real time    0.0000
 BZINTS: Fermi energy: -0.603808;144.000000 electrons
         Band energy:***********;  BLOECHL correction:  0.000000

 total amount of memory used by VASP MPI-rank0    79349. kBytes
=======================================================================

   base      :      30000. kBytes
   nonlr-proj:       2643. kBytes
   fftplans  :       5898. kBytes
   grid      :       8824. kBytes
   one-center:         93. kBytes
   wavefun   :      31891. kBytes
 
  
  
 General timing and accounting informations for this job:
 ========================================================
  
                  Total CPU time used (sec):       96.963
                            User time (sec):       90.292
                          System time (sec):        6.671
                         Elapsed time (sec):      100.897
  
                   Maximum memory used (kb):      165248.
                   Average memory used (kb):           0.
  
                          Minor page faults:        70394
                          Major page faults:          123
                 Voluntary context switches:        12554
