 vasp.5.4.4.18Apr17-6-g9f103f2a35 (build Nov 21 2017 15:30:27) complex          
  
 executed on             LinuxIFC date 2020.09.15  07:59:28
 running on   64 total cores
 distrk:  each k-point on   32 cores,    2 groups
 distr:  one band on NCORES_PER_BAND=   4 cores,    8 groups


--------------------------------------------------------------------------------------------------------


 INCAR:
 POTCAR:   PAW Ba_sv 17Apr2000                    
 POTCAR:   PAW Si 02Apr1999                       

 ----------------------------------------------------------------------------- 
|                                                                             |
|           W    W    AA    RRRRR   N    N  II  N    N   GGGG   !!!           |
|           W    W   A  A   R    R  NN   N  II  NN   N  G    G  !!!           |
|           W    W  A    A  R    R  N N  N  II  N N  N  G       !!!           |
|           W WW W  AAAAAA  RRRRR   N  N N  II  N  N N  G  GGG   !            |
|           WW  WW  A    A  R   R   N   NN  II  N   NN  G    G                |
|           W    W  A    A  R    R  N    N  II  N    N   GGGG   !!!           |
|                                                                             |
|      You have enabled k-point parallelism (KPAR>1).                         |
|      This developmental code was originally  written by Paul Kent at ORNL,  |
|      and carefully double checked in Vienna.                                |
|      GW as well as linear response parallelism added by Martijn Marsman     |
|      and Georg Kresse.                                                      |
|      Carefully verify results versus KPAR=1.                                |
|      Report problems to Paul Kent and Vienna.                               |
|                                                                             |
 ----------------------------------------------------------------------------- 

 POTCAR:   PAW Ba_sv 17Apr2000                    
   VRHFIN =Ba: s2p6s2                                                           
   LEXCH  = CA                                                                  
   EATOM  =   704.0172 eV,   51.7438 Ry                                         
                                                                                
   TITEL  = PAW Ba_sv 17Apr2000                                                 
   LULTRA =        F    use ultrasoft PP ?                                      
   IUNSCR =        1    unscreen: 0-lin 1-nonlin 2-no                           
   RPACOR =    2.400    partial core radius                                     
   POMASS =  137.327; ZVAL   =   10.000    mass and valenz                      
   RCORE  =    2.800    outmost cutoff radius                                   
   RWIGS  =    3.740; RWIGS  =    1.979    wigner-seitz radius (au A)           
   ENMAX  =  186.981; ENMIN  =  140.236 eV                                      
   RCLOC  =    2.516    cutoff for local pot                                    
   LCOR   =        T    correct aug charges                                     
   LPAW   =        T    paw PP                                                  
   EAUG   =  351.165                                                            
   DEXC   =     .000                                                            
   RMAX   =    3.372    core radius for proj-oper                               
   RAUG   =    1.300    factor for augmentation sphere                          
   RDEP   =    2.976    core radius for depl-charge                             
   QCUT   =   -3.707; QGAM   =    7.414    optimization parameters              
                                                                                
   Description                                                                  
     l     E      TYP  RCUT    TYP  RCUT                                        
     0   .000     23  2.800                                                     
     0   .000     23  2.800                                                     
     1   .000     23  2.700                                                     
     1  2.000     23  2.700                                                     
     2   .000     23  2.700                                                     
     2   .000     23  2.700                                                     
  local pseudopotential read in
  partial core-charges read in
  atomic valenz-charges read in
  non local Contribution for L=           0  read in
    real space projection operators read in
  non local Contribution for L=           0  read in
    real space projection operators read in
  non local Contribution for L=           1  read in
    real space projection operators read in
  non local Contribution for L=           1  read in
    real space projection operators read in
  non local Contribution for L=           2  read in
    real space projection operators read in
  non local Contribution for L=           2  read in
    real space projection operators read in
    PAW grid and wavefunctions read in
 
   number of l-projection  operators is LMAX  =           6
   number of lm-projection operators is LMMAX =          18
 
 POTCAR:   PAW Si 02Apr1999                       
   VRHFIN =Si: s2p2                                                             
   LEXCH  = CA                                                                  
   EATOM  =   103.4338 eV,    7.6022 Ry                                         
                                                                                
   TITEL  = PAW Si 02Apr1999                                                    
   LULTRA =        F    use ultrasoft PP ?                                      
   IUNSCR =        1    unscreen: 0-lin 1-nonlin 2-no                           
   RPACOR =    1.500    partial core radius                                     
   POMASS =   28.085; ZVAL   =    4.000    mass and valenz                      
   RCORE  =    1.900    outmost cutoff radius                                   
   RWIGS  =    2.480; RWIGS  =    1.312    wigner-seitz radius (au A)           
   ENMAX  =  245.704; ENMIN  =  184.278 eV                                      
   ICORE  =        2    local potential                                         
   LCOR   =        T    correct aug charges                                     
   LPAW   =        T    paw PP                                                  
   EAUG   =  322.069                                                            
   DEXC   =    -.006                                                            
   RMAX   =    2.941    core radius for proj-oper                               
   RAUG   =    1.300    factor for augmentation sphere                          
   RDEP   =    1.993    core radius for depl-charge                             
   QCUT   =   -4.250; QGAM   =    8.499    optimization parameters              
                                                                                
   Description                                                                  
     l     E      TYP  RCUT    TYP  RCUT                                        
     0   .000     23  1.900                                                     
     0   .000     23  1.900                                                     
     1   .000     23  1.900                                                     
     1   .000     23  1.900                                                     
     2   .000      7  1.900                                                     
  local pseudopotential read in
  partial core-charges read in
  atomic valenz-charges read in
  non local Contribution for L=           0  read in
    real space projection operators read in
  non local Contribution for L=           0  read in
    real space projection operators read in
  non local Contribution for L=           1  read in
    real space projection operators read in
  non local Contribution for L=           1  read in
    real space projection operators read in
    PAW grid and wavefunctions read in
 
   number of l-projection  operators is LMAX  =           4
   number of lm-projection operators is LMMAX =           8
 
 Optimization of the real space projectors (new method)

 maximal supplied QI-value         = 13.42
 optimisation between [QCUT,QGAM] = [ 11.40, 22.81] = [ 36.42,145.68] Ry 
 Optimized for a Real-space Cutoff    1.56 Angstroem

   l    n(q)    QCUT    max X(q) W(low)/X(q) W(high)/X(q)  e(spline) 
   0     11    11.404     7.180    0.12E-04    0.23E-04    0.91E-07
   0     11    11.404    14.700    0.33E-04    0.82E-04    0.45E-06
   1     10    11.404     3.780    0.19E-04    0.22E-04    0.42E-07
   1     10    11.404     4.341    0.22E-03    0.98E-04    0.21E-06
   2     10    11.404     5.806    0.81E-04    0.60E-05    0.26E-06
   2     10    11.404    65.524    0.41E-03    0.30E-04    0.12E-05
 Optimization of the real space projectors (new method)

 maximal supplied QI-value         = 19.84
 optimisation between [QCUT,QGAM] = [ 11.31, 22.82] = [ 35.82,145.81] Ry 
 Optimized for a Real-space Cutoff    1.16 Angstroem

   l    n(q)    QCUT    max X(q) W(low)/X(q) W(high)/X(q)  e(spline) 
   0      8    11.310     8.540    0.14E-04    0.11E-04    0.43E-08
   0      8    11.310   104.916    0.28E-03    0.31E-03    0.39E-07
   1      7    11.310     5.806    0.79E-05    0.47E-04    0.19E-07
   1      7    11.310    72.249    0.28E-03    0.28E-03    0.75E-07
 PAW Ba_sv 17Apr2000                    :
 energy of atom  1       EATOM= -704.0172
 kinetic energy error for atom=    0.0005 (will be added to EATOM!!)
 PAW Si 02Apr1999                       :
 energy of atom  2       EATOM= -103.4338
 kinetic energy error for atom=    0.0006 (will be added to EATOM!!)
 
 
 POSCAR: ba8 si16                                
  positions in direct lattice
  velocities in cartesian coordinates
 exchange correlation table for  LEXCH =        2
   RHO(1)=    0.500       N(1)  =     2000
   RHO(2)=  100.500       N(2)  =     4000
 


--------------------------------------------------------------------------------------------------------


 ion  position               nearest neighbor table
   1  0.006  0.250  0.704-  21 3.36  16 3.44  11 3.44  17 3.63  17 3.63   5 4.36   5 4.36   7 4.68

   2  0.390  0.750  0.296-  22 3.36  12 3.44  15 3.44  18 3.63  18 3.63   6 4.36   6 4.36   8 4.68

   3  0.182  0.750  0.182-  20 3.31   9 3.46  14 3.46  19 3.66  19 3.66  12 3.70  15 3.70  22 3.73
                            23 3.84   5 4.29   7 4.36   7 4.36
   4  0.214  0.250  0.818-  19 3.31  13 3.46  10 3.46  20 3.66  20 3.66  16 3.70  11 3.70  21 3.73
                            24 3.84   6 4.29   8 4.36   8 4.36
   5  0.060  0.750  0.913-  11 3.41  16 3.41   9 3.42  14 3.42  21 3.44  21 3.44  17 3.63   3 4.29
                             1 4.36   1 4.36
   6  0.336  0.250  0.087-  15 3.41  12 3.41  13 3.42  10 3.42  22 3.44  22 3.44  18 3.63   4 4.29
                             2 4.36   2 4.36
   7  0.128  0.250  0.391-  14 3.43   9 3.43  23 3.57  23 3.57  19 3.71  16 3.85  11 3.85  15 3.93
                            12 3.93   3 4.36   3 4.36   1 4.68
   8  0.268  0.750  0.609-  10 3.43  13 3.43  24 3.57  24 3.57  20 3.71  12 3.85  15 3.85  11 3.93
                            16 3.93   4 4.36   4 4.36   2 4.68
   9  0.073  0.074  0.138-  14 2.39  21 2.41  19 2.44   5 3.42   7 3.43   3 3.46
  10  0.323  0.926  0.862-  13 2.39  22 2.41  20 2.44   6 3.42   8 3.43   4 3.46
  11  0.115  0.928  0.663-  16 2.42  23 2.42  17 2.43   5 3.41   1 3.44   4 3.70   7 3.85   8 3.93

  12  0.281  0.072  0.337-  15 2.42  24 2.42  18 2.43   6 3.41   2 3.44   3 3.70   8 3.85   7 3.93

  13  0.323  0.574  0.862-  10 2.39  22 2.41  20 2.44   6 3.42   8 3.43   4 3.46
  14  0.073  0.426  0.138-   9 2.39  21 2.41  19 2.44   5 3.42   7 3.43   3 3.46
  15  0.281  0.428  0.337-  12 2.42  24 2.42  18 2.43   6 3.41   2 3.44   3 3.70   8 3.85   7 3.93

  16  0.115  0.572  0.663-  11 2.42  23 2.42  17 2.43   5 3.41   1 3.44   4 3.70   7 3.85   8 3.93

  17  0.031  0.750  0.606-  11 2.43  16 2.43  23 2.45   1 3.63   1 3.63   5 3.63
  18  0.365  0.250  0.394-  15 2.43  12 2.43  24 2.45   2 3.63   2 3.63   6 3.63
  19  0.157  0.250  0.076-  21 2.42  14 2.44   9 2.44   4 3.31   3 3.66   3 3.66   7 3.71
  20  0.240  0.750  0.924-  22 2.42  10 2.44  13 2.44   3 3.31   4 3.66   4 3.66   8 3.71
  21  0.074  0.250  0.957-  14 2.41   9 2.41  19 2.42   1 3.36   5 3.44   5 3.44   4 3.73
  22  0.322  0.750  0.043-  10 2.41  13 2.41  20 2.42   2 3.36   6 3.44   6 3.44   3 3.73
  23  0.113  0.750  0.482-  11 2.42  16 2.42  17 2.45   7 3.57   7 3.57   3 3.84
  24  0.283  0.250  0.518-  15 2.42  12 2.42  18 2.45   8 3.57   8 3.57   4 3.84
 
  LATTYP: Found a simple orthorhombic cell.
 ALAT       =     6.7778496742
 B/A-ratio  =     1.7117734747
 C/A-ratio  =     3.5423429602
  
  Lattice vectors:
  
 A1 = (   0.0000000000,   6.7778496742,   0.0000000000)
 A2 = (   0.0000000000,   0.0000000000, -11.6021432877)
 A3 = ( -24.0094680786,   0.0000000000,   0.0000000000)


Analysis of symmetry for initial positions (statically):
=====================================================================
 Subroutine PRICEL returns:
 Original cell was already a primitive cell.
 

 Routine SETGRP: Setting up the symmetry group for a 
 simple orthorhombic supercell.


 Subroutine GETGRP returns: Found  4 space group operations
 (whereof  1 operations were pure point group operations)
 out of a pool of  8 trial point group operations.


The static configuration has the point symmetry C_1 .
 The point group associated with its full space group is C_2h.


Analysis of symmetry for dynamics (positions and initial velocities):
=====================================================================
 Subroutine PRICEL returns:
 Original cell was already a primitive cell.
 

 Routine SETGRP: Setting up the symmetry group for a 
 simple orthorhombic supercell.


 Subroutine GETGRP returns: Found  4 space group operations
 (whereof  1 operations were pure point group operations)
 out of a pool of  8 trial point group operations.


The dynamic configuration has the point symmetry C_1 .
 The point group associated with its full space group is C_2h.


Analysis of constrained symmetry for selective dynamics:
=====================================================================
 Subroutine PRICEL returns:
 Original cell was already a primitive cell.
 

 Routine SETGRP: Setting up the symmetry group for a 
 simple orthorhombic supercell.


 Subroutine GETGRP returns: Found  4 space group operations
 (whereof  1 operations were pure point group operations)
 out of a pool of  8 trial point group operations.


The constrained configuration has the point symmetry C_1 .
 The point group associated with its full space group is C_2h.


 Subroutine INISYM returns: Found  4 space group operations
 (whereof  1 operations are pure point group operations),
 and found     1 'primitive' translations

 
 
 KPOINTS: k-density: 8.0                          

Automatic generation of k-mesh.
Space group operators:
 irot       det(A)        alpha          n_x          n_y          n_z        tau_x        tau_y        tau_z
    1     1.000000     0.000000     1.000000     0.000000     0.000000     0.000000     0.000000     0.000000
    2    -1.000000     0.000000     1.000000     0.000000     0.000000    -0.603928     0.000000     0.000000
    3     1.000000   180.000000     0.000000     1.000000     0.000000    -0.603928     0.500000     0.000000
    4    -1.000000   180.000000     0.000000     1.000000     0.000000     0.000000     0.500000     0.000000
 
 Subroutine IBZKPT returns following result:
 ===========================================
 
 Found     15 irreducible k-points:
 
 Following reciprocal coordinates:
            Coordinates               Weight
  0.000000  0.000000  0.000000      1.000000
  0.000000  0.125000  0.000000      2.000000
  0.000000  0.250000  0.000000      2.000000
  0.000000  0.375000  0.000000      2.000000
  0.000000  0.500000  0.000000      1.000000
  0.000000  0.000000  0.200000      2.000000
  0.000000  0.125000  0.200000      4.000000
  0.000000  0.250000  0.200000      4.000000
  0.000000  0.375000  0.200000      4.000000
  0.000000  0.500000  0.200000      2.000000
  0.000000  0.000000  0.400000      2.000000
  0.000000  0.125000  0.400000      4.000000
  0.000000  0.250000  0.400000      4.000000
  0.000000  0.375000  0.400000      4.000000
  0.000000  0.500000  0.400000      2.000000
 
 Following cartesian coordinates:
            Coordinates               Weight
  0.000000  0.000000  0.000000      1.000000
  0.000000  0.018442  0.000000      2.000000
  0.000000  0.036885  0.000000      2.000000
  0.000000  0.055327  0.000000      2.000000
  0.000000  0.073770  0.000000      1.000000
  0.000000  0.000000  0.017238      2.000000
  0.000000  0.018442  0.017238      4.000000
  0.000000  0.036885  0.017238      4.000000
  0.000000  0.055327  0.017238      4.000000
  0.000000  0.073770  0.017238      2.000000
  0.000000  0.000000  0.034476      2.000000
  0.000000  0.018442  0.034476      4.000000
  0.000000  0.036885  0.034476      4.000000
  0.000000  0.055327  0.034476      4.000000
  0.000000  0.073770  0.034476      2.000000
 
 TETIRR: Found    108 inequivalent tetrahedra from      240


--------------------------------------------------------------------------------------------------------




 Dimension of arrays:
   k-points           NKPTS =     15   k-points in BZ     NKDIM =     15   number of bands    NBANDS=     88
   number of dos      NEDOS =    301   number of ions     NIONS =     24
   non local maximal  LDIM  =      6   non local SUM 2l+1 LMDIM =     18
   total plane-waves  NPLWV = 358400
   max r-space proj   IRMAX =   3093   max aug-charges    IRDMAX=  12081
   dimension x,y,z NGX =   140 NGY =   40 NGZ =   64
   dimension x,y,z NGXF=   280 NGYF=   80 NGZF=  128
   support grid    NGXF=   280 NGYF=   80 NGZF=  128
   ions per type =               8  16
   NGX,Y,Z   is equivalent  to a cutoff of   9.69,  9.81,  9.17 a.u.
   NGXF,Y,Z  is equivalent  to a cutoff of  19.39, 19.62, 18.34 a.u.

 SYSTEM =  unknown system                          
 POSCAR =  ba8 si16                                

 Startparameter for this run:
   NWRITE =      2    write-flag & timer
   PREC   = normal    normal or accurate (medium, high low for compatibility)
   ISTART =      0    job   : 0-new  1-cont  2-samecut
   ICHARG =      2    charge: 1-file 2-atom 10-const
   ISPIN  =      1    spin polarized calculation?
   LNONCOLLINEAR =      F non collinear calculations
   LSORBIT =      F    spin-orbit coupling
   INIWAV =      1    electr: 0-lowe 1-rand  2-diag
   LASPH  =      F    aspherical Exc in radial PAW
   METAGGA=      F    non-selfconsistent MetaGGA calc.

 Electronic Relaxation 1
   ENCUT  =  500.0 eV  36.75 Ry    6.06 a.u.  43.77 12.36 21.15*2*pi/ulx,y,z
   ENINI  =  500.0     initial cutoff
   ENAUG  =  351.2 eV  augmentation charge cutoff
   NELM   =    100;   NELMIN=  2; NELMDL= -5     # of ELM steps 
   EDIFF  = 0.1E-05   stopping-criterion for ELM
   LREAL  =      T    real-space projection
   NLSPLINE    = F    spline interpolate recip. space projectors
   LCOMPAT=      F    compatible to vasp.4.4
   GGA_COMPAT  = T    GGA compatible to vasp.4.4-vasp.4.6
   LMAXPAW     = -100 max onsite density
   LMAXMIX     =    2 max onsite mixed and CHGCAR
   VOSKOWN=      0    Vosko Wilk Nusair interpolation
   ROPT   =   -0.00050  -0.00050
 Ionic relaxation
   EDIFFG = -.1E-02   stopping-criterion for IOM
   NSW    =      0    number of steps for IOM
   NBLOCK =      1;   KBLOCK =      1    inner block; outer block 
   IBRION =     -1    ionic relax: 0-MD 1-quasi-New 2-CG
   NFREE  =      0    steps in history (QN), initial steepest desc. (CG)
   ISIF   =      2    stress and relaxation
   IWAVPR =     10    prediction:  0-non 1-charg 2-wave 3-comb
   ISYM   =      2    0-nonsym 1-usesym 2-fastsym
   LCORR  =      T    Harris-Foulkes like correction to forces

   POTIM  = 0.3000    time-step for ionic-motion
   TEIN   =    0.0    initial temperature
   TEBEG  =    0.0;   TEEND  =   0.0 temperature during run
   SMASS  =  -3.00    Nose mass-parameter (am)
   estimated Nose-frequenzy (Omega)   =  0.10E-29 period in steps =****** mass=  -0.132E-25a.u.
   SCALEE = 1.0000    scale energy and forces
   NPACO  =    256;   APACO  = 16.0  distance and # of slots for P.C.
   PSTRESS=    0.0 pullay stress

  Mass of Ions in am
   POMASS = 137.33 28.09
  Ionic Valenz
   ZVAL   =  10.00  4.00
  Atomic Wigner-Seitz radii
   RWIGS  =  -1.00 -1.00
  virtual crystal weights 
   VCA    =   1.00  1.00
   NELECT =     144.0000    total number of electrons
   NUPDOWN=      -1.0000    fix difference up-down

 DOS related values:
   EMIN   =  10.00;   EMAX   =-10.00  energy-range for DOS
   EFERMI =   0.00
   ISMEAR =    -5;   SIGMA  =   0.01  broadening in eV -4-tet -1-fermi 0-gaus

 Electronic relaxation 2 (details)
   IALGO  =     38    algorithm
   LDIAG  =      T    sub-space diagonalisation (order eigenvalues)
   LSUBROT=      F    optimize rotation matrix (better conditioning)
   TURBO    =      0    0=normal 1=particle mesh
   IRESTART =      0    0=no restart 2=restart with 2 vectors
   NREBOOT  =      0    no. of reboots
   NMIN     =      0    reboot dimension
   EREF     =   0.00    reference energy to select bands
   IMIX   =      4    mixing-type and parameters
     AMIX     =   0.40;   BMIX     =  1.00
     AMIX_MAG =   1.60;   BMIX_MAG =  1.00
     AMIN     =   0.10
     WC   =   100.;   INIMIX=   1;  MIXPRE=   1;  MAXMIX= -45

 Intra band minimization:
   WEIMIN = 0.0000     energy-eigenvalue tresh-hold
   EBREAK =  0.28E-08  absolut break condition
   DEPER  =   0.30     relativ break condition  

   TIME   =   0.40     timestep for ELM

  volume/ion in A,a.u.               =      78.67       530.88
  Fermi-wavevector in a.u.,A,eV,Ry     =   0.694264  1.311969  6.558046  0.482003
  Thomas-Fermi vector in A             =   1.776709
 
 Write flags
   LWAVE        =      T    write WAVECAR
   LDOWNSAMPLE  =      F    k-point downsampling of WAVECAR
   LCHARG       =      T    write CHGCAR
   LVTOT        =      F    write LOCPOT, total local potential
   LVHAR        =      F    write LOCPOT, Hartree potential only
   LELF         =      F    write electronic localiz. function (ELF)
   LORBIT       =      0    0 simple, 1 ext, 2 COOP (PROOUT), +10 PAW based schemes


 Dipole corrections
   LMONO  =      F    monopole corrections only (constant potential shift)
   LDIPOL =      F    correct potential (dipole corrections)
   IDIPOL =      0    1-x, 2-y, 3-z, 4-all directions 
   EPSILON=  1.0000000 bulk dielectric constant

 Exchange correlation treatment:
   GGA     =    --    GGA type
   LEXCH   =     2    internal setting for exchange type
   VOSKOWN=      0    Vosko Wilk Nusair interpolation
   LHFCALC =     F    Hartree Fock is set to
   LHFONE  =     F    Hartree Fock one center treatment
   AEXX    =    0.0000 exact exchange contribution

 Linear response parameters
   LEPSILON=     F    determine dielectric tensor
   LRPA    =     F    only Hartree local field effects (RPA)
   LNABLA  =     F    use nabla operator in PAW spheres
   LVEL    =     F    velocity operator in full k-point grid
   LINTERFAST=   F  fast interpolation
   KINTER  =     0    interpolate to denser k-point grid
   CSHIFT  =0.1000    complex shift for real part using Kramers Kronig
   OMEGAMAX=  -1.0    maximum frequency
   DEG_THRESHOLD= 0.2000000E-02 threshold for treating states as degnerate
   RTIME   =   -0.100 relaxation time in fs
  (WPLASMAI=    0.000 imaginary part of plasma frequency in eV, 0.658/RTIME)
   DFIELD  = 0.0000000 0.0000000 0.0000000 field for delta impulse in time
 
 Orbital magnetization related:
   ORBITALMAG=     F  switch on orbital magnetization
   LCHIMAG   =     F  perturbation theory with respect to B field
   DQ        =  0.001000  dq finite difference perturbation B field
   LLRAUG    =     F  two centre corrections for induced B field



--------------------------------------------------------------------------------------------------------


 Static calculation
 charge density and potential will be updated during run
 non-spin polarized calculation
 Variant of blocked Davidson
 Davidson routine will perform the subspace rotation
 perform sub-space diagonalisation
    after iterative eigenvector-optimisation
 modified Broyden-mixing scheme, WC =      100.0
 initial mixing is a Kerker type mixing with AMIX =  0.4000 and BMIX =      1.0000
 Hartree-type preconditioning will be used
 using additional bands           16
 real space projection scheme for non local part
 use partial core corrections
 calculate Harris-corrections to forces 
   (improved forces if not selfconsistent)
 use of overlap-Matrix (Vanderbilt PP)
 Fermi weights with tetrahedron method with Bloechl corrections


--------------------------------------------------------------------------------------------------------


  energy-cutoff  :      500.00
  volume of cell :     1888.05
      direct lattice vectors                 reciprocal lattice vectors
    24.009468079  0.000000000  0.000000000     0.041650236  0.000000000  0.000000000
     0.000000000  6.777849674  0.000000000     0.000000000  0.147539419  0.000000000
     0.000000000  0.000000000 11.602143288     0.000000000  0.000000000  0.086190971

  length of vectors
    24.009468079  6.777849674 11.602143288     0.041650236  0.147539419  0.086190971


 
 k-points in units of 2pi/SCALE and weight: k-density: 8.0                          
   0.00000000  0.00000000  0.00000000       0.025
   0.00000000  0.01844243  0.00000000       0.050
   0.00000000  0.03688485  0.00000000       0.050
   0.00000000  0.05532728  0.00000000       0.050
   0.00000000  0.07376971  0.00000000       0.025
   0.00000000  0.00000000  0.01723819       0.050
   0.00000000  0.01844243  0.01723819       0.100
   0.00000000  0.03688485  0.01723819       0.100
   0.00000000  0.05532728  0.01723819       0.100
   0.00000000  0.07376971  0.01723819       0.050
   0.00000000  0.00000000  0.03447639       0.050
   0.00000000  0.01844243  0.03447639       0.100
   0.00000000  0.03688485  0.03447639       0.100
   0.00000000  0.05532728  0.03447639       0.100
   0.00000000  0.07376971  0.03447639       0.050
 
 k-points in reciprocal lattice and weights: k-density: 8.0                          
   0.00000000  0.00000000  0.00000000       0.025
   0.00000000  0.12500000  0.00000000       0.050
   0.00000000  0.25000000  0.00000000       0.050
   0.00000000  0.37500000  0.00000000       0.050
   0.00000000  0.50000000  0.00000000       0.025
   0.00000000  0.00000000  0.20000000       0.050
   0.00000000  0.12500000  0.20000000       0.100
   0.00000000  0.25000000  0.20000000       0.100
   0.00000000  0.37500000  0.20000000       0.100
   0.00000000  0.50000000  0.20000000       0.050
   0.00000000  0.00000000  0.40000000       0.050
   0.00000000  0.12500000  0.40000000       0.100
   0.00000000  0.25000000  0.40000000       0.100
   0.00000000  0.37500000  0.40000000       0.100
   0.00000000  0.50000000  0.40000000       0.050
 
 position of ions in fractional coordinates (direct lattice) 
   0.00569361  0.25000000  0.70448542
   0.39037797  0.75000002  0.29551458
   0.18192962  0.75000002  0.18230883
   0.21414196  0.25000000  0.81769115
   0.05978014  0.75000002  0.91295857
   0.33629144  0.25000000  0.08704141
   0.12784309  0.25000000  0.39058035
   0.26822849  0.75000002  0.60941969
   0.07289913  0.07399650  0.13754539
   0.32317245  0.92600349  0.86245459
   0.11472410  0.92821268  0.66273574
   0.28134748  0.07178731  0.33726426
   0.32317245  0.57399651  0.86245459
   0.07289913  0.42600349  0.13754539
   0.28134748  0.42821268  0.33726426
   0.11472410  0.57178732  0.66273574
   0.03110981  0.75000002  0.60584167
   0.36496177  0.25000000  0.39415833
   0.15651343  0.25000000  0.07646186
   0.23955817  0.75000002  0.92353812
   0.07418398  0.25000000  0.95674438
   0.32188760  0.75000002  0.04325563
   0.11343925  0.75000002  0.48154601
   0.28263233  0.25000000  0.51845391
 
 position of ions in cartesian coordinates  (Angst):
   0.13670066  1.69446242  8.17354078
   9.37276745  5.08338737  3.42860251
   4.36803341  5.08338737  2.11517311
   5.14143467  1.69446242  9.48696994
   1.43528938  5.08338737 10.59227618
   8.07417870  1.69446242  1.00986687
   3.06944466  1.69446242  4.53156919
   6.44002342  5.08338737  7.07057458
   1.75026941  0.50153716  1.59582131
   7.75919867  6.27631245 10.00632174
   2.75446463  6.29128600  7.68915498
   6.75500345  0.48656362  3.91298831
   7.75919867  3.89046206 10.00632174
   1.75026941  2.88738761  1.59582131
   6.75500345  2.90236116  3.91298831
   2.75446463  3.87548851  7.68915498
   0.74692994  5.08338737  7.02906190
   8.76253796  1.69446242  4.57308138
   3.75780416  1.69446242  0.88712146
   5.75166416  5.08338737 10.71502159
   1.78111780  1.69446242 11.10028542
   7.72835016  5.08338737  0.50185805
   2.72361612  5.08338737  5.58696578
   6.78585196  1.69446242  6.01517655
 


--------------------------------------------------------------------------------------------------------


 k-point  1 :   0.0000 0.0000 0.0000  plane waves:   47989
 k-point  2 :   0.0000 0.1250 0.0000  plane waves:   47929
 k-point  3 :   0.0000 0.2500 0.0000  plane waves:   47901
 k-point  4 :   0.0000 0.3750 0.0000  plane waves:   47910
 k-point  5 :   0.0000 0.5000 0.0000  plane waves:   47868
 k-point  6 :   0.0000 0.0000 0.2000  plane waves:   48006
 k-point  7 :   0.0000 0.1250 0.2000  plane waves:   47967
 k-point  8 :   0.0000 0.2500 0.2000  plane waves:   47907
 k-point  9 :   0.0000 0.3750 0.2000  plane waves:   47884
 k-point 10 :   0.0000 0.5000 0.2000  plane waves:   47884
 k-point 11 :   0.0000 0.0000 0.4000  plane waves:   47922
 k-point 12 :   0.0000 0.1250 0.4000  plane waves:   47954
 k-point 13 :   0.0000 0.2500 0.4000  plane waves:   47967
 k-point 14 :   0.0000 0.3750 0.4000  plane waves:   47928
 k-point 15 :   0.0000 0.5000 0.4000  plane waves:   47890

 maximum and minimum number of plane-waves per node :     12077    11868

 maximum number of plane-waves:     48006
 maximum index in each direction: 
   IXMAX=   43   IYMAX=   12   IZMAX=   21
   IXMIN=  -43   IYMIN=  -12   IZMIN=  -21


 real space projection operators:
  total allocation   :       4542.53 KBytes
  max/ min on nodes  :       1140.42       1133.30


 parallel 3D FFT for wavefunctions:
    minimum data exchange during FFTs selected (reduces bandwidth)
 parallel 3D FFT for charge:
    minimum data exchange during FFTs selected (reduces bandwidth)


 total amount of memory used by VASP MPI-rank0    79355. kBytes
=======================================================================

   base      :      30000. kBytes
   nonlr-proj:       2649. kBytes
   fftplans  :       5898. kBytes
   grid      :       8824. kBytes
   one-center:         93. kBytes
   wavefun   :      31891. kBytes
 
     INWAV:  cpu time    0.0001: real time    0.0003
 Broyden mixing: mesh for mixing (old mesh)
   NGX = 87   NGY = 25   NGZ = 43
  (NGX  =280   NGY  = 80   NGZ  =128)
  gives a total of  93525 points

 initial charge density was supplied:
 charge density of overlapping atoms calculated
 number of electron     144.0000000 magnetization 
 keeping initial charge density in first step


--------------------------------------------------------------------------------------------------------


 Maximum index for non-local projection operator          744
 Maximum index for augmentation-charges          603 (set IRDMAX)


--------------------------------------------------------------------------------------------------------


 First call to EWALD:  gamma=   0.143
 Maximum number of real-space cells 2x 5x 3
 Maximum number of reciprocal cells 5x 2x 3

    FEWALD:  cpu time    0.0047: real time    0.0047


--------------------------------------- Iteration      1(   1)  ---------------------------------------


    POTLOK:  cpu time    0.0312: real time    0.0921
    SETDIJ:  cpu time    0.0032: real time    0.0035
     EDDAV:  cpu time    2.8163: real time    2.8323
 BZINTS: Fermi energy:  6.886393;144.000000 electrons
         Band energy:-495.332866;  BLOECHL correction: -0.034147
       DOS:  cpu time    0.0128: real time    0.0128
    --------------------------------------------
      LOOP:  cpu time    2.8634: real time    2.9407

 eigenvalue-minimisations  :  2776
 total energy-change (2. order) : 0.1156828E+04  (-0.4795219E+04)
 number of electron     144.0000000 magnetization 
 augmentation part      144.0000000 magnetization 

 Free energy of the ion-electron system (eV)
  ---------------------------------------------------
  alpha Z        PSCENC =       166.34077906
  Ewald energy   TEWEN  =     11014.78904655
  -Hartree energ DENC   =    -17149.90049484
  -exchange      EXHF   =         0.00000000
  -V(xc)+E(xc)   XCENC  =        45.61829335
  PAW double counting   =      3711.26622449    -3423.01674647
  entropy T*S    EENTRO =         0.00000000
  eigenvalues    EBANDS =      -495.33286592
  atomic energy  EATOM  =      7287.06411261
  Solvation  Ediel_sol  =         0.00000000
  ---------------------------------------------------
  free energy    TOTEN  =      1156.82834883 eV

  energy without entropy =     1156.82834883  energy(sigma->0) =     1156.82834883


--------------------------------------------------------------------------------------------------------




--------------------------------------- Iteration      1(   2)  ---------------------------------------


     EDDAV:  cpu time    3.3249: real time    3.3447
 BZINTS: Fermi energy: -1.918117;144.000000 electrons
         Band energy:***********;  BLOECHL correction:  0.000000
       DOS:  cpu time    0.0036: real time    0.0036
    --------------------------------------------
      LOOP:  cpu time    3.3286: real time    3.3483

 eigenvalue-minimisations  :  3776
 total energy-change (2. order) :-0.1109244E+04  (-0.1081497E+04)
 number of electron     144.0000000 magnetization 
 augmentation part      144.0000000 magnetization 

 Free energy of the ion-electron system (eV)
  ---------------------------------------------------
  alpha Z        PSCENC =       166.34077906
  Ewald energy   TEWEN  =     11014.78904655
  -Hartree energ DENC   =    -17149.90049484
  -exchange      EXHF   =         0.00000000
  -V(xc)+E(xc)   XCENC  =        45.61829335
  PAW double counting   =      3711.26622449    -3423.01674647
  entropy T*S    EENTRO =         0.00000000
  eigenvalues    EBANDS =     -1604.57725357
  atomic energy  EATOM  =      7287.06411261
  Solvation  Ediel_sol  =         0.00000000
  ---------------------------------------------------
  free energy    TOTEN  =        47.58396118 eV

  energy without entropy =       47.58396118  energy(sigma->0) =       47.58396118


--------------------------------------------------------------------------------------------------------




--------------------------------------- Iteration      1(   3)  ---------------------------------------


     EDDAV:  cpu time    3.0540: real time    3.0726
 BZINTS: Fermi energy: -3.369630;144.000000 electrons
         Band energy:***********;  BLOECHL correction:  0.000000
       DOS:  cpu time    0.0020: real time    0.0020
    --------------------------------------------
      LOOP:  cpu time    3.0560: real time    3.0746

 eigenvalue-minimisations  :  3216
 total energy-change (2. order) :-0.1658255E+03  (-0.1651514E+03)
 number of electron     144.0000000 magnetization 
 augmentation part      144.0000000 magnetization 

 Free energy of the ion-electron system (eV)
  ---------------------------------------------------
  alpha Z        PSCENC =       166.34077906
  Ewald energy   TEWEN  =     11014.78904655
  -Hartree energ DENC   =    -17149.90049484
  -exchange      EXHF   =         0.00000000
  -V(xc)+E(xc)   XCENC  =        45.61829335
  PAW double counting   =      3711.26622449    -3423.01674647
  entropy T*S    EENTRO =         0.00000000
  eigenvalues    EBANDS =     -1770.40273842
  atomic energy  EATOM  =      7287.06411261
  Solvation  Ediel_sol  =         0.00000000
  ---------------------------------------------------
  free energy    TOTEN  =      -118.24152367 eV

  energy without entropy =     -118.24152367  energy(sigma->0) =     -118.24152367


--------------------------------------------------------------------------------------------------------




--------------------------------------- Iteration      1(   4)  ---------------------------------------


     EDDAV:  cpu time    3.6692: real time    3.6899
 BZINTS: Fermi energy: -3.444654;144.000000 electrons
         Band energy:***********;  BLOECHL correction:  0.000000
       DOS:  cpu time    0.0036: real time    0.0036
    --------------------------------------------
      LOOP:  cpu time    3.6729: real time    3.6935

 eigenvalue-minimisations  :  3768
 total energy-change (2. order) :-0.6100126E+01  (-0.6081318E+01)
 number of electron     144.0000000 magnetization 
 augmentation part      144.0000000 magnetization 

 Free energy of the ion-electron system (eV)
  ---------------------------------------------------
  alpha Z        PSCENC =       166.34077906
  Ewald energy   TEWEN  =     11014.78904655
  -Hartree energ DENC   =    -17149.90049484
  -exchange      EXHF   =         0.00000000
  -V(xc)+E(xc)   XCENC  =        45.61829335
  PAW double counting   =      3711.26622449    -3423.01674647
  entropy T*S    EENTRO =         0.00000000
  eigenvalues    EBANDS =     -1776.50286418
  atomic energy  EATOM  =      7287.06411261
  Solvation  Ediel_sol  =         0.00000000
  ---------------------------------------------------
  free energy    TOTEN  =      -124.34164943 eV

  energy without entropy =     -124.34164943  energy(sigma->0) =     -124.34164943


--------------------------------------------------------------------------------------------------------




--------------------------------------- Iteration      1(   5)  ---------------------------------------


     EDDAV:  cpu time    3.8107: real time    3.8341
 BZINTS: Fermi energy: -3.421058;144.000000 electrons
         Band energy:***********;  BLOECHL correction:  0.000000
       DOS:  cpu time    0.0023: real time    0.0023
    CHARGE:  cpu time    0.1534: real time    0.1540
    MIXING:  cpu time    0.0055: real time    0.0058
    --------------------------------------------
      LOOP:  cpu time    3.9719: real time    3.9963

 eigenvalue-minimisations  :  4216
 total energy-change (2. order) :-0.3232568E+00  (-0.3231575E+00)
 number of electron     143.9999991 magnetization 
 augmentation part      -16.8521226 magnetization 

 Broyden mixing:
  rms(total) = 0.96378E+00    rms(broyden)= 0.96377E+00
  rms(prec ) = 0.12340E+01
  weight for this iteration     100.00

 Free energy of the ion-electron system (eV)
  ---------------------------------------------------
  alpha Z        PSCENC =       166.34077906
  Ewald energy   TEWEN  =     11014.78904655
  -Hartree energ DENC   =    -17149.90049484
  -exchange      EXHF   =         0.00000000
  -V(xc)+E(xc)   XCENC  =        45.61829335
  PAW double counting   =      3711.26622449    -3423.01674647
  entropy T*S    EENTRO =         0.00000000
  eigenvalues    EBANDS =     -1776.82612100
  atomic energy  EATOM  =      7287.06411261
  Solvation  Ediel_sol  =         0.00000000
  ---------------------------------------------------
  free energy    TOTEN  =      -124.66490626 eV

  energy without entropy =     -124.66490626  energy(sigma->0) =     -124.66490626


--------------------------------------------------------------------------------------------------------




--------------------------------------- Iteration      1(   6)  ---------------------------------------


    POTLOK:  cpu time    0.0200: real time    0.0318
    SETDIJ:  cpu time    0.0025: real time    0.0025
     EDDAV:  cpu time    3.0515: real time    3.0588
 BZINTS: Fermi energy: -2.354370;144.000000 electrons
         Band energy:***********;  BLOECHL correction:  0.000000
       DOS:  cpu time    0.0020: real time    0.0020
    CHARGE:  cpu time    0.1645: real time    0.1649
    MIXING:  cpu time    0.0064: real time    0.0065
    --------------------------------------------
      LOOP:  cpu time    3.2470: real time    3.2665

 eigenvalue-minimisations  :  3000
 total energy-change (2. order) : 0.9033333E+01  (-0.2325015E+01)
 number of electron     143.9999990 magnetization 
 augmentation part      -16.7204711 magnetization 

 Broyden mixing:
  rms(total) = 0.47464E+00    rms(broyden)= 0.47464E+00
  rms(prec ) = 0.58716E+00
  weight for this iteration     100.00

 eigenvalues of (default mixing * dielectric matrix)
  average eigenvalue GAMMA=   1.5210
  1.5210

 Free energy of the ion-electron system (eV)
  ---------------------------------------------------
  alpha Z        PSCENC =       166.34077906
  Ewald energy   TEWEN  =     11014.78904655
  -Hartree energ DENC   =    -17237.55007855
  -exchange      EXHF   =         0.00000000
  -V(xc)+E(xc)   XCENC  =        48.32050082
  PAW double counting   =      3742.12287144    -3461.69369749
  entropy T*S    EENTRO =         0.00000000
  eigenvalues    EBANDS =     -1675.02510775
  atomic energy  EATOM  =      7287.06411261
  Solvation  Ediel_sol  =         0.00000000
  ---------------------------------------------------
  free energy    TOTEN  =      -115.63157331 eV

  energy without entropy =     -115.63157331  energy(sigma->0) =     -115.63157331


--------------------------------------------------------------------------------------------------------




--------------------------------------- Iteration      1(   7)  ---------------------------------------


    POTLOK:  cpu time    0.0232: real time    0.0347
    SETDIJ:  cpu time    0.0016: real time    0.0016
     EDDAV:  cpu time    3.2981: real time    3.3059
 BZINTS: Fermi energy: -1.612762;144.000000 electrons
         Band energy:***********;  BLOECHL correction:  0.000000
       DOS:  cpu time    0.0024: real time    0.0024
    CHARGE:  cpu time    0.1506: real time    0.1510
    MIXING:  cpu time    0.0081: real time    0.0087
    --------------------------------------------
      LOOP:  cpu time    3.4840: real time    3.5043

 eigenvalue-minimisations  :  3480
 total energy-change (2. order) : 0.1315240E+01  (-0.1039189E+01)
 number of electron     143.9999990 magnetization 
 augmentation part      -16.8476573 magnetization 

 Broyden mixing:
  rms(total) = 0.24171E+00    rms(broyden)= 0.24171E+00
  rms(prec ) = 0.29195E+00
  weight for this iteration     100.00

 eigenvalues of (default mixing * dielectric matrix)
  average eigenvalue GAMMA=   1.7761
  1.7761  1.7761

 Free energy of the ion-electron system (eV)
  ---------------------------------------------------
  alpha Z        PSCENC =       166.34077906
  Ewald energy   TEWEN  =     11014.78904655
  -Hartree energ DENC   =    -17308.53547359
  -exchange      EXHF   =         0.00000000
  -V(xc)+E(xc)   XCENC  =        50.44763686
  PAW double counting   =      3782.58291541    -3508.36606950
  entropy T*S    EENTRO =         0.00000000
  eigenvalues    EBANDS =     -1598.63928045
  atomic energy  EATOM  =      7287.06411261
  Solvation  Ediel_sol  =         0.00000000
  ---------------------------------------------------
  free energy    TOTEN  =      -114.31633305 eV

  energy without entropy =     -114.31633305  energy(sigma->0) =     -114.31633305


--------------------------------------------------------------------------------------------------------




--------------------------------------- Iteration      1(   8)  ---------------------------------------


    POTLOK:  cpu time    0.0199: real time    0.0301
    SETDIJ:  cpu time    0.0021: real time    0.0021
     EDDAV:  cpu time    2.9350: real time    2.9419
 BZINTS: Fermi energy: -1.444398;144.000000 electrons
         Band energy:***********;  BLOECHL correction:  0.000000
       DOS:  cpu time    0.0023: real time    0.0023
    CHARGE:  cpu time    0.1473: real time    0.1476
    MIXING:  cpu time    0.0050: real time    0.0054
    --------------------------------------------
      LOOP:  cpu time    3.1117: real time    3.1295

 eigenvalue-minimisations  :  3104
 total energy-change (2. order) : 0.2813041E+00  (-0.3692454E+00)
 number of electron     143.9999990 magnetization 
 augmentation part      -17.0175252 magnetization 

 Broyden mixing:
  rms(total) = 0.11729E+00    rms(broyden)= 0.11729E+00
  rms(prec ) = 0.18711E+00
  weight for this iteration     100.00

 eigenvalues of (default mixing * dielectric matrix)
  average eigenvalue GAMMA=   1.6355
  2.5069  1.1998  1.1998

 Free energy of the ion-electron system (eV)
  ---------------------------------------------------
  alpha Z        PSCENC =       166.34077906
  Ewald energy   TEWEN  =     11014.78904655
  -Hartree energ DENC   =    -17340.11871441
  -exchange      EXHF   =         0.00000000
  -V(xc)+E(xc)   XCENC  =        51.32241866
  PAW double counting   =      3829.01254086    -3556.76341874
  entropy T*S    EENTRO =         0.00000000
  eigenvalues    EBANDS =     -1565.68179357
  atomic energy  EATOM  =      7287.06411261
  Solvation  Ediel_sol  =         0.00000000
  ---------------------------------------------------
  free energy    TOTEN  =      -114.03502899 eV

  energy without entropy =     -114.03502899  energy(sigma->0) =     -114.03502899


--------------------------------------------------------------------------------------------------------




--------------------------------------- Iteration      1(   9)  ---------------------------------------


    POTLOK:  cpu time    0.0216: real time    0.0332
    SETDIJ:  cpu time    0.0015: real time    0.0015
     EDDAV:  cpu time    2.9579: real time    2.9649
 BZINTS: Fermi energy: -1.106552;144.000000 electrons
         Band energy:***********;  BLOECHL correction:  0.000000
       DOS:  cpu time    0.0020: real time    0.0020
    CHARGE:  cpu time    0.1477: real time    0.1481
    MIXING:  cpu time    0.0055: real time    0.0056
    --------------------------------------------
      LOOP:  cpu time    3.1362: real time    3.1553

 eigenvalue-minimisations  :  3112
 total energy-change (2. order) : 0.2838357E+00  (-0.1102769E+00)
 number of electron     143.9999990 magnetization 
 augmentation part      -17.0062455 magnetization 

 Broyden mixing:
  rms(total) = 0.54388E-01    rms(broyden)= 0.54388E-01
  rms(prec ) = 0.80336E-01
  weight for this iteration     100.00

 eigenvalues of (default mixing * dielectric matrix)
  average eigenvalue GAMMA=   1.3882
  2.3780  1.1878  1.1878  0.7991

 Free energy of the ion-electron system (eV)
  ---------------------------------------------------
  alpha Z        PSCENC =       166.34077906
  Ewald energy   TEWEN  =     11014.78904655
  -Hartree energ DENC   =    -17378.10200389
  -exchange      EXHF   =         0.00000000
  -V(xc)+E(xc)   XCENC  =        52.19022379
  PAW double counting   =      3840.08498868    -3569.26946446
  entropy T*S    EENTRO =         0.00000000
  eigenvalues    EBANDS =     -1526.84887561
  atomic energy  EATOM  =      7287.06411261
  Solvation  Ediel_sol  =         0.00000000
  ---------------------------------------------------
  free energy    TOTEN  =      -113.75119328 eV

  energy without entropy =     -113.75119328  energy(sigma->0) =     -113.75119328


--------------------------------------------------------------------------------------------------------




--------------------------------------- Iteration      1(  10)  ---------------------------------------


    POTLOK:  cpu time    0.0219: real time    0.0333
    SETDIJ:  cpu time    0.0015: real time    0.0015
     EDDAV:  cpu time    3.2609: real time    3.2686
 BZINTS: Fermi energy: -1.054837;144.000000 electrons
         Band energy:***********;  BLOECHL correction:  0.000000
       DOS:  cpu time    0.0022: real time    0.0022
    CHARGE:  cpu time    0.1429: real time    0.1432
    MIXING:  cpu time    0.0100: real time    0.0101
    --------------------------------------------
      LOOP:  cpu time    3.4394: real time    3.4589

 eigenvalue-minimisations  :  3640
 total energy-change (2. order) :-0.3073540E-02  (-0.2473223E-01)
 number of electron     143.9999990 magnetization 
 augmentation part      -17.0492578 magnetization 

 Broyden mixing:
  rms(total) = 0.41777E-01    rms(broyden)= 0.41777E-01
  rms(prec ) = 0.62392E-01
  weight for this iteration     100.00

 eigenvalues of (default mixing * dielectric matrix)
  average eigenvalue GAMMA=   1.6124
  2.5320  2.5320  0.9748  0.9748  1.0486

 Free energy of the ion-electron system (eV)
  ---------------------------------------------------
  alpha Z        PSCENC =       166.34077906
  Ewald energy   TEWEN  =     11014.78904655
  -Hartree energ DENC   =    -17389.05601363
  -exchange      EXHF   =         0.00000000
  -V(xc)+E(xc)   XCENC  =        52.20641571
  PAW double counting   =      3835.68250034    -3564.51073440
  entropy T*S    EENTRO =         0.00000000
  eigenvalues    EBANDS =     -1516.27037305
  atomic energy  EATOM  =      7287.06411261
  Solvation  Ediel_sol  =         0.00000000
  ---------------------------------------------------
  free energy    TOTEN  =      -113.75426682 eV

  energy without entropy =     -113.75426682  energy(sigma->0) =     -113.75426682


--------------------------------------------------------------------------------------------------------




--------------------------------------- Iteration      1(  11)  ---------------------------------------


    POTLOK:  cpu time    0.0227: real time    0.0321
    SETDIJ:  cpu time    0.0092: real time    0.0092
     EDDAV:  cpu time    3.0784: real time    3.0857
 BZINTS: Fermi energy: -0.917683;144.000000 electrons
         Band energy:***********;  BLOECHL correction:  0.000000
       DOS:  cpu time    0.0019: real time    0.0019
    CHARGE:  cpu time    0.1423: real time    0.1426
    MIXING:  cpu time    0.0055: real time    0.0056
    --------------------------------------------
      LOOP:  cpu time    3.2600: real time    3.2771

 eigenvalue-minimisations  :  3256
 total energy-change (2. order) : 0.1861728E-01  (-0.5917910E-02)
 number of electron     143.9999990 magnetization 
 augmentation part      -17.0617647 magnetization 

 Broyden mixing:
  rms(total) = 0.14438E-01    rms(broyden)= 0.14438E-01
  rms(prec ) = 0.30847E-01
  weight for this iteration     100.00

 eigenvalues of (default mixing * dielectric matrix)
  average eigenvalue GAMMA=   1.6041
  2.8513  2.7622  1.0583  1.0583  0.9473  0.9473

 Free energy of the ion-electron system (eV)
  ---------------------------------------------------
  alpha Z        PSCENC =       166.34077906
  Ewald energy   TEWEN  =     11014.78904655
  -Hartree energ DENC   =    -17410.16632844
  -exchange      EXHF   =         0.00000000
  -V(xc)+E(xc)   XCENC  =        52.37723033
  PAW double counting   =      3837.15131299    -3565.57743200
  entropy T*S    EENTRO =         0.00000000
  eigenvalues    EBANDS =     -1495.71437064
  atomic energy  EATOM  =      7287.06411261
  Solvation  Ediel_sol  =         0.00000000
  ---------------------------------------------------
  free energy    TOTEN  =      -113.73564954 eV

  energy without entropy =     -113.73564954  energy(sigma->0) =     -113.73564954


--------------------------------------------------------------------------------------------------------




--------------------------------------- Iteration      1(  12)  ---------------------------------------


    POTLOK:  cpu time    0.0189: real time    0.0304
    SETDIJ:  cpu time    0.0016: real time    0.0016
     EDDAV:  cpu time    3.0772: real time    3.0845
 BZINTS: Fermi energy: -0.842376;144.000000 electrons
         Band energy:***********;  BLOECHL correction:  0.000000
       DOS:  cpu time    0.0019: real time    0.0019
    CHARGE:  cpu time    0.1470: real time    0.1474
    MIXING:  cpu time    0.0053: real time    0.0054
    --------------------------------------------
      LOOP:  cpu time    3.2520: real time    3.2711

 eigenvalue-minimisations  :  3280
 total energy-change (2. order) : 0.1080173E-03  (-0.1222418E-02)
 number of electron     143.9999990 magnetization 
 augmentation part      -17.0574042 magnetization 

 Broyden mixing:
  rms(total) = 0.12392E-01    rms(broyden)= 0.12392E-01
  rms(prec ) = 0.21186E-01
  weight for this iteration     100.00

 eigenvalues of (default mixing * dielectric matrix)
  average eigenvalue GAMMA=   1.7226
  3.7795  2.1271  2.1271  1.1155  1.1155  0.8969  0.8969

 Free energy of the ion-electron system (eV)
  ---------------------------------------------------
  alpha Z        PSCENC =       166.34077906
  Ewald energy   TEWEN  =     11014.78904655
  -Hartree energ DENC   =    -17422.32482768
  -exchange      EXHF   =         0.00000000
  -V(xc)+E(xc)   XCENC  =        52.45648426
  PAW double counting   =      3836.45982438    -3564.79062347
  entropy T*S    EENTRO =         0.00000000
  eigenvalues    EBANDS =     -1483.73033723
  atomic energy  EATOM  =      7287.06411261
  Solvation  Ediel_sol  =         0.00000000
  ---------------------------------------------------
  free energy    TOTEN  =      -113.73554152 eV

  energy without entropy =     -113.73554152  energy(sigma->0) =     -113.73554152


--------------------------------------------------------------------------------------------------------




--------------------------------------- Iteration      1(  13)  ---------------------------------------


    POTLOK:  cpu time    0.0190: real time    0.0302
    SETDIJ:  cpu time    0.0015: real time    0.0015
     EDDAV:  cpu time    3.1174: real time    3.1248
 BZINTS: Fermi energy: -0.773067;144.000000 electrons
         Band energy:***********;  BLOECHL correction:  0.000000
       DOS:  cpu time    0.0019: real time    0.0019
    CHARGE:  cpu time    0.1443: real time    0.1446
    MIXING:  cpu time    0.0053: real time    0.0053
    --------------------------------------------
      LOOP:  cpu time    3.2895: real time    3.3084

 eigenvalue-minimisations  :  3312
 total energy-change (2. order) :-0.6295139E-02  (-0.1060681E-02)
 number of electron     143.9999990 magnetization 
 augmentation part      -17.0576933 magnetization 

 Broyden mixing:
  rms(total) = 0.71548E-02    rms(broyden)= 0.71548E-02
  rms(prec ) = 0.12287E-01
  weight for this iteration     100.00

 eigenvalues of (default mixing * dielectric matrix)
  average eigenvalue GAMMA=   1.8177
  4.3980  2.5469  2.5469  1.1988  1.1988  0.8830  0.8846  0.8846

 Free energy of the ion-electron system (eV)
  ---------------------------------------------------
  alpha Z        PSCENC =       166.34077906
  Ewald energy   TEWEN  =     11014.78904655
  -Hartree energ DENC   =    -17433.59772482
  -exchange      EXHF   =         0.00000000
  -V(xc)+E(xc)   XCENC  =        52.54205071
  PAW double counting   =      3835.48938395    -3563.96435988
  entropy T*S    EENTRO =         0.00000000
  eigenvalues    EBANDS =     -1472.40512484
  atomic energy  EATOM  =      7287.06411261
  Solvation  Ediel_sol  =         0.00000000
  ---------------------------------------------------
  free energy    TOTEN  =      -113.74183666 eV

  energy without entropy =     -113.74183666  energy(sigma->0) =     -113.74183666


--------------------------------------------------------------------------------------------------------




--------------------------------------- Iteration      1(  14)  ---------------------------------------


    POTLOK:  cpu time    0.0192: real time    0.0299
    SETDIJ:  cpu time    0.0017: real time    0.0017
     EDDAV:  cpu time    2.8819: real time    2.8887
 BZINTS: Fermi energy: -0.749396;144.000000 electrons
         Band energy:***********;  BLOECHL correction:  0.000000
       DOS:  cpu time    0.0022: real time    0.0022
    CHARGE:  cpu time    0.1485: real time    0.1489
    MIXING:  cpu time    0.0058: real time    0.0058
    --------------------------------------------
      LOOP:  cpu time    3.0593: real time    3.0773

 eigenvalue-minimisations  :  3088
 total energy-change (2. order) :-0.4262218E-02  (-0.2359822E-03)
 number of electron     143.9999990 magnetization 
 augmentation part      -17.0578483 magnetization 

 Broyden mixing:
  rms(total) = 0.51545E-02    rms(broyden)= 0.51545E-02
  rms(prec ) = 0.83639E-02
  weight for this iteration     100.00

 eigenvalues of (default mixing * dielectric matrix)
  average eigenvalue GAMMA=   1.8445
  4.8362  2.8113  2.2565  1.3698  1.3698  0.9076  0.9076  1.0710  1.0710

 Free energy of the ion-electron system (eV)
  ---------------------------------------------------
  alpha Z        PSCENC =       166.34077906
  Ewald energy   TEWEN  =     11014.78904655
  -Hartree energ DENC   =    -17437.39567060
  -exchange      EXHF   =         0.00000000
  -V(xc)+E(xc)   XCENC  =        52.54093888
  PAW double counting   =      3834.27866468    -3562.72770564
  entropy T*S    EENTRO =         0.00000000
  eigenvalues    EBANDS =     -1468.63626441
  atomic energy  EATOM  =      7287.06411261
  Solvation  Ediel_sol  =         0.00000000
  ---------------------------------------------------
  free energy    TOTEN  =      -113.74609888 eV

  energy without entropy =     -113.74609888  energy(sigma->0) =     -113.74609888


--------------------------------------------------------------------------------------------------------




--------------------------------------- Iteration      1(  15)  ---------------------------------------


    POTLOK:  cpu time    0.0188: real time    0.0301
    SETDIJ:  cpu time    0.0018: real time    0.0018
     EDDAV:  cpu time    3.0531: real time    3.0604
 BZINTS: Fermi energy: -0.736301;144.000000 electrons
         Band energy:***********;  BLOECHL correction:  0.000000
       DOS:  cpu time    0.0019: real time    0.0019
    CHARGE:  cpu time    0.1464: real time    0.1467
    MIXING:  cpu time    0.0065: real time    0.0066
    --------------------------------------------
      LOOP:  cpu time    3.2285: real time    3.2474

 eigenvalue-minimisations  :  3152
 total energy-change (2. order) :-0.1634476E-02  (-0.1617522E-03)
 number of electron     143.9999990 magnetization 
 augmentation part      -17.0592335 magnetization 

 Broyden mixing:
  rms(total) = 0.22763E-02    rms(broyden)= 0.22763E-02
  rms(prec ) = 0.43275E-02
  weight for this iteration     100.00

 eigenvalues of (default mixing * dielectric matrix)
  average eigenvalue GAMMA=   1.9340
  5.5980  3.4116  2.3590  0.9030  0.9030  1.3484  1.3484  1.3061  1.1920  0.9708

 Free energy of the ion-electron system (eV)
  ---------------------------------------------------
  alpha Z        PSCENC =       166.34077906
  Ewald energy   TEWEN  =     11014.78904655
  -Hartree energ DENC   =    -17439.23393103
  -exchange      EXHF   =         0.00000000
  -V(xc)+E(xc)   XCENC  =        52.53565354
  PAW double counting   =      3834.46139130    -3562.87314552
  entropy T*S    EENTRO =         0.00000000
  eigenvalues    EBANDS =     -1466.83163986
  atomic energy  EATOM  =      7287.06411261
  Solvation  Ediel_sol  =         0.00000000
  ---------------------------------------------------
  free energy    TOTEN  =      -113.74773335 eV

  energy without entropy =     -113.74773335  energy(sigma->0) =     -113.74773335


--------------------------------------------------------------------------------------------------------




--------------------------------------- Iteration      1(  16)  ---------------------------------------


    POTLOK:  cpu time    0.0201: real time    0.0311
    SETDIJ:  cpu time    0.0016: real time    0.0016
     EDDAV:  cpu time    2.8629: real time    2.8696
 BZINTS: Fermi energy: -0.727682;144.000000 electrons
         Band energy:***********;  BLOECHL correction:  0.000000
       DOS:  cpu time    0.0019: real time    0.0019
    CHARGE:  cpu time    0.1472: real time    0.1475
    MIXING:  cpu time    0.0059: real time    0.0060
    --------------------------------------------
      LOOP:  cpu time    3.0395: real time    3.0577

 eigenvalue-minimisations  :  3152
 total energy-change (2. order) :-0.1219976E-02  (-0.6404539E-04)
 number of electron     143.9999990 magnetization 
 augmentation part      -17.0587793 magnetization 

 Broyden mixing:
  rms(total) = 0.14959E-02    rms(broyden)= 0.14959E-02
  rms(prec ) = 0.28414E-02
  weight for this iteration     100.00

 eigenvalues of (default mixing * dielectric matrix)
  average eigenvalue GAMMA=   1.9824
  5.7253  4.0130  2.1506  2.1506  0.9067  0.9067  1.4332  1.2617  1.2617  0.9986
  0.9986

 Free energy of the ion-electron system (eV)
  ---------------------------------------------------
  alpha Z        PSCENC =       166.34077906
  Ewald energy   TEWEN  =     11014.78904655
  -Hartree energ DENC   =    -17440.51375278
  -exchange      EXHF   =         0.00000000
  -V(xc)+E(xc)   XCENC  =        52.53424620
  PAW double counting   =      3834.46114663    -3562.88285462
  entropy T*S    EENTRO =         0.00000000
  eigenvalues    EBANDS =     -1465.54167698
  atomic energy  EATOM  =      7287.06411261
  Solvation  Ediel_sol  =         0.00000000
  ---------------------------------------------------
  free energy    TOTEN  =      -113.74895333 eV

  energy without entropy =     -113.74895333  energy(sigma->0) =     -113.74895333


--------------------------------------------------------------------------------------------------------




--------------------------------------- Iteration      1(  17)  ---------------------------------------


    POTLOK:  cpu time    0.0195: real time    0.0308
    SETDIJ:  cpu time    0.0015: real time    0.0015
     EDDAV:  cpu time    2.8393: real time    2.8460
 BZINTS: Fermi energy: -0.723155;144.000000 electrons
         Band energy:***********;  BLOECHL correction:  0.000000
       DOS:  cpu time    0.0019: real time    0.0019
    CHARGE:  cpu time    0.1590: real time    0.1593
    MIXING:  cpu time    0.0062: real time    0.0062
    --------------------------------------------
      LOOP:  cpu time    3.0274: real time    3.0458

 eigenvalue-minimisations  :  2904
 total energy-change (2. order) :-0.8021028E-03  (-0.3541776E-04)
 number of electron     143.9999990 magnetization 
 augmentation part      -17.0588974 magnetization 

 Broyden mixing:
  rms(total) = 0.97421E-03    rms(broyden)= 0.97421E-03
  rms(prec ) = 0.18598E-02
  weight for this iteration     100.00

 eigenvalues of (default mixing * dielectric matrix)
  average eigenvalue GAMMA=   2.0673
  6.1870  4.5315  2.5991  2.3399  1.6485  0.9052  0.9052  1.2637  1.2637  0.9766
  1.0933  1.0933

 Free energy of the ion-electron system (eV)
  ---------------------------------------------------
  alpha Z        PSCENC =       166.34077906
  Ewald energy   TEWEN  =     11014.78904655
  -Hartree energ DENC   =    -17441.21695609
  -exchange      EXHF   =         0.00000000
  -V(xc)+E(xc)   XCENC  =        52.53311015
  PAW double counting   =      3834.50441234    -3562.92161928
  entropy T*S    EENTRO =         0.00000000
  eigenvalues    EBANDS =     -1464.84264076
  atomic energy  EATOM  =      7287.06411261
  Solvation  Ediel_sol  =         0.00000000
  ---------------------------------------------------
  free energy    TOTEN  =      -113.74975543 eV

  energy without entropy =     -113.74975543  energy(sigma->0) =     -113.74975543


--------------------------------------------------------------------------------------------------------




--------------------------------------- Iteration      1(  18)  ---------------------------------------


    POTLOK:  cpu time    0.0182: real time    0.0294
    SETDIJ:  cpu time    0.0020: real time    0.0020
     EDDAV:  cpu time    2.7892: real time    2.7958
 BZINTS: Fermi energy: -0.719910;144.000000 electrons
         Band energy:***********;  BLOECHL correction:  0.000000
       DOS:  cpu time    0.0019: real time    0.0019
    CHARGE:  cpu time    0.1444: real time    0.1447
    MIXING:  cpu time    0.0059: real time    0.0059
    --------------------------------------------
      LOOP:  cpu time    2.9616: real time    2.9797

 eigenvalue-minimisations  :  3008
 total energy-change (2. order) :-0.1076311E-02  (-0.2186542E-04)
 number of electron     143.9999990 magnetization 
 augmentation part      -17.0590186 magnetization 

 Broyden mixing:
  rms(total) = 0.58047E-03    rms(broyden)= 0.58047E-03
  rms(prec ) = 0.97780E-03
  weight for this iteration     100.00

 eigenvalues of (default mixing * dielectric matrix)
  average eigenvalue GAMMA=   2.1432
  5.8890  5.8890  2.9240  2.4663  1.8853  0.9049  0.9049  1.3438  1.3438  1.1920
  1.1920  0.9634  0.9634

 Free energy of the ion-electron system (eV)
  ---------------------------------------------------
  alpha Z        PSCENC =       166.34077906
  Ewald energy   TEWEN  =     11014.78904655
  -Hartree energ DENC   =    -17441.90989878
  -exchange      EXHF   =         0.00000000
  -V(xc)+E(xc)   XCENC  =        52.53415703
  PAW double counting   =      3834.48099059    -3562.89799520
  entropy T*S    EENTRO =         0.00000000
  eigenvalues    EBANDS =     -1464.15202359
  atomic energy  EATOM  =      7287.06411261
  Solvation  Ediel_sol  =         0.00000000
  ---------------------------------------------------
  free energy    TOTEN  =      -113.75083174 eV

  energy without entropy =     -113.75083174  energy(sigma->0) =     -113.75083174


--------------------------------------------------------------------------------------------------------




--------------------------------------- Iteration      1(  19)  ---------------------------------------


    POTLOK:  cpu time    0.0165: real time    0.0277
    SETDIJ:  cpu time    0.0028: real time    0.0028
     EDDAV:  cpu time    2.5986: real time    2.6047
 BZINTS: Fermi energy: -0.719958;144.000000 electrons
         Band energy:***********;  BLOECHL correction:  0.000000
       DOS:  cpu time    0.0021: real time    0.0021
    CHARGE:  cpu time    0.1458: real time    0.1462
    MIXING:  cpu time    0.0060: real time    0.0061
    --------------------------------------------
      LOOP:  cpu time    2.7718: real time    2.7896

 eigenvalue-minimisations  :  2696
 total energy-change (2. order) :-0.7473594E-03  (-0.1124659E-04)
 number of electron     143.9999990 magnetization 
 augmentation part      -17.0592420 magnetization 

 Broyden mixing:
  rms(total) = 0.42772E-03    rms(broyden)= 0.42772E-03
  rms(prec ) = 0.61650E-03
  weight for this iteration     100.00

 eigenvalues of (default mixing * dielectric matrix)
  average eigenvalue GAMMA=   2.2602
  6.5475  6.5475  3.3280  2.5802  2.3188  1.5495  1.5495  0.9048  0.9048  1.2172
  1.2172  0.9944  0.9944  0.9895

 Free energy of the ion-electron system (eV)
  ---------------------------------------------------
  alpha Z        PSCENC =       166.34077906
  Ewald energy   TEWEN  =     11014.78904655
  -Hartree energ DENC   =    -17442.08369229
  -exchange      EXHF   =         0.00000000
  -V(xc)+E(xc)   XCENC  =        52.53303072
  PAW double counting   =      3834.46452559    -3562.88143985
  entropy T*S    EENTRO =         0.00000000
  eigenvalues    EBANDS =     -1463.97794149
  atomic energy  EATOM  =      7287.06411261
  Solvation  Ediel_sol  =         0.00000000
  ---------------------------------------------------
  free energy    TOTEN  =      -113.75157910 eV

  energy without entropy =     -113.75157910  energy(sigma->0) =     -113.75157910


--------------------------------------------------------------------------------------------------------




--------------------------------------- Iteration      1(  20)  ---------------------------------------


    POTLOK:  cpu time    0.0183: real time    0.0309
    SETDIJ:  cpu time    0.0015: real time    0.0015
     EDDAV:  cpu time    2.6066: real time    2.6128
 BZINTS: Fermi energy: -0.720265;144.000000 electrons
         Band energy:***********;  BLOECHL correction:  0.000000
       DOS:  cpu time    0.0019: real time    0.0019
    CHARGE:  cpu time    0.1528: real time    0.1531
    MIXING:  cpu time    0.0066: real time    0.0067
    --------------------------------------------
      LOOP:  cpu time    2.7878: real time    2.8069

 eigenvalue-minimisations  :  2704
 total energy-change (2. order) :-0.3882961E-03  (-0.6032240E-05)
 number of electron     143.9999990 magnetization 
 augmentation part      -17.0593318 magnetization 

 Broyden mixing:
  rms(total) = 0.15338E-03    rms(broyden)= 0.15338E-03
  rms(prec ) = 0.20574E-03
  weight for this iteration     100.00

 eigenvalues of (default mixing * dielectric matrix)
  average eigenvalue GAMMA=   2.3333
  7.6169  6.8151  3.7048  2.7668  2.3283  1.6590  1.6590  0.9049  0.9049  1.2235
  1.2235  1.1337  1.1337  0.9627  0.9627

 Free energy of the ion-electron system (eV)
  ---------------------------------------------------
  alpha Z        PSCENC =       166.34077906
  Ewald energy   TEWEN  =     11014.78904655
  -Hartree energ DENC   =    -17442.16926149
  -exchange      EXHF   =         0.00000000
  -V(xc)+E(xc)   XCENC  =        52.53273306
  PAW double counting   =      3834.47669909    -3562.89296312
  entropy T*S    EENTRO =         0.00000000
  eigenvalues    EBANDS =     -1463.89311315
  atomic energy  EATOM  =      7287.06411261
  Solvation  Ediel_sol  =         0.00000000
  ---------------------------------------------------
  free energy    TOTEN  =      -113.75196740 eV

  energy without entropy =     -113.75196740  energy(sigma->0) =     -113.75196740


--------------------------------------------------------------------------------------------------------




--------------------------------------- Iteration      1(  21)  ---------------------------------------


    POTLOK:  cpu time    0.0209: real time    0.0322
    SETDIJ:  cpu time    0.0015: real time    0.0015
     EDDAV:  cpu time    2.5484: real time    2.5544
 BZINTS: Fermi energy: -0.720997;144.000000 electrons
         Band energy:***********;  BLOECHL correction:  0.000000
       DOS:  cpu time    0.0022: real time    0.0022
    CHARGE:  cpu time    0.1479: real time    0.1483
    MIXING:  cpu time    0.0065: real time    0.0065
    --------------------------------------------
      LOOP:  cpu time    2.7273: real time    2.7452

 eigenvalue-minimisations  :  2504
 total energy-change (2. order) :-0.1037608E-03  (-0.1243169E-05)
 number of electron     143.9999990 magnetization 
 augmentation part      -17.0592755 magnetization 

 Broyden mixing:
  rms(total) = 0.89041E-04    rms(broyden)= 0.89041E-04
  rms(prec ) = 0.11136E-03
  weight for this iteration     100.00

 eigenvalues of (default mixing * dielectric matrix)
  average eigenvalue GAMMA=   2.3919
  8.7534  6.8224  3.9505  2.9648  2.3507  1.8831  1.8831  0.9049  0.9049  1.2356
  1.2356  1.2869  1.1700  0.9664  0.9664  0.9920

 Free energy of the ion-electron system (eV)
  ---------------------------------------------------
  alpha Z        PSCENC =       166.34077906
  Ewald energy   TEWEN  =     11014.78904655
  -Hartree energ DENC   =    -17442.18213877
  -exchange      EXHF   =         0.00000000
  -V(xc)+E(xc)   XCENC  =        52.53254250
  PAW double counting   =      3834.46500995    -3562.88105157
  entropy T*S    EENTRO =         0.00000000
  eigenvalues    EBANDS =     -1463.88037147
  atomic energy  EATOM  =      7287.06411261
  Solvation  Ediel_sol  =         0.00000000
  ---------------------------------------------------
  free energy    TOTEN  =      -113.75207116 eV

  energy without entropy =     -113.75207116  energy(sigma->0) =     -113.75207116


--------------------------------------------------------------------------------------------------------




--------------------------------------- Iteration      1(  22)  ---------------------------------------


    POTLOK:  cpu time    0.0259: real time    0.0376
    SETDIJ:  cpu time    0.0015: real time    0.0015
     EDDAV:  cpu time    2.2072: real time    2.2124
 BZINTS: Fermi energy: -0.721831;144.000000 electrons
         Band energy:***********;  BLOECHL correction:  0.000000
       DOS:  cpu time    0.0020: real time    0.0020
    CHARGE:  cpu time    0.1486: real time    0.1490
    MIXING:  cpu time    0.0071: real time    0.0072
    --------------------------------------------
      LOOP:  cpu time    2.3923: real time    2.4096

 eigenvalue-minimisations  :  2296
 total energy-change (2. order) :-0.3272690E-04  (-0.3033493E-06)
 number of electron     143.9999990 magnetization 
 augmentation part      -17.0592624 magnetization 

 Broyden mixing:
  rms(total) = 0.47664E-04    rms(broyden)= 0.47664E-04
  rms(prec ) = 0.62953E-04
  weight for this iteration     100.00

 eigenvalues of (default mixing * dielectric matrix)
  average eigenvalue GAMMA=   2.3691
  8.8489  6.9678  4.0637  3.0722  2.4582  1.9940  1.8196  0.9049  0.9049  1.3798
  1.3798  1.2388  1.2388  1.0797  1.0009  0.9612  0.9612

 Free energy of the ion-electron system (eV)
  ---------------------------------------------------
  alpha Z        PSCENC =       166.34077906
  Ewald energy   TEWEN  =     11014.78904655
  -Hartree energ DENC   =    -17442.16435000
  -exchange      EXHF   =         0.00000000
  -V(xc)+E(xc)   XCENC  =        52.53216980
  PAW double counting   =      3834.45164240    -3562.86771060
  entropy T*S    EENTRO =         0.00000000
  eigenvalues    EBANDS =     -1463.89779370
  atomic energy  EATOM  =      7287.06411261
  Solvation  Ediel_sol  =         0.00000000
  ---------------------------------------------------
  free energy    TOTEN  =      -113.75210389 eV

  energy without entropy =     -113.75210389  energy(sigma->0) =     -113.75210389


--------------------------------------------------------------------------------------------------------




--------------------------------------- Iteration      1(  23)  ---------------------------------------


    POTLOK:  cpu time    0.0175: real time    0.0283
    SETDIJ:  cpu time    0.0033: real time    0.0033
     EDDAV:  cpu time    2.1715: real time    2.1766
 BZINTS: Fermi energy: -0.722442;144.000000 electrons
         Band energy:***********;  BLOECHL correction:  0.000000
       DOS:  cpu time    0.0019: real time    0.0019
    CHARGE:  cpu time    0.1463: real time    0.1467
    MIXING:  cpu time    0.0068: real time    0.0069
    --------------------------------------------
      LOOP:  cpu time    2.3474: real time    2.3637

 eigenvalue-minimisations  :  2000
 total energy-change (2. order) :-0.8264149E-05  (-0.5490061E-07)
 number of electron     143.9999990 magnetization 
 augmentation part      -17.0592606 magnetization 

 Broyden mixing:
  rms(total) = 0.25217E-04    rms(broyden)= 0.25217E-04
  rms(prec ) = 0.34269E-04
  weight for this iteration     100.00

 eigenvalues of (default mixing * dielectric matrix)
  average eigenvalue GAMMA=   2.3881
  8.9727  7.0304  4.1942  3.3305  2.6120  2.1499  1.9704  1.9704  0.9049  0.9049
  1.2351  1.2351  1.2642  1.2642  1.0532  0.9685  0.9685  0.9559

 Free energy of the ion-electron system (eV)
  ---------------------------------------------------
  alpha Z        PSCENC =       166.34077906
  Ewald energy   TEWEN  =     11014.78904655
  -Hartree energ DENC   =    -17442.16995159
  -exchange      EXHF   =         0.00000000
  -V(xc)+E(xc)   XCENC  =        52.53224029
  PAW double counting   =      3834.45008537    -3562.86621946
  entropy T*S    EENTRO =         0.00000000
  eigenvalues    EBANDS =     -1463.89220497
  atomic energy  EATOM  =      7287.06411261
  Solvation  Ediel_sol  =         0.00000000
  ---------------------------------------------------
  free energy    TOTEN  =      -113.75211215 eV

  energy without entropy =     -113.75211215  energy(sigma->0) =     -113.75211215


--------------------------------------------------------------------------------------------------------




--------------------------------------- Iteration      1(  24)  ---------------------------------------


    POTLOK:  cpu time    0.0189: real time    0.0301
    SETDIJ:  cpu time    0.0018: real time    0.0018
     EDDAV:  cpu time    2.0578: real time    2.0626
 BZINTS: Fermi energy: -0.723073;144.000000 electrons
         Band energy:***********;  BLOECHL correction:  0.000000
       DOS:  cpu time    0.0021: real time    0.0021
    CHARGE:  cpu time    0.1575: real time    0.1579
    MIXING:  cpu time    0.0081: real time    0.0082
    --------------------------------------------
      LOOP:  cpu time    2.2462: real time    2.2627

 eigenvalue-minimisations  :  1880
 total energy-change (2. order) :-0.2826682E-05  (-0.3588557E-07)
 number of electron     143.9999990 magnetization 
 augmentation part      -17.0592611 magnetization 

 Broyden mixing:
  rms(total) = 0.87936E-05    rms(broyden)= 0.87936E-05
  rms(prec ) = 0.13498E-04
  weight for this iteration     100.00

 eigenvalues of (default mixing * dielectric matrix)
  average eigenvalue GAMMA=   2.3660
  9.0170  7.0471  4.2546  3.5611  2.6613  2.5352  2.0137  1.7457  0.9049  0.9049
  1.4111  1.4111  1.2340  1.2340  1.1288  0.9577  0.9577  0.9873  0.9873

 Free energy of the ion-electron system (eV)
  ---------------------------------------------------
  alpha Z        PSCENC =       166.34077906
  Ewald energy   TEWEN  =     11014.78904655
  -Hartree energ DENC   =    -17442.16758558
  -exchange      EXHF   =         0.00000000
  -V(xc)+E(xc)   XCENC  =        52.53220370
  PAW double counting   =      3834.45022147    -3562.86642094
  entropy T*S    EENTRO =         0.00000000
  eigenvalues    EBANDS =     -1463.89447183
  atomic energy  EATOM  =      7287.06411261
  Solvation  Ediel_sol  =         0.00000000
  ---------------------------------------------------
  free energy    TOTEN  =      -113.75211498 eV

  energy without entropy =     -113.75211498  energy(sigma->0) =     -113.75211498


--------------------------------------------------------------------------------------------------------




--------------------------------------- Iteration      1(  25)  ---------------------------------------


    POTLOK:  cpu time    0.0187: real time    0.0301
    SETDIJ:  cpu time    0.0042: real time    0.0042
     EDDAV:  cpu time    2.0725: real time    2.0774
 BZINTS: Fermi energy: -0.723685;144.000000 electrons
         Band energy:***********;  BLOECHL correction:  0.000000
       DOS:  cpu time    0.0019: real time    0.0019
    --------------------------------------------
      LOOP:  cpu time    2.0973: real time    2.1136

 eigenvalue-minimisations  :  1928
 total energy-change (2. order) :-0.6435921E-06  (-0.1232391E-07)
 number of electron     143.9999990 magnetization 
 augmentation part      -17.0592611 magnetization 

 Free energy of the ion-electron system (eV)
  ---------------------------------------------------
  alpha Z        PSCENC =       166.34077906
  Ewald energy   TEWEN  =     11014.78904655
  -Hartree energ DENC   =    -17442.16568988
  -exchange      EXHF   =         0.00000000
  -V(xc)+E(xc)   XCENC  =        52.53216521
  PAW double counting   =      3834.45051090    -3562.86669256
  entropy T*S    EENTRO =         0.00000000
  eigenvalues    EBANDS =     -1463.89634751
  atomic energy  EATOM  =      7287.06411261
  Solvation  Ediel_sol  =         0.00000000
  ---------------------------------------------------
  free energy    TOTEN  =      -113.75211562 eV

[...]
      7     -28.2973      2.00000
      8     -28.2970      2.00000
      9     -14.9407      2.00000
     10     -14.9405      2.00000
     11     -14.8811      2.00000
     12     -14.8811      2.00000
     13     -14.8094      2.00000
     14     -14.8094      2.00000
     15     -14.1629      2.00000
     16     -14.1576      2.00000
     17     -14.1120      2.00000
     18     -14.1110      2.00000
     19     -14.0651      2.00000
     20     -14.0605      2.00000
     21     -14.0506      2.00000
     22     -14.0477      2.00000
     23     -13.9160      2.00000
     24     -13.9152      2.00000
     25     -13.9099      2.00000
     26     -13.9084      2.00000
     27     -13.5805      2.00000
     28     -13.5727      2.00000
     29     -13.5260      2.00000
     30     -13.5185      2.00000
     31     -13.5049      2.00000
     32     -13.5026      2.00000
     33     -11.1561      2.00000
     34     -11.1490      2.00000
     35     -10.9090      2.00000
     36     -10.8968      2.00000
     37      -6.5180      2.00000
     38      -6.5095      2.00000
     39      -6.3154      2.00000
     40      -6.2684      2.00000
     41      -6.2199      2.00000
     42      -6.1867      2.00000
     43      -6.0184      2.00000
     44      -6.0049      2.00000
     45      -5.9667      2.00000
     46      -5.9334      2.00000
     47      -5.9242      2.00000
     48      -5.8281      2.00000
     49      -2.8960      2.00000
     50      -2.8124      2.00000
     51      -2.6882      2.00000
     52      -2.6482      2.00000
     53      -2.2892      2.00000
     54      -2.2557      2.00000
     55      -2.2457      2.00000
     56      -2.1882      2.00000
     57      -2.0978      2.00000
     58      -2.0727      2.00000
     59      -1.9102      2.00000
     60      -1.8565      2.00000
     61      -1.7854      2.00000
     62      -1.7136      2.00000
     63      -1.5992      2.00000
     64      -1.5724      2.00000
     65      -1.4503      2.00000
     66      -1.3959      2.00000
     67      -1.2978      2.00000
     68      -1.1566      2.00000
     69      -1.1003      2.00000
     70      -1.0538      2.00000
     71      -0.9629      2.00000
     72      -0.9122      2.00000
     73       0.2133      0.00000
     74       0.2463      0.00000
     75       0.3592      0.00000
     76       0.4069      0.00000
     77       0.4883      0.00000
     78       0.5546      0.00000
     79       0.7054      0.00000
     80       0.7264      0.00000
     81       0.7952      0.00000
     82       0.8616      0.00000
     83       1.0635      0.00000
     84       1.1344      0.00000
     85       1.2118      0.00000
     86       1.3125      0.00000
     87       1.4154      0.00000
     88       1.5166      0.00000

 k-point    15 :       0.0000    0.5000    0.4000
  band No.  band energies     occupation 
      1     -29.6637      2.00000
      2     -29.6637      2.00000
      3     -28.8867      2.00000
      4     -28.8866      2.00000
      5     -28.6804      2.00000
      6     -28.6804      2.00000
      7     -28.2972      2.00000
      8     -28.2972      2.00000
      9     -14.9401      2.00000
     10     -14.9401      2.00000
     11     -14.8820      2.00000
     12     -14.8819      2.00000
     13     -14.8117      2.00000
     14     -14.8117      2.00000
     15     -14.1615      2.00000
     16     -14.1614      2.00000
     17     -14.1134      2.00000
     18     -14.1134      2.00000
     19     -14.0621      2.00000
     20     -14.0621      2.00000
     21     -14.0495      2.00000
     22     -14.0495      2.00000
     23     -13.9164      2.00000
     24     -13.9164      2.00000
     25     -13.9108      2.00000
     26     -13.9108      2.00000
     27     -13.5762      2.00000
     28     -13.5762      2.00000
     29     -13.5230      2.00000
     30     -13.5230      2.00000
     31     -13.5028      2.00000
     32     -13.5028      2.00000
     33     -11.1471      2.00000
     34     -11.1470      2.00000
     35     -10.8934      2.00000
     36     -10.8934      2.00000
     37      -6.5424      2.00000
     38      -6.5423      2.00000
     39      -6.2779      2.00000
     40      -6.2779      2.00000
     41      -6.1990      2.00000
     42      -6.1990      2.00000
     43      -5.9860      2.00000
     44      -5.9860      2.00000
     45      -5.9533      2.00000
     46      -5.9532      2.00000
     47      -5.8746      2.00000
     48      -5.8745      2.00000
     49      -2.8016      2.00000
     50      -2.8016      2.00000
     51      -2.6875      2.00000
     52      -2.6875      2.00000
     53      -2.2822      2.00000
     54      -2.2822      2.00000
     55      -2.2133      2.00000
     56      -2.2133      2.00000
     57      -2.1021      2.00000
     58      -2.1021      2.00000
     59      -1.8109      2.00000
     60      -1.8109      2.00000
     61      -1.6881      2.00000
     62      -1.6881      2.00000
     63      -1.6231      2.00000
     64      -1.6231      2.00000
     65      -1.4342      2.00000
     66      -1.4342      2.00000
     67      -1.2378      2.00000
     68      -1.2378      2.00000
     69      -1.0865      2.00000
     70      -1.0865      2.00000
     71      -0.9415      2.00000
     72      -0.9414      2.00000
     73       0.1367      0.00000
     74       0.1368      0.00000
     75       0.3480      0.00000
     76       0.3480      0.00000
     77       0.5439      0.00000
     78       0.5439      0.00000
     79       0.6540      0.00000
     80       0.6540      0.00000
     81       0.7425      0.00000
     82       0.7425      0.00000
     83       1.0973      0.00000
     84       1.0973      0.00000
     85       1.3006      0.00000
     86       1.3006      0.00000
     87       1.3979      0.00000
     88       1.3979      0.00000


--------------------------------------------------------------------------------------------------------


 soft charge-density along one line, spin component           1
         0         1         2         3         4         5         6         7         8         9
 total charge-density along one line
 
 pseudopotential strength for first ion, spin component:           1
  3.723  -5.730  -0.000  -0.009  -0.039  -0.000  -0.004  -0.018
 -5.730  -3.004   0.000   0.002   0.009  -0.000  -0.002  -0.007
 -0.000   0.000  -7.161  -0.000  -0.000   1.853  -0.000  -0.000
 -0.009   0.002  -0.000  -7.157  -0.001  -0.000   1.866  -0.004
 -0.039   0.009  -0.000  -0.001  -7.156  -0.000  -0.004   1.865
 -0.000  -0.000   1.853  -0.000  -0.000   7.202  -0.000  -0.000
 -0.004  -0.002  -0.000   1.866  -0.004  -0.000   7.204  -0.000
 -0.018  -0.007  -0.000  -0.004   1.865  -0.000  -0.000   7.204
 -0.000   0.000  -0.013  -0.000  -0.000  -0.010  -0.000  -0.000
 -0.000   0.000  -0.001  -0.000  -0.000  -0.001  -0.000  -0.000
  0.002  -0.001   0.000  -0.004   0.007   0.000  -0.003   0.006
 -0.002   0.001  -0.000  -0.013  -0.003  -0.000  -0.009  -0.002
  0.003  -0.001   0.000  -0.001  -0.013   0.000  -0.001  -0.009
  0.000   0.000   0.001   0.000   0.000   0.000   0.000   0.000
  0.000   0.000   0.000   0.000   0.000  -0.000   0.000   0.000
 -0.000  -0.000  -0.000   0.000  -0.000  -0.000   0.000  -0.000
  0.000   0.000   0.000   0.001   0.000   0.000   0.000   0.000
 -0.000  -0.000  -0.000   0.000   0.001  -0.000   0.000   0.000
 total augmentation occupancy for first ion, spin component:           1
  2.117  -0.284   0.000   0.014   0.054   0.000  -0.006  -0.019   0.000  -0.000   0.016  -0.013   0.037   0.000  -0.000  -0.007
 -0.284   0.655   0.000  -0.035  -0.136   0.000   0.013   0.034  -0.000  -0.000  -0.026   0.019  -0.071   0.000   0.000   0.035
  0.000   0.000   2.012   0.000   0.000  -0.012   0.000   0.000  -0.082   0.019   0.000   0.000   0.000   0.060  -0.040   0.000
  0.014  -0.035   0.000   1.999   0.003   0.000  -0.003  -0.002   0.000   0.000  -0.044  -0.069  -0.014   0.000   0.000   0.037
  0.054  -0.136   0.000   0.003   1.994   0.000  -0.002  -0.000   0.000   0.000   0.033  -0.007  -0.052   0.000   0.000  -0.021
  0.000   0.000  -0.012   0.000   0.000   0.008  -0.000   0.000   0.022  -0.008   0.000  -0.000   0.000  -0.030   0.013   0.000
 -0.006   0.013   0.000  -0.003  -0.002   0.000   0.005   0.001  -0.000   0.000   0.016   0.017   0.005   0.000   0.000  -0.023
 -0.019   0.034   0.000  -0.002  -0.000   0.000   0.001   0.004   0.000   0.000  -0.006   0.001   0.008  -0.000   0.000   0.008
  0.000   0.000  -0.082   0.000  -0.000   0.022  -0.000   0.000   0.149  -0.009   0.000  -0.000   0.000  -0.188   0.014   0.000
 -0.000  -0.000   0.019   0.000   0.000  -0.008   0.000   0.000  -0.009   0.070   0.000   0.000   0.000   0.013  -0.087   0.000
  0.016  -0.026   0.000  -0.044   0.033  -0.000   0.016  -0.006   0.000   0.000   0.123   0.053   0.023  -0.000   0.000  -0.153
 -0.013   0.019   0.000  -0.069  -0.007   0.000   0.017   0.001   0.000   0.000   0.053   0.091   0.008  -0.000  -0.000  -0.073
  0.037  -0.071   0.000  -0.014  -0.052  -0.000   0.005   0.008   0.000   0.000   0.023   0.008   0.099   0.000   0.000  -0.031
  0.000  -0.000   0.060   0.000   0.000  -0.030   0.000  -0.000  -0.188   0.013   0.000   0.000   0.000   0.266  -0.026   0.000
  0.000   0.000  -0.040   0.000   0.000   0.013   0.000   0.000   0.014  -0.087   0.000   0.000   0.000  -0.026   0.118   0.000
 -0.007   0.035  -0.000   0.037  -0.021   0.000  -0.023   0.008   0.000   0.000  -0.153  -0.073  -0.031   0.000   0.000   0.213
  0.009  -0.040   0.000   0.048  -0.003   0.000  -0.024  -0.002  -0.000   0.000  -0.072  -0.116  -0.012   0.000  -0.000   0.110
 -0.029   0.089   0.000   0.020   0.034   0.000  -0.008  -0.012  -0.000   0.000  -0.033  -0.014  -0.132   0.000   0.000   0.051


------------------------ aborting loop because EDIFF is reached ----------------------------------------


    CHARGE:  cpu time    0.1658: real time    0.1662
    FORLOC:  cpu time    0.0098: real time    0.0098
    FORNL :  cpu time    0.5343: real time    0.5356
    STRESS:  cpu time    1.5912: real time    1.5951
    FORCOR:  cpu time    0.0281: real time    0.0282
    FORHAR:  cpu time    0.0209: real time    0.0210
    MIXING:  cpu time    0.0082: real time    0.0083
    OFIELD:  cpu time    0.0000: real time    0.0000

  FORCE on cell =-STRESS in cart. coord.  units (eV):
  Direction    XX          YY          ZZ          XY          YZ          ZX
  --------------------------------------------------------------------------------------
  Alpha Z   166.34078   166.34078   166.34078
  Ewald  -18695.01984 15140.51241 14569.28345    -0.00003     0.00000   168.18466
  Hartree-15647.85194 16773.54560 16316.46763     0.00000    -0.00000   132.22948
  E(xc)    -456.16435  -456.62074  -456.62530    -0.00000    -0.00000     0.05008
  Local   32929.55458-33350.27249-32315.24689     0.00002    -0.00000  -299.50046
  n-local   344.29085   344.88106   346.81859     0.06700    -0.21440    -0.87842
  augment  -171.29139  -171.85959  -171.97517    -0.00000    -0.00000     0.20332
  Kinetic  1511.84895  1531.70236  1525.67813    -0.07760    -0.81926    -0.41451
  Fock        0.00000     0.00000     0.00000     0.00000     0.00000     0.00000
  -------------------------------------------------------------------------------------
  Total     -18.29237   -21.77061   -19.25878     0.00000     0.00000    -0.12585
  in kB     -15.52272   -18.47432   -16.34281     0.00000     0.00000    -0.10679
  external pressure =      -16.78 kB  Pullay stress =        0.00 kB


 VOLUME and BASIS-vectors are now :
 -----------------------------------------------------------------------------
  energy-cutoff  :      500.00
  volume of cell :     1888.05
      direct lattice vectors                 reciprocal lattice vectors
    24.009468079  0.000000000  0.000000000     0.041650236  0.000000000  0.000000000
     0.000000000  6.777849674  0.000000000     0.000000000  0.147539419  0.000000000
     0.000000000  0.000000000 11.602143288     0.000000000  0.000000000  0.086190971

  length of vectors
    24.009468079  6.777849674 11.602143288     0.041650236  0.147539419  0.086190971


 FORCES acting on ions
    electron-ion (+dipol)            ewald-force                    non-local-force                 convergence-correction
 -----------------------------------------------------------------------------------------------
   0.762E+03 0.100E-04 0.500E+02   -.756E+03 0.101E-04 -.491E+02   -.423E+01 -.489E-18 -.874E+00   0.899E-04 -.744E-09 0.461E-04
   -.762E+03 -.613E-04 -.500E+02   0.756E+03 -.131E-04 0.491E+02   0.423E+01 -.582E-18 0.874E+00   -.899E-04 0.865E-09 -.461E-04
   0.922E+02 -.600E-04 -.491E+02   -.919E+02 -.175E-04 0.477E+02   0.106E+00 0.398E-18 0.142E+01   0.171E-03 0.127E-08 -.163E-03
   -.922E+02 0.105E-04 0.491E+02   0.919E+02 0.126E-04 -.477E+02   -.106E+00 -.354E-18 -.142E+01   -.171E-03 -.115E-08 0.163E-03
   0.611E+03 -.597E-04 -.509E+02   -.609E+03 -.165E-04 0.510E+02   -.172E+01 -.157E-17 -.106E+00   0.204E-03 0.103E-08 -.160E-03
   -.611E+03 0.894E-05 0.509E+02   0.609E+03 0.143E-04 -.510E+02   0.172E+01 0.141E-17 0.106E+00   -.204E-03 -.940E-09 0.160E-03
   0.350E+03 0.109E-04 -.207E+02   -.349E+03 0.125E-04 0.199E+02   -.318E+00 -.940E-18 0.822E+00   0.170E-03 -.112E-08 0.337E-04
   -.350E+03 -.614E-04 0.207E+02   0.349E+03 -.125E-04 -.199E+02   0.318E+00 0.219E-18 -.822E+00   -.170E-03 0.116E-08 -.337E-04
   0.270E+03 0.379E+02 -.498E+02   -.270E+03 -.389E+02 0.503E+02   -.177E+00 0.940E+00 -.470E+00   0.131E-03 0.542E-04 -.786E-04
   -.270E+03 -.379E+02 0.498E+02   0.270E+03 0.389E+02 -.503E+02   0.177E+00 -.940E+00 0.470E+00   -.131E-03 -.542E-04 0.786E-04
   0.112E+03 -.361E+02 0.613E+01   -.112E+03 0.366E+02 -.520E+01   0.327E+00 -.539E+00 -.925E+00   0.141E-04 -.730E-04 0.129E-04
   -.112E+03 0.361E+02 -.613E+01   0.112E+03 -.366E+02 0.520E+01   -.327E+00 0.539E+00 0.925E+00   -.141E-04 0.730E-04 -.129E-04
   -.270E+03 0.379E+02 0.498E+02   0.270E+03 -.389E+02 -.503E+02   0.177E+00 0.940E+00 0.470E+00   -.131E-03 0.542E-04 0.786E-04
   0.270E+03 -.379E+02 -.498E+02   -.270E+03 0.389E+02 0.503E+02   -.177E+00 -.940E+00 -.470E+00   0.131E-03 -.542E-04 -.786E-04
   -.112E+03 -.361E+02 -.613E+01   0.112E+03 0.366E+02 0.520E+01   -.327E+00 -.539E+00 0.925E+00   -.141E-04 -.730E-04 -.129E-04
   0.112E+03 0.361E+02 0.613E+01   -.112E+03 -.366E+02 -.520E+01   0.327E+00 0.539E+00 -.925E+00   0.141E-04 0.730E-04 0.129E-04
   0.323E+03 -.508E-05 0.491E+02   -.324E+03 -.612E-05 -.494E+02   0.104E+01 0.342E-18 0.323E+00   0.119E-03 0.324E-09 0.576E-04
   -.323E+03 0.621E-05 -.491E+02   0.324E+03 0.636E-05 0.494E+02   -.104E+01 -.382E-18 -.323E+00   -.119E-03 -.321E-09 -.576E-04
   0.330E+02 0.842E-05 -.124E+02   -.317E+02 0.740E-05 0.116E+02   -.110E+01 0.506E-18 0.849E+00   0.162E-04 -.445E-09 -.424E-04
   -.330E+02 -.384E-05 0.124E+02   0.317E+02 -.704E-05 -.116E+02   0.110E+01 0.523E-18 -.849E+00   -.162E-04 0.427E-09 0.424E-04
   0.234E+03 0.429E-05 0.153E+02   -.234E+03 0.805E-05 -.159E+02   0.134E-01 -.610E-18 0.656E+00   0.123E-03 -.388E-09 0.697E-05
   -.234E+03 -.645E-05 -.153E+02   0.234E+03 -.811E-05 0.159E+02   -.134E-01 -.485E-18 -.656E+00   -.123E-03 0.378E-09 -.698E-05
   0.148E+03 -.721E-05 0.610E+02   -.148E+03 -.706E-05 -.621E+02   -.539E+00 -.247E-17 0.108E+01   0.322E-04 0.419E-09 0.128E-03
   -.148E+03 0.365E-05 -.610E+02   0.148E+03 0.698E-05 0.621E+02   0.539E+00 0.131E-17 -.108E+01   -.322E-04 -.409E-09 -.128E-03
 -----------------------------------------------------------------------------------------------
   0.769E-04 -.212E-03 0.863E-04   0.227E-12 0.124E-13 -.213E-13   0.000E+00 -.112E-15 -.222E-15   0.230E-07 0.357E-09 -.682E-08
 
 
 POSITION                                       TOTAL-FORCE (eV/Angst)
 -----------------------------------------------------------------------------------
      0.13670      1.69446      8.17354         1.042018      0.000000      0.000689
      9.37277      5.08339      3.42860        -1.042018      0.000000     -0.000689
      4.36803      5.08339      2.11517         0.363998      0.000000      0.000539
      5.14143      1.69446      9.48697        -0.363998      0.000000     -0.000539
      1.43529      5.08339     10.59228         0.723184      0.000000     -0.000788
      8.07418      1.69446      1.00987        -0.723184      0.000000      0.000788
      3.06944      1.69446      4.53157         0.502858      0.000000      0.000182
      6.44002      5.08339      7.07057        -0.502858      0.000000     -0.000182
      1.75027      0.50154      1.59582         0.055113     -0.000346     -0.000180
      7.75920      6.27631     10.00632        -0.055113      0.000346      0.000180
      2.75446      6.29129      7.68915         0.236591     -0.000166      0.000273
      6.75500      0.48656      3.91299        -0.236591      0.000166     -0.000273
      7.75920      3.89046     10.00632        -0.055113     -0.000346      0.000180
      1.75027      2.88739      1.59582         0.055113      0.000346     -0.000180
      6.75500      2.90236      3.91299        -0.236591     -0.000166     -0.000273
      2.75446      3.87549      7.68915         0.236591      0.000166      0.000273
      0.74693      5.08339      7.02906         0.007244      0.000000      0.000267
      8.76254      1.69446      4.57308        -0.007244      0.000000     -0.000267
      3.75780      1.69446      0.88712         0.129329      0.000000      0.000117
      5.75166      5.08339     10.71502        -0.129329      0.000000     -0.000117
      1.78112      1.69446     11.10029        -0.031911      0.000000      0.000614
      7.72835      5.08339      0.50186         0.031911      0.000000     -0.000614
      2.72362      5.08339      5.58697        -0.228127      0.000000      0.000618
      6.78585      1.69446      6.01518         0.228127      0.000000     -0.000618
 -----------------------------------------------------------------------------------
    total drift:                                0.000077     -0.000212      0.000086


--------------------------------------------------------------------------------------------------------



  FREE ENERGIE OF THE ION-ELECTRON SYSTEM (eV)
  ---------------------------------------------------
  free  energy   TOTEN  =      -113.75211562 eV

  energy  without entropy=     -113.75211562  energy(sigma->0) =     -113.75211562
 


--------------------------------------------------------------------------------------------------------


    POTLOK:  cpu time    0.0209: real time    0.0210


--------------------------------------------------------------------------------------------------------


 writing wavefunctions
     LOOP+:  cpu time   84.0469: real time   84.9783
    4ORBIT:  cpu time    0.0000: real time    0.0000
 BZINTS: Fermi energy: -0.723685;144.000000 electrons
         Band energy:***********;  BLOECHL correction:  0.000000

 total amount of memory used by VASP MPI-rank0    79355. kBytes
=======================================================================

   base      :      30000. kBytes
   nonlr-proj:       2649. kBytes
   fftplans  :       5898. kBytes
   grid      :       8824. kBytes
   one-center:         93. kBytes
   wavefun   :      31891. kBytes
 
  
  
 General timing and accounting informations for this job:
 ========================================================
  
                  Total CPU time used (sec):       92.087
                            User time (sec):       86.948
                          System time (sec):        5.139
                         Elapsed time (sec):       95.615
  
                   Maximum memory used (kb):      165904.
                   Average memory used (kb):           0.
  
                          Minor page faults:        63843
                          Major page faults:          154
                 Voluntary context switches:        13201
