 vasp.5.4.4.18Apr17-6-g9f103f2a35 (build Nov 21 2017 15:30:27) complex          
  
 executed on             LinuxIFC date 2020.10.09  12:20:00
 running on   64 total cores
 distrk:  each k-point on   32 cores,    2 groups
 distr:  one band on NCORES_PER_BAND=   4 cores,    8 groups


--------------------------------------------------------------------------------------------------------


 INCAR:
 POTCAR:   PAW_PBE Ba_sv 06Sep2000                
 POTCAR:   PAW_PBE Si 05Jan2001                   

 ----------------------------------------------------------------------------- 
|                                                                             |
|           W    W    AA    RRRRR   N    N  II  N    N   GGGG   !!!           |
|           W    W   A  A   R    R  NN   N  II  NN   N  G    G  !!!           |
|           W    W  A    A  R    R  N N  N  II  N N  N  G       !!!           |
|           W WW W  AAAAAA  RRRRR   N  N N  II  N  N N  G  GGG   !            |
|           WW  WW  A    A  R   R   N   NN  II  N   NN  G    G                |
|           W    W  A    A  R    R  N    N  II  N    N   GGGG   !!!           |
|                                                                             |
|      You have enabled k-point parallelism (KPAR>1).                         |
|      This developmental code was originally  written by Paul Kent at ORNL,  |
|      and carefully double checked in Vienna.                                |
|      GW as well as linear response parallelism added by Martijn Marsman     |
|      and Georg Kresse.                                                      |
|      Carefully verify results versus KPAR=1.                                |
|      Report problems to Paul Kent and Vienna.                               |
|                                                                             |
 ----------------------------------------------------------------------------- 


 ----------------------------------------------------------------------------- 
|                                                                             |
|  ADVICE TO THIS USER RUNNING 'VASP/VAMP'   (HEAR YOUR MASTER'S VOICE ...):  |
|                                                                             |
|      You have switched on vdW-DFT.                                          |
|      This routine was written and supplied by Jiri Klimes.                  |
|      We recommed that you carefully read and cite the following             |
|      publication                                                            |
|      J. Klimes, D.R. Bowler, A. Michelides                                  |
|        J. Phys.: Cond Matt. 22 022201 (2010)                                |
|      J. Klimes, D.R. Bowler, A. Michelides                                  |
|        Phys. Rev. B. 83, 195131 (2011)                                      |
|      and references therein.                                                |
|                                                                             |
 ----------------------------------------------------------------------------- 

 POTCAR:   PAW_PBE Ba_sv 06Sep2000                
   VRHFIN =Ba: 5s5p6s                                                           
   LEXCH  = PE                                                                  
   EATOM  =   700.2255 eV,   51.4651 Ry                                         
                                                                                
   TITEL  = PAW_PBE Ba_sv 06Sep2000                                             
   LULTRA =        F    use ultrasoft PP ?                                      
   IUNSCR =        1    unscreen: 0-lin 1-nonlin 2-no                           
   RPACOR =    2.400    partial core radius                                     
   POMASS =  137.327; ZVAL   =   10.000    mass and valenz                      
   RCORE  =    2.800    outmost cutoff radius                                   
   RWIGS  =    3.740; RWIGS  =    1.979    wigner-seitz radius (au A)           
   ENMAX  =  187.210; ENMIN  =  140.408 eV                                      
   RCLOC  =    2.516    cutoff for local pot                                    
   LCOR   =        T    correct aug charges                                     
   LPAW   =        T    paw PP                                                  
   EAUG   =  351.165                                                            
   DEXC   =     .000                                                            
   RMAX   =    3.370    core radius for proj-oper                               
   RAUG   =    1.300    factor for augmentation sphere                          
   RDEP   =    2.976    radius for radial grids                                 
   QCUT   =   -3.709; QGAM   =    7.419    optimization parameters              
                                                                                
   Description                                                                  
     l     E      TYP  RCUT    TYP  RCUT                                        
     0   .000     23  2.800                                                     
     0   .000     23  2.800                                                     
     1   .000     23  2.700                                                     
     1  2.000     23  2.700                                                     
     2   .000     23  2.700                                                     
     2   .000     23  2.700                                                     
  local pseudopotential read in
  partial core-charges read in
  atomic valenz-charges read in
  non local Contribution for L=           0  read in
    real space projection operators read in
  non local Contribution for L=           0  read in
    real space projection operators read in
  non local Contribution for L=           1  read in
    real space projection operators read in
  non local Contribution for L=           1  read in
    real space projection operators read in
  non local Contribution for L=           2  read in
    real space projection operators read in
  non local Contribution for L=           2  read in
    real space projection operators read in
    PAW grid and wavefunctions read in
 
   number of l-projection  operators is LMAX  =           6
   number of lm-projection operators is LMMAX =          18
 
 POTCAR:   PAW_PBE Si 05Jan2001                   
   VRHFIN =Si: s2p2                                                             
   LEXCH  = PE                                                                  
   EATOM  =   103.0669 eV,    7.5752 Ry                                         
                                                                                
   TITEL  = PAW_PBE Si 05Jan2001                                                
   LULTRA =        F    use ultrasoft PP ?                                      
   IUNSCR =        1    unscreen: 0-lin 1-nonlin 2-no                           
   RPACOR =    1.500    partial core radius                                     
   POMASS =   28.085; ZVAL   =    4.000    mass and valenz                      
   RCORE  =    1.900    outmost cutoff radius                                   
   RWIGS  =    2.480; RWIGS  =    1.312    wigner-seitz radius (au A)           
   ENMAX  =  245.345; ENMIN  =  184.009 eV                                      
   ICORE  =        2    local potential                                         
   LCOR   =        T    correct aug charges                                     
   LPAW   =        T    paw PP                                                  
   EAUG   =  322.069                                                            
   DEXC   =    -.007                                                            
   RMAX   =    2.944    core radius for proj-oper                               
   RAUG   =    1.300    factor for augmentation sphere                          
   RDEP   =    1.993    radius for radial grids                                 
   QCUT   =   -4.246; QGAM   =    8.493    optimization parameters              
                                                                                
   Description                                                                  
     l     E      TYP  RCUT    TYP  RCUT                                        
     0   .000     23  1.900                                                     
     0   .000     23  1.900                                                     
     1   .000     23  1.900                                                     
     1   .000     23  1.900                                                     
     2   .000      7  1.900                                                     
  local pseudopotential read in
  partial core-charges read in
  atomic valenz-charges read in
  non local Contribution for L=           0  read in
    real space projection operators read in
  non local Contribution for L=           0  read in
    real space projection operators read in
  non local Contribution for L=           1  read in
    real space projection operators read in
  non local Contribution for L=           1  read in
    real space projection operators read in
    PAW grid and wavefunctions read in
 
   number of l-projection  operators is LMAX  =           4
   number of lm-projection operators is LMMAX =           8
 
 Optimization of the real space projectors (new method)

 maximal supplied QI-value         = 13.42
 optimisation between [QCUT,QGAM] = [ 11.40, 22.81] = [ 36.42,145.68] Ry 
 Optimized for a Real-space Cutoff    1.56 Angstroem

   l    n(q)    QCUT    max X(q) W(low)/X(q) W(high)/X(q)  e(spline) 
   0     11    11.404     7.198    0.14E-04    0.26E-04    0.99E-07
   0     11    11.404    15.603    0.29E-04    0.72E-04    0.44E-06
   1     10    11.404     3.746    0.20E-04    0.24E-04    0.43E-07
   1     10    11.404     4.362    0.22E-03    0.97E-04    0.22E-06
   2     10    11.404     5.782    0.83E-04    0.62E-05    0.27E-06
   2     10    11.404    65.505    0.42E-03    0.31E-04    0.12E-05
 Optimization of the real space projectors (new method)

 maximal supplied QI-value         = 19.84
 optimisation between [QCUT,QGAM] = [ 11.31, 22.82] = [ 35.82,145.81] Ry 
 Optimized for a Real-space Cutoff    1.16 Angstroem

   l    n(q)    QCUT    max X(q) W(low)/X(q) W(high)/X(q)  e(spline) 
   0      8    11.310     8.708    0.14E-04    0.11E-04    0.43E-08
   0      8    11.310   106.241    0.27E-03    0.30E-03    0.38E-07
   1      7    11.310     5.901    0.82E-05    0.48E-04    0.19E-07
   1      7    11.310    73.241    0.27E-03    0.27E-03    0.74E-07

 ----------------------------------------------------------------------------- 
|                                                                             |
|  ADVICE TO THIS USER RUNNING 'VASP/VAMP'   (HEAR YOUR MASTER'S VOICE ...):  |
|                                                                             |
|      You enforced a specific xc-type in the INCAR file,                     |
|      a different type was found on the POTCAR file                          |
|          I HOPE YOU KNOW, WHAT YOU ARE  DOING                               |
|                                                                             |
 ----------------------------------------------------------------------------- 

 PAW_PBE Ba_sv 06Sep2000                :
 energy of atom  1       EATOM= -700.2255
 kinetic energy error for atom=    0.0005 (will be added to EATOM!!)
 PAW_PBE Si 05Jan2001                   :
 energy of atom  2       EATOM= -103.0669
 kinetic energy error for atom=    0.0006 (will be added to EATOM!!)
 
 
 POSCAR: ba8 si16                                
  positions in direct lattice
  velocities in cartesian coordinates
 exchange correlation table for  LEXCH =       43
   RHO(1)=    0.500       N(1)  =     2000
   RHO(2)=  100.500       N(2)  =     4000
 


--------------------------------------------------------------------------------------------------------


 ion  position               nearest neighbor table
   1  0.015  0.250  0.692-  24 3.37  18 3.37  13 3.40  10 3.40  16 3.42  11 3.42  21 3.53  17 3.61
                            17 3.61   5 4.37   5 4.37   7 4.37   4 4.65   4 4.65
   2  0.985  0.750  0.308-  23 3.37  17 3.37   9 3.40  14 3.40  12 3.42  15 3.42  22 3.53  18 3.61
                            18 3.61   6 4.37   6 4.37   8 4.37   3 4.65   3 4.65
   3  0.485  0.750  0.192-  22 3.37  20 3.37  12 3.40  15 3.40   9 3.42  14 3.42  23 3.53  19 3.61
                            19 3.61   7 4.37   7 4.37   5 4.37   2 4.65   2 4.65
   4  0.515  0.250  0.808-  21 3.37  19 3.37  16 3.40  11 3.40  13 3.42  10 3.42  24 3.53  20 3.61
                            20 3.61   8 4.37   8 4.37   6 4.37   1 4.65   1 4.65
   5  0.161  0.750  0.907-  10 3.43  13 3.43  21 3.44  21 3.44  11 3.48  16 3.48  22 3.51   9 3.52
                            14 3.52  17 3.70  20 3.75   1 4.37   1 4.37   3 4.37
   6  0.839  0.250  0.093-  14 3.43   9 3.43  22 3.44  22 3.44  15 3.48  12 3.48  21 3.51  13 3.52
                            10 3.52  18 3.70  19 3.75   2 4.37   2 4.37   4 4.37
   7  0.339  0.250  0.407-  15 3.43  12 3.43  23 3.44  23 3.44  14 3.48   9 3.48  24 3.51  16 3.52
                            11 3.52  19 3.70  18 3.75   3 4.37   3 4.37   1 4.37
   8  0.661  0.750  0.593-  11 3.43  16 3.43  24 3.44  24 3.44  10 3.48  13 3.48  23 3.51  12 3.52
                            15 3.52  20 3.70  17 3.75   4 4.37   4 4.37   2 4.37
   9  0.193  0.071  0.146-  14 2.41  21 2.41  19 2.43   2 3.40   3 3.42   6 3.43   7 3.48   5 3.52

  10  0.807  0.929  0.854-  13 2.41  22 2.41  20 2.43   1 3.40   4 3.42   5 3.43   8 3.48   6 3.52

  11  0.307  0.929  0.646-  16 2.41  23 2.41  17 2.43   4 3.40   1 3.42   8 3.43   5 3.48   7 3.52

  12  0.693  0.071  0.354-  15 2.41  24 2.41  18 2.43   3 3.40   2 3.42   7 3.43   6 3.48   8 3.52

  13  0.807  0.571  0.854-  10 2.41  22 2.41  20 2.43   1 3.40   4 3.42   5 3.43   8 3.48   6 3.52

  14  0.193  0.429  0.146-   9 2.41  21 2.41  19 2.43   2 3.40   3 3.42   6 3.43   7 3.48   5 3.52

  15  0.693  0.429  0.354-  12 2.41  24 2.41  18 2.43   3 3.40   2 3.42   7 3.43   6 3.48   8 3.52

  16  0.307  0.571  0.646-  11 2.41  23 2.41  17 2.43   4 3.40   1 3.42   8 3.43   5 3.48   7 3.52

  17  0.081  0.750  0.591-  11 2.43  16 2.43  23 2.45   2 3.37   1 3.61   1 3.61   5 3.70   8 3.75

  18  0.919  0.250  0.409-  15 2.43  12 2.43  24 2.45   1 3.37   2 3.61   2 3.61   6 3.70   7 3.75

  19  0.419  0.250  0.091-  14 2.43   9 2.43  21 2.45   4 3.37   3 3.61   3 3.61   7 3.70   6 3.75

  20  0.581  0.750  0.909-  10 2.43  13 2.43  22 2.45   3 3.37   4 3.61   4 3.61   8 3.70   5 3.75

  21  0.196  0.250  0.965-  14 2.41   9 2.41  19 2.45   4 3.37   5 3.44   5 3.44   6 3.51   1 3.53

  22  0.804  0.750  0.035-  10 2.41  13 2.41  20 2.45   3 3.37   6 3.44   6 3.44   5 3.51   2 3.53

  23  0.304  0.750  0.465-  11 2.41  16 2.41  17 2.45   2 3.37   7 3.44   7 3.44   8 3.51   3 3.53

  24  0.696  0.250  0.535-  15 2.41  12 2.41  18 2.45   1 3.37   8 3.44   8 3.44   7 3.51   4 3.53

 
  LATTYP: Found a simple orthorhombic cell.
 ALAT       =     6.7268619782
 B/A-ratio  =     1.3242817429
 C/A-ratio  =     1.7103982072
  
  Lattice vectors:
  
 A1 = (   0.0000000000,  -6.7268619782,   0.0000000000)
 A2 = (  -8.9082605047,   0.0000000000,   0.0000000000)
 A3 = (   0.0000000000,   0.0000000000, -11.5056126680)


Analysis of symmetry for initial positions (statically):
=====================================================================
 Subroutine PRICEL returns:
 Original cell was already a primitive cell.
 

 Routine SETGRP: Setting up the symmetry group for a 
 simple orthorhombic supercell.


 Subroutine GETGRP returns: Found  8 space group operations
 (whereof  2 operations were pure point group operations)
 out of a pool of  8 trial point group operations.


The static configuration has the point symmetry S_2 .
 The point group associated with its full space group is D_2h.


Analysis of symmetry for dynamics (positions and initial velocities):
=====================================================================
 Subroutine PRICEL returns:
 Original cell was already a primitive cell.
 

 Routine SETGRP: Setting up the symmetry group for a 
 simple orthorhombic supercell.


 Subroutine GETGRP returns: Found  8 space group operations
 (whereof  2 operations were pure point group operations)
 out of a pool of  8 trial point group operations.


The dynamic configuration has the point symmetry S_2 .
 The point group associated with its full space group is D_2h.


 Subroutine INISYM returns: Found  8 space group operations
 (whereof  2 operations are pure point group operations),
 and found     1 'primitive' translations

 
 
 KPOINTS: k-points along high symmetry lines      
  interpolating k-points between supplied coordinates
  k-points in reciprocal lattice
Space group operators:
 irot       det(A)        alpha          n_x          n_y          n_z        tau_x        tau_y        tau_z
    1     1.000000     0.000000     1.000000     0.000000     0.000000     0.000000     0.000000     0.000000
    2    -1.000000     0.000000     1.000000     0.000000     0.000000     0.000000     0.000000     0.000000
    3     1.000000   180.000000     0.000000     0.000000     1.000000    -0.500000     0.000000    -0.500000
    4    -1.000000   180.000000     0.000000     0.000000     1.000000    -0.500000     0.000000    -0.500000
    5     1.000000   180.000000     1.000000     0.000000     0.000000    -0.500000    -0.500000    -0.500000
    6    -1.000000   180.000000     1.000000     0.000000     0.000000    -0.500000    -0.500000    -0.500000
    7     1.000000   180.000000     0.000000     1.000000     0.000000    -0.000000    -0.500000    -0.000000
    8    -1.000000   180.000000     0.000000     1.000000     0.000000     0.000000    -0.500000     0.000000


--------------------------------------------------------------------------------------------------------




 Dimension of arrays:
   k-points           NKPTS =    100   k-points in BZ     NKDIM =    100   number of bands    NBANDS=     88
   number of dos      NEDOS =    301   number of ions     NIONS =     24
   non local maximal  LDIM  =      6   non local SUM 2l+1 LMDIM =     18
   total plane-waves  NPLWV = 128000
   max r-space proj   IRMAX =   3026   max aug-charges    IRDMAX=  11819
   dimension x,y,z NGX =    50 NGY =   40 NGZ =   64
   dimension x,y,z NGXF=   100 NGYF=   80 NGZF=  128
   support grid    NGXF=   100 NGYF=   80 NGZF=  128
   ions per type =               8  16
   NGX,Y,Z   is equivalent  to a cutoff of   9.33,  9.89,  9.25 a.u.
   NGXF,Y,Z  is equivalent  to a cutoff of  18.66, 19.77, 18.49 a.u.

 SYSTEM =  unknown system                          
 POSCAR =  ba8 si16                                

 Startparameter for this run:
   NWRITE =      2    write-flag & timer
   PREC   = normal    normal or accurate (medium, high low for compatibility)
   ISTART =      0    job   : 0-new  1-cont  2-samecut
   ICHARG =     11    charge: 1-file 2-atom 10-const
   ISPIN  =      1    spin polarized calculation?
   LNONCOLLINEAR =      F non collinear calculations
   LSORBIT =      F    spin-orbit coupling
   INIWAV =      1    electr: 0-lowe 1-rand  2-diag
   LASPH  =      T    aspherical Exc in radial PAW
   METAGGA=      F    non-selfconsistent MetaGGA calc.

 Electronic Relaxation 1
   ENCUT  =  500.0 eV  36.75 Ry    6.06 a.u.  16.24 12.26 20.98*2*pi/ulx,y,z
   ENINI  =  500.0     initial cutoff
   ENAUG  =  351.2 eV  augmentation charge cutoff
   NELM   =    100;   NELMIN=  2; NELMDL= -5     # of ELM steps 
   EDIFF  = 0.1E-05   stopping-criterion for ELM
   LREAL  =      T    real-space projection
   NLSPLINE    = F    spline interpolate recip. space projectors
   LCOMPAT=      F    compatible to vasp.4.4
   GGA_COMPAT  = T    GGA compatible to vasp.4.4-vasp.4.6
   LMAXPAW     = -100 max onsite density
   LMAXMIX     =    2 max onsite mixed and CHGCAR
   VOSKOWN=      0    Vosko Wilk Nusair interpolation
   ROPT   =   -0.00050  -0.00050
 Ionic relaxation
   EDIFFG = -.1E-01   stopping-criterion for IOM
   NSW    =      0    number of steps for IOM
   NBLOCK =      1;   KBLOCK =      1    inner block; outer block 
   IBRION =     -1    ionic relax: 0-MD 1-quasi-New 2-CG
   NFREE  =      0    steps in history (QN), initial steepest desc. (CG)
   ISIF   =      2    stress and relaxation
   IWAVPR =     10    prediction:  0-non 1-charg 2-wave 3-comb
   ISYM   =      2    0-nonsym 1-usesym 2-fastsym
   LCORR  =      T    Harris-Foulkes like correction to forces

   POTIM  = 0.3000    time-step for ionic-motion
   TEIN   =    0.0    initial temperature
   TEBEG  =    0.0;   TEEND  =   0.0 temperature during run
   SMASS  =  -3.00    Nose mass-parameter (am)
   estimated Nose-frequenzy (Omega)   =  0.10E-29 period in steps =****** mass=  -0.181E-26a.u.
   SCALEE = 1.0000    scale energy and forces
   NPACO  =    256;   APACO  = 16.0  distance and # of slots for P.C.
   PSTRESS=    0.0 pullay stress

  Mass of Ions in am
   POMASS = 137.33 28.09
  Ionic Valenz
   ZVAL   =  10.00  4.00
  Atomic Wigner-Seitz radii
   RWIGS  =  -1.00 -1.00
  virtual crystal weights 
   VCA    =   1.00  1.00
   NELECT =     144.0000    total number of electrons
   NUPDOWN=      -1.0000    fix difference up-down

 DOS related values:
   EMIN   =  10.00;   EMAX   =-10.00  energy-range for DOS
   EFERMI =   0.00
   ISMEAR =     0;   SIGMA  =   0.01  broadening in eV -4-tet -1-fermi 0-gaus

 Electronic relaxation 2 (details)
   IALGO  =     38    algorithm
   LDIAG  =      T    sub-space diagonalisation (order eigenvalues)
   LSUBROT=      F    optimize rotation matrix (better conditioning)
   TURBO    =      0    0=normal 1=particle mesh
   IRESTART =      0    0=no restart 2=restart with 2 vectors
   NREBOOT  =      0    no. of reboots
   NMIN     =      0    reboot dimension
   EREF     =   0.00    reference energy to select bands
   IMIX   =      4    mixing-type and parameters
     AMIX     =   0.40;   BMIX     =  1.00
     AMIX_MAG =   1.60;   BMIX_MAG =  1.00
     AMIN     =   0.10
     WC   =   100.;   INIMIX=   1;  MIXPRE=   1;  MAXMIX= -45

 Intra band minimization:
   WEIMIN = 0.0000     energy-eigenvalue tresh-hold
   EBREAK =  0.28E-08  absolut break condition
   DEPER  =   0.30     relativ break condition  

   TIME   =   0.40     timestep for ELM

  volume/ion in A,a.u.               =      28.73       193.87
  Fermi-wavevector in a.u.,A,eV,Ry     =   0.971309  1.835507 12.836288  0.943441
  Thomas-Fermi vector in A             =   2.101515
 
 Write flags
   LWAVE        =      T    write WAVECAR
   LDOWNSAMPLE  =      F    k-point downsampling of WAVECAR
   LCHARG       =      T    write CHGCAR
   LVTOT        =      F    write LOCPOT, total local potential
   LVHAR        =      F    write LOCPOT, Hartree potential only
   LELF         =      F    write electronic localiz. function (ELF)
   LORBIT       =      0    0 simple, 1 ext, 2 COOP (PROOUT), +10 PAW based schemes


 Dipole corrections
   LMONO  =      F    monopole corrections only (constant potential shift)
   LDIPOL =      F    correct potential (dipole corrections)
   IDIPOL =      0    1-x, 2-y, 3-z, 4-all directions 
   EPSILON=  1.0000000 bulk dielectric constant

 Exchange correlation treatment:
   GGA     =    MK    GGA type
   LEXCH   =    43    internal setting for exchange type
   VOSKOWN=      0    Vosko Wilk Nusair interpolation
   LHFCALC =     F    Hartree Fock is set to
   LHFONE  =     F    Hartree Fock one center treatment
   AEXX    =    0.0000 exact exchange contribution

 vdW DFT:
   LUSE_VDW   =     T    switch on vdW DFT
   Zab_VDW    =******    correlation parameter
   PARAM1     =0.1234
   PARAM2     =0.7114
   PARAM3     =0.0000
   -- rVV10 --
   BPARAM     = 6.3000
   CPARAM     = 0.0093

 Linear response parameters
   LEPSILON=     F    determine dielectric tensor
   LRPA    =     F    only Hartree local field effects (RPA)
   LNABLA  =     F    use nabla operator in PAW spheres
   LVEL    =     F    velocity operator in full k-point grid
   LINTERFAST=   F  fast interpolation
   KINTER  =     0    interpolate to denser k-point grid
   CSHIFT  =0.1000    complex shift for real part using Kramers Kronig
   OMEGAMAX=  -1.0    maximum frequency
   DEG_THRESHOLD= 0.2000000E-02 threshold for treating states as degnerate
   RTIME   =   -0.100 relaxation time in fs
  (WPLASMAI=    0.000 imaginary part of plasma frequency in eV, 0.658/RTIME)
   DFIELD  = 0.0000000 0.0000000 0.0000000 field for delta impulse in time
 
 Orbital magnetization related:
   ORBITALMAG=     F  switch on orbital magnetization
   LCHIMAG   =     F  perturbation theory with respect to B field
   DQ        =  0.001000  dq finite difference perturbation B field
   LLRAUG    =     F  two centre corrections for induced B field



--------------------------------------------------------------------------------------------------------


 Static calculation
 charge density and potential remain constant during run
 non-spin polarized calculation
 Variant of blocked Davidson
 Davidson routine will perform the subspace rotation
 perform sub-space diagonalisation
    after iterative eigenvector-optimisation
 no mixing
 using additional bands           16
 real space projection scheme for non local part
 use partial core corrections
 calculate Harris-corrections to forces 
   (improved forces if not selfconsistent)
 use gradient corrections 
 WARNING: stress and forces are not correct
  (second derivative of E(xc) not defined)
 use of overlap-Matrix (Vanderbilt PP)
 Gauss-broadening in eV      SIGMA  =   0.01


--------------------------------------------------------------------------------------------------------


  energy-cutoff  :      500.00
  volume of cell :      689.47
      direct lattice vectors                 reciprocal lattice vectors
     8.908260505  0.000000000  0.000000000     0.112255361  0.000000000  0.000000000
     0.000000000  6.726861978  0.000000000     0.000000000  0.148657725  0.000000000
     0.000000000  0.000000000 11.505612668     0.000000000  0.000000000  0.086914103

  length of vectors
     8.908260505  6.726861978 11.505612668     0.112255361  0.148657725  0.086914103


 
 k-points in units of 2pi/SCALE and weight: k-points along high symmetry lines      
   0.00000000  0.00000000  0.00000000       0.010
   0.00000000  0.00391205  0.00000000       0.010
   0.00000000  0.00782409  0.00000000       0.010
   0.00000000  0.01173614  0.00000000       0.010
   0.00000000  0.01564818  0.00000000       0.010
   0.00000000  0.01956023  0.00000000       0.010
   0.00000000  0.02347227  0.00000000       0.010
   0.00000000  0.02738432  0.00000000       0.010
   0.00000000  0.03129636  0.00000000       0.010
   0.00000000  0.03520841  0.00000000       0.010
   0.00000000  0.03912045  0.00000000       0.010
   0.00000000  0.04303250  0.00000000       0.010
   0.00000000  0.04694454  0.00000000       0.010
   0.00000000  0.05085659  0.00000000       0.010
   0.00000000  0.05476864  0.00000000       0.010
   0.00000000  0.05868068  0.00000000       0.010
   0.00000000  0.06259273  0.00000000       0.010
   0.00000000  0.06650477  0.00000000       0.010
   0.00000000  0.07041682  0.00000000       0.010
   0.00000000  0.07432886  0.00000000       0.010
   0.00000000  0.07432886  0.00000000       0.010
   0.00000000  0.07432886  0.00228721       0.010
   0.00000000  0.07432886  0.00457443       0.010
   0.00000000  0.07432886  0.00686164       0.010
   0.00000000  0.07432886  0.00914885       0.010
   0.00000000  0.07432886  0.01143607       0.010
   0.00000000  0.07432886  0.01372328       0.010
   0.00000000  0.07432886  0.01601049       0.010
   0.00000000  0.07432886  0.01829771       0.010
   0.00000000  0.07432886  0.02058492       0.010
   0.00000000  0.07432886  0.02287213       0.010
   0.00000000  0.07432886  0.02515935       0.010
   0.00000000  0.07432886  0.02744656       0.010
   0.00000000  0.07432886  0.02973377       0.010
   0.00000000  0.07432886  0.03202099       0.010
   0.00000000  0.07432886  0.03430820       0.010
   0.00000000  0.07432886  0.03659541       0.010
   0.00000000  0.07432886  0.03888262       0.010
   0.00000000  0.07432886  0.04116984       0.010
   0.00000000  0.07432886  0.04345705       0.010
   0.00000000  0.07432886  0.04345705       0.010
   0.00000000  0.07041682  0.04345705       0.010
   0.00000000  0.06650477  0.04345705       0.010
   0.00000000  0.06259273  0.04345705       0.010
   0.00000000  0.05868068  0.04345705       0.010
   0.00000000  0.05476864  0.04345705       0.010
   0.00000000  0.05085659  0.04345705       0.010
   0.00000000  0.04694454  0.04345705       0.010
   0.00000000  0.04303250  0.04345705       0.010
   0.00000000  0.03912045  0.04345705       0.010
   0.00000000  0.03520841  0.04345705       0.010
   0.00000000  0.03129636  0.04345705       0.010
   0.00000000  0.02738432  0.04345705       0.010
   0.00000000  0.02347227  0.04345705       0.010
   0.00000000  0.01956023  0.04345705       0.010
   0.00000000  0.01564818  0.04345705       0.010
   0.00000000  0.01173614  0.04345705       0.010
   0.00000000  0.00782409  0.04345705       0.010
   0.00000000  0.00391205  0.04345705       0.010
   0.00000000  0.00000000  0.04345705       0.010
   0.00000000  0.00000000  0.04345705       0.010
   0.00000000  0.00000000  0.04116984       0.010
   0.00000000  0.00000000  0.03888262       0.010
   0.00000000  0.00000000  0.03659541       0.010
   0.00000000  0.00000000  0.03430820       0.010
   0.00000000  0.00000000  0.03202099       0.010
   0.00000000  0.00000000  0.02973377       0.010
   0.00000000  0.00000000  0.02744656       0.010
   0.00000000  0.00000000  0.02515935       0.010
   0.00000000  0.00000000  0.02287213       0.010
   0.00000000  0.00000000  0.02058492       0.010
   0.00000000  0.00000000  0.01829771       0.010
   0.00000000  0.00000000  0.01601049       0.010
   0.00000000  0.00000000  0.01372328       0.010
   0.00000000  0.00000000  0.01143607       0.010
   0.00000000  0.00000000  0.00914885       0.010
   0.00000000  0.00000000  0.00686164       0.010
   0.00000000  0.00000000  0.00457443       0.010
   0.00000000  0.00000000  0.00228721       0.010
   0.00000000  0.00000000  0.00000000       0.010
   0.00000000  0.00000000  0.00000000       0.010
   0.00295409  0.00000000  0.00000000       0.010
   0.00590818  0.00000000  0.00000000       0.010
   0.00886227  0.00000000  0.00000000       0.010
   0.01181635  0.00000000  0.00000000       0.010
   0.01477044  0.00000000  0.00000000       0.010
   0.01772453  0.00000000  0.00000000       0.010
   0.02067862  0.00000000  0.00000000       0.010
   0.02363271  0.00000000  0.00000000       0.010
   0.02658680  0.00000000  0.00000000       0.010
   0.02954088  0.00000000  0.00000000       0.010
   0.03249497  0.00000000  0.00000000       0.010
   0.03544906  0.00000000  0.00000000       0.010
   0.03840315  0.00000000  0.00000000       0.010
   0.04135724  0.00000000  0.00000000       0.010
   0.04431133  0.00000000  0.00000000       0.010
   0.04726542  0.00000000  0.00000000       0.010
   0.05021950  0.00000000  0.00000000       0.010
   0.05317359  0.00000000  0.00000000       0.010
   0.05612768  0.00000000  0.00000000       0.010
 
 k-points in reciprocal lattice and weights: k-points along high symmetry lines      
   0.00000000  0.00000000  0.00000000       0.010
   0.00000000  0.02631579  0.00000000       0.010
   0.00000000  0.05263158  0.00000000       0.010
   0.00000000  0.07894737  0.00000000       0.010
   0.00000000  0.10526316  0.00000000       0.010
   0.00000000  0.13157895  0.00000000       0.010
   0.00000000  0.15789474  0.00000000       0.010
   0.00000000  0.18421053  0.00000000       0.010
   0.00000000  0.21052632  0.00000000       0.010
   0.00000000  0.23684211  0.00000000       0.010
   0.00000000  0.26315789  0.00000000       0.010
   0.00000000  0.28947368  0.00000000       0.010
   0.00000000  0.31578947  0.00000000       0.010
   0.00000000  0.34210526  0.00000000       0.010
   0.00000000  0.36842105  0.00000000       0.010
   0.00000000  0.39473684  0.00000000       0.010
   0.00000000  0.42105263  0.00000000       0.010
   0.00000000  0.44736842  0.00000000       0.010
   0.00000000  0.47368421  0.00000000       0.010
   0.00000000  0.50000000  0.00000000       0.010
   0.00000000  0.50000000  0.00000000       0.010
   0.00000000  0.50000000  0.02631579       0.010
   0.00000000  0.50000000  0.05263158       0.010
   0.00000000  0.50000000  0.07894737       0.010
   0.00000000  0.50000000  0.10526316       0.010
   0.00000000  0.50000000  0.13157895       0.010
   0.00000000  0.50000000  0.15789474       0.010
   0.00000000  0.50000000  0.18421053       0.010
   0.00000000  0.50000000  0.21052632       0.010
   0.00000000  0.50000000  0.23684211       0.010
   0.00000000  0.50000000  0.26315789       0.010
   0.00000000  0.50000000  0.28947368       0.010
   0.00000000  0.50000000  0.31578947       0.010
   0.00000000  0.50000000  0.34210526       0.010
   0.00000000  0.50000000  0.36842105       0.010
   0.00000000  0.50000000  0.39473684       0.010
   0.00000000  0.50000000  0.42105263       0.010
   0.00000000  0.50000000  0.44736842       0.010
   0.00000000  0.50000000  0.47368421       0.010
   0.00000000  0.50000000  0.50000000       0.010
   0.00000000  0.50000000  0.50000000       0.010
   0.00000000  0.47368421  0.50000000       0.010
   0.00000000  0.44736842  0.50000000       0.010
   0.00000000  0.42105263  0.50000000       0.010
   0.00000000  0.39473684  0.50000000       0.010
   0.00000000  0.36842105  0.50000000       0.010
   0.00000000  0.34210526  0.50000000       0.010
   0.00000000  0.31578947  0.50000000       0.010
   0.00000000  0.28947368  0.50000000       0.010
   0.00000000  0.26315789  0.50000000       0.010
   0.00000000  0.23684211  0.50000000       0.010
   0.00000000  0.21052632  0.50000000       0.010
   0.00000000  0.18421053  0.50000000       0.010
   0.00000000  0.15789474  0.50000000       0.010
   0.00000000  0.13157895  0.50000000       0.010
   0.00000000  0.10526316  0.50000000       0.010
   0.00000000  0.07894737  0.50000000       0.010
   0.00000000  0.05263158  0.50000000       0.010
   0.00000000  0.02631579  0.50000000       0.010
   0.00000000  0.00000000  0.50000000       0.010
   0.00000000  0.00000000  0.50000000       0.010
   0.00000000  0.00000000  0.47368421       0.010
   0.00000000  0.00000000  0.44736842       0.010
   0.00000000  0.00000000  0.42105263       0.010
   0.00000000  0.00000000  0.39473684       0.010
   0.00000000  0.00000000  0.36842105       0.010
   0.00000000  0.00000000  0.34210526       0.010
   0.00000000  0.00000000  0.31578947       0.010
   0.00000000  0.00000000  0.28947368       0.010
   0.00000000  0.00000000  0.26315789       0.010
   0.00000000  0.00000000  0.23684211       0.010
   0.00000000  0.00000000  0.21052632       0.010
   0.00000000  0.00000000  0.18421053       0.010
   0.00000000  0.00000000  0.15789474       0.010
   0.00000000  0.00000000  0.13157895       0.010
   0.00000000  0.00000000  0.10526316       0.010
   0.00000000  0.00000000  0.07894737       0.010
   0.00000000  0.00000000  0.05263158       0.010
   0.00000000  0.00000000  0.02631579       0.010
   0.00000000  0.00000000  0.00000000       0.010
   0.00000000  0.00000000  0.00000000       0.010
   0.02631579  0.00000000  0.00000000       0.010
   0.05263158  0.00000000  0.00000000       0.010
   0.07894737  0.00000000  0.00000000       0.010
   0.10526316  0.00000000  0.00000000       0.010
   0.13157895  0.00000000  0.00000000       0.010
   0.15789474  0.00000000  0.00000000       0.010
   0.18421053  0.00000000  0.00000000       0.010
   0.21052632  0.00000000  0.00000000       0.010
   0.23684211  0.00000000  0.00000000       0.010
   0.26315789  0.00000000  0.00000000       0.010
   0.28947368  0.00000000  0.00000000       0.010
   0.31578947  0.00000000  0.00000000       0.010
   0.34210526  0.00000000  0.00000000       0.010
   0.36842105  0.00000000  0.00000000       0.010
   0.39473684  0.00000000  0.00000000       0.010
   0.42105263  0.00000000  0.00000000       0.010
   0.44736842  0.00000000  0.00000000       0.010
   0.47368421  0.00000000  0.00000000       0.010
   0.50000000  0.00000000  0.00000000       0.010
 
 position of ions in fractional coordinates (direct lattice) 
   0.01536406  0.25000000  0.69213186
   0.98463594  0.75000002  0.30786814
   0.48463594  0.75000002  0.19213180
   0.51536406  0.25000000  0.80786818
   0.16070224  0.75000002  0.90650282
   0.83929776  0.25000000  0.09349716
   0.33929776  0.25000000  0.40650290
   0.66070224  0.75000002  0.59349714
   0.19345800  0.07100390  0.14637424
   0.80654200  0.92899609  0.85362574
   0.30654200  0.92899609  0.64637426
   0.69345800  0.07100390  0.35362574
   0.80654200  0.57100391  0.85362574
   0.19345800  0.42899609  0.14637424
   0.69345800  0.42899609  0.35362574
   0.30654200  0.57100391  0.64637426
   0.08126801  0.75000002  0.59096745
   0.91873197  0.25000000  0.40903255
   0.41873200  0.25000000  0.09096738
   0.58126803  0.75000002  0.90903260
   0.19639773  0.25000000  0.96492478
   0.80360225  0.75000002  0.03507524
   0.30360225  0.75000002  0.46492469
   0.69639775  0.25000000  0.53507522
 
 position of ions in cartesian coordinates  (Angst):
   0.13686706  1.68171550  7.96340108
   8.77139347  5.04514660  3.54221158
   4.31726322  5.04514660  2.21059404
   4.59099728  1.68171550  9.29501839
   1.43157740  5.04514660 10.42987033
   7.47668311  1.68171550  1.07574210
   3.02255286  1.68171550  4.67706494
   5.88570765  5.04514660  6.82854820
   1.72337424  0.47763344  1.68412533
   7.18488627  6.24922848  9.82148710
   2.73075602  6.24922848  7.43693190
   6.17750449  0.47763344  4.06868076
   7.18488627  3.84106449  9.82148710
   1.72337424  2.88579749  1.68412533
   6.17750449  2.88579749  4.06868076
   2.73075602  3.84106449  7.43693190
   0.72395658  5.04514660  6.79944253
   8.18430375  1.68171550  4.70617014
   3.73017373  1.68171550  1.04663549
   5.17808701  5.04514660 10.45897694
   1.74956216  1.68171550 11.10205074
   7.15869822  5.04514660  0.40356211
   2.70456797  5.04514660  5.34924346
   6.20369253  1.68171550  6.15636826
 


--------------------------------------------------------------------------------------------------------


 k-point  1 :   0.0000 0.0000 0.0000  plane waves:   17581
 k-point  2 :   0.0000 0.0263 0.0000  plane waves:   17563
 k-point  3 :   0.0000 0.0526 0.0000  plane waves:   17541
 k-point  4 :   0.0000 0.0789 0.0000  plane waves:   17563
 k-point  5 :   0.0000 0.1053 0.0000  plane waves:   17541
 k-point  6 :   0.0000 0.1316 0.0000  plane waves:   17513
 k-point  7 :   0.0000 0.1579 0.0000  plane waves:   17489
 k-point  8 :   0.0000 0.1842 0.0000  plane waves:   17495
 k-point  9 :   0.0000 0.2105 0.0000  plane waves:   17479
 k-point 10 :   0.0000 0.2368 0.0000  plane waves:   17471
 k-point 11 :   0.0000 0.2632 0.0000  plane waves:   17481
 k-point 12 :   0.0000 0.2895 0.0000  plane waves:   17482
 k-point 13 :   0.0000 0.3158 0.0000  plane waves:   17488
 k-point 14 :   0.0000 0.3421 0.0000  plane waves:   17480
 k-point 15 :   0.0000 0.3684 0.0000  plane waves:   17486
 k-point 16 :   0.0000 0.3947 0.0000  plane waves:   17472
 k-point 17 :   0.0000 0.4211 0.0000  plane waves:   17470
 k-point 18 :   0.0000 0.4474 0.0000  plane waves:   17476
 k-point 19 :   0.0000 0.4737 0.0000  plane waves:   17492
 k-point 20 :   0.0000 0.5000 0.0000  plane waves:   17492
 k-point 21 :   0.0000 0.5000 0.0000  plane waves:   17492
 k-point 22 :   0.0000 0.5000 0.0263  plane waves:   17488
 k-point 23 :   0.0000 0.5000 0.0526  plane waves:   17490
 k-point 24 :   0.0000 0.5000 0.0789  plane waves:   17490
 k-point 25 :   0.0000 0.5000 0.1053  plane waves:   17512
 k-point 26 :   0.0000 0.5000 0.1316  plane waves:   17502
 k-point 27 :   0.0000 0.5000 0.1579  plane waves:   17506
 k-point 28 :   0.0000 0.5000 0.1842  plane waves:   17506
 k-point 29 :   0.0000 0.5000 0.2105  plane waves:   17522
 k-point 30 :   0.0000 0.5000 0.2368  plane waves:   17512
 k-point 31 :   0.0000 0.5000 0.2632  plane waves:   17526
 k-point 32 :   0.0000 0.5000 0.2895  plane waves:   17528
 k-point 33 :   0.0000 0.5000 0.3158  plane waves:   17530
 k-point 34 :   0.0000 0.5000 0.3421  plane waves:   17522
 k-point 35 :   0.0000 0.5000 0.3684  plane waves:   17510
 k-point 36 :   0.0000 0.5000 0.3947  plane waves:   17506
 k-point 37 :   0.0000 0.5000 0.4211  plane waves:   17516
 k-point 38 :   0.0000 0.5000 0.4474  plane waves:   17508
 k-point 39 :   0.0000 0.5000 0.4737  plane waves:   17526
 k-point 40 :   0.0000 0.5000 0.5000  plane waves:   17516
 k-point 41 :   0.0000 0.5000 0.5000  plane waves:   17516
 k-point 42 :   0.0000 0.4737 0.5000  plane waves:   17522
 k-point 43 :   0.0000 0.4474 0.5000  plane waves:   17524
 k-point 44 :   0.0000 0.4211 0.5000  plane waves:   17514
 k-point 45 :   0.0000 0.3947 0.5000  plane waves:   17476
 k-point 46 :   0.0000 0.3684 0.5000  plane waves:   17468
 k-point 47 :   0.0000 0.3421 0.5000  plane waves:   17488
 k-point 48 :   0.0000 0.3158 0.5000  plane waves:   17490
 k-point 49 :   0.0000 0.2895 0.5000  plane waves:   17486
 k-point 50 :   0.0000 0.2632 0.5000  plane waves:   17472
 k-point 51 :   0.0000 0.2368 0.5000  plane waves:   17474
 k-point 52 :   0.0000 0.2105 0.5000  plane waves:   17512
 k-point 53 :   0.0000 0.1842 0.5000  plane waves:   17508
 k-point 54 :   0.0000 0.1579 0.5000  plane waves:   17508
 k-point 55 :   0.0000 0.1316 0.5000  plane waves:   17512
 k-point 56 :   0.0000 0.1053 0.5000  plane waves:   17516
 k-point 57 :   0.0000 0.0789 0.5000  plane waves:   17502
 k-point 58 :   0.0000 0.0526 0.5000  plane waves:   17496
 k-point 59 :   0.0000 0.0263 0.5000  plane waves:   17508
 k-point 60 :   0.0000 0.0000 0.5000  plane waves:   17518
 k-point 61 :   0.0000 0.0000 0.5000  plane waves:   17518
 k-point 62 :   0.0000 0.0000 0.4737  plane waves:   17512
 k-point 63 :   0.0000 0.0000 0.4474  plane waves:   17492
 k-point 64 :   0.0000 0.0000 0.4211  plane waves:   17500
 k-point 65 :   0.0000 0.0000 0.3947  plane waves:   17512
 k-point 66 :   0.0000 0.0000 0.3684  plane waves:   17520
 k-point 67 :   0.0000 0.0000 0.3421  plane waves:   17514
 k-point 68 :   0.0000 0.0000 0.3158  plane waves:   17512
 k-point 69 :   0.0000 0.0000 0.2895  plane waves:   17504
 k-point 70 :   0.0000 0.0000 0.2632  plane waves:   17510
 k-point 71 :   0.0000 0.0000 0.2368  plane waves:   17518
 k-point 72 :   0.0000 0.0000 0.2105  plane waves:   17520
 k-point 73 :   0.0000 0.0000 0.1842  plane waves:   17528
 k-point 74 :   0.0000 0.0000 0.1579  plane waves:   17544
 k-point 75 :   0.0000 0.0000 0.1316  plane waves:   17542
 k-point 76 :   0.0000 0.0000 0.1053  plane waves:   17558
 k-point 77 :   0.0000 0.0000 0.0789  plane waves:   17570
 k-point 78 :   0.0000 0.0000 0.0526  plane waves:   17566
 k-point 79 :   0.0000 0.0000 0.0263  plane waves:   17578
 k-point 80 :   0.0000 0.0000 0.0000  plane waves:   17581
 k-point 81 :   0.0000 0.0000 0.0000  plane waves:   17581
 k-point 82 :   0.0263 0.0000 0.0000  plane waves:   17561
 k-point 83 :   0.0526 0.0000 0.0000  plane waves:   17551
 k-point 84 :   0.0789 0.0000 0.0000  plane waves:   17531
 k-point 85 :   0.1053 0.0000 0.0000  plane waves:   17511
 k-point 86 :   0.1316 0.0000 0.0000  plane waves:   17505
 k-point 87 :   0.1579 0.0000 0.0000  plane waves:   17497
 k-point 88 :   0.1842 0.0000 0.0000  plane waves:   17491
 k-point 89 :   0.2105 0.0000 0.0000  plane waves:   17505
 k-point 90 :   0.2368 0.0000 0.0000  plane waves:   17505
 k-point 91 :   0.2632 0.0000 0.0000  plane waves:   17508
 k-point 92 :   0.2895 0.0000 0.0000  plane waves:   17514
 k-point 93 :   0.3158 0.0000 0.0000  plane waves:   17510
 k-point 94 :   0.3421 0.0000 0.0000  plane waves:   17486
 k-point 95 :   0.3684 0.0000 0.0000  plane waves:   17500
 k-point 96 :   0.3947 0.0000 0.0000  plane waves:   17504
 k-point 97 :   0.4211 0.0000 0.0000  plane waves:   17498
 k-point 98 :   0.4474 0.0000 0.0000  plane waves:   17508
 k-point 99 :   0.4737 0.0000 0.0000  plane waves:   17508
 k-point ** :   0.5000 0.0000 0.0000  plane waves:   17512

 maximum and minimum number of plane-waves per node :      4424     4320

 maximum number of plane-waves:     17581
 maximum index in each direction: 
   IXMAX=   16   IYMAX=   12   IZMAX=   20
   IXMIN=  -16   IYMIN=  -12   IZMIN=  -21


 real space projection operators:
  total allocation   :       4446.19 KBytes
  max/ min on nodes  :       1156.73       1066.36


 parallel 3D FFT for wavefunctions:
    minimum data exchange during FFTs selected (reduces bandwidth)
 parallel 3D FFT for charge:
    minimum data exchange during FFTs selected (reduces bandwidth)


 total amount of memory used by VASP MPI-rank0   117595. kBytes
=======================================================================

   base      :      30000. kBytes
   nonlr-proj:       2650. kBytes
   fftplans  :       2346. kBytes
   grid      :       3658. kBytes
   one-center:         93. kBytes
   wavefun   :      78848. kBytes
 
     INWAV:  cpu time    0.0000: real time    0.0000
 initial charge density was supplied:
 number of electron     144.0000001 magnetization 
 keeping initial charge density in first step


--------------------------------------------------------------------------------------------------------


 Maximum index for non-local projection operator          860
 Maximum index for augmentation-charges         1209 (set IRDMAX)


--------------------------------------------------------------------------------------------------------


 First call to EWALD:  gamma=   0.201
 Maximum number of real-space cells 3x 3x 2
 Maximum number of reciprocal cells 3x 2x 3

    FEWALD:  cpu time    0.1333: real time    0.1336


--------------------------------------- Iteration      1(   1)  ---------------------------------------


vdW kernel read from vdw_kernel.bindat
  0.0000  0.2424  0.5071  0.7962  1.1119  1.4567  1.8333  2.2446  2.6937  3.1842
  3.7199  4.3049  4.9438  5.6415  6.4036  7.2358  8.1446  9.1372 10.2212 11.4050
 12.6979 14.1099 15.6519 17.3360 19.1751 21.1837 23.3773 25.7729 28.3892 31.2465
 34.3669 37.7748 41.4965 45.5611 50.0000
 
    POTLOK:  cpu time    1.3980: real time    1.4258
    SETDIJ:  cpu time    0.0025: real time    0.0033
     EDDAV:  cpu time    8.4220: real time    8.4689
       DOS:  cpu time    0.0036: real time    0.0042
    --------------------------------------------
      LOOP:  cpu time    9.8261: real time    9.9022

 eigenvalue-minimisations  : 17616
 total energy-change (2. order) : 0.8561138E+03  (-0.5734543E+04)
 number of electron     144.0000001 magnetization 
 augmentation part      144.0000001 magnetization 

 Free energy of the ion-electron system (eV)
  ---------------------------------------------------
  alpha Z        PSCENC =       466.78151634
  Ewald energy   TEWEN  =     -6442.96156159
  -Hartree energ DENC   =      -899.32484706
  -exchange      EXHF   =         0.00000000
  -V(xc)+E(xc)   XCENC  =        49.11024097
  PAW double counting   =      3865.12538590    -3570.76707164
  entropy T*S    EENTRO =        -0.00022787
  eigenvalues    EBANDS =       118.99888513
  atomic energy  EATOM  =      7269.15145414
  Solvation  Ediel_sol  =         0.00000000
  ---------------------------------------------------
  free energy    TOTEN  =       856.11377433 eV

  energy without entropy =      856.11400220  energy(sigma->0) =      856.11388826


--------------------------------------------------------------------------------------------------------




--------------------------------------- Iteration      1(   2)  ---------------------------------------


     EDDAV:  cpu time   10.5658: real time   10.6034
       DOS:  cpu time    0.0029: real time    0.0029
    --------------------------------------------
      LOOP:  cpu time   10.5687: real time   10.6063

 eigenvalue-minimisations  : 23792
 total energy-change (2. order) :-0.8724051E+03  (-0.8477117E+03)
 number of electron     144.0000001 magnetization 
 augmentation part      144.0000001 magnetization 

 Free energy of the ion-electron system (eV)
  ---------------------------------------------------
  alpha Z        PSCENC =       466.78151634
  Ewald energy   TEWEN  =     -6442.96156159
  -Hartree energ DENC   =      -899.32484706
  -exchange      EXHF   =         0.00000000
  -V(xc)+E(xc)   XCENC  =        49.11024097
  PAW double counting   =      3865.12538590    -3570.76707164
  entropy T*S    EENTRO =        -0.00020907
  eigenvalues    EBANDS =      -753.40624031
  atomic energy  EATOM  =      7269.15145414
  Solvation  Ediel_sol  =         0.00000000
  ---------------------------------------------------
  free energy    TOTEN  =       -16.29133231 eV

  energy without entropy =      -16.29112324  energy(sigma->0) =      -16.29122777


--------------------------------------------------------------------------------------------------------




--------------------------------------- Iteration      1(   3)  ---------------------------------------


     EDDAV:  cpu time    9.4695: real time    9.4931
       DOS:  cpu time    0.0029: real time    0.0029
    --------------------------------------------
      LOOP:  cpu time    9.4725: real time    9.4960

 eigenvalue-minimisations  : 21632
 total energy-change (2. order) :-0.7961397E+02  (-0.7826991E+02)
 number of electron     144.0000001 magnetization 
 augmentation part      144.0000001 magnetization 

 Free energy of the ion-electron system (eV)
  ---------------------------------------------------
  alpha Z        PSCENC =       466.78151634
  Ewald energy   TEWEN  =     -6442.96156159
  -Hartree energ DENC   =      -899.32484706
  -exchange      EXHF   =         0.00000000
  -V(xc)+E(xc)   XCENC  =        49.11024097
  PAW double counting   =      3865.12538590    -3570.76707164
  entropy T*S    EENTRO =        -0.00000000
  eigenvalues    EBANDS =      -833.02042010
  atomic energy  EATOM  =      7269.15145414
  Solvation  Ediel_sol  =         0.00000000
  ---------------------------------------------------
  free energy    TOTEN  =       -95.90530303 eV

  energy without entropy =      -95.90530303  energy(sigma->0) =      -95.90530303


--------------------------------------------------------------------------------------------------------




--------------------------------------- Iteration      1(   4)  ---------------------------------------


     EDDAV:  cpu time   11.5261: real time   11.5550
       DOS:  cpu time    0.0032: real time    0.0032
    --------------------------------------------
      LOOP:  cpu time   11.5293: real time   11.5582

 eigenvalue-minimisations  : 26016
 total energy-change (2. order) :-0.2655841E+01  (-0.2647729E+01)
 number of electron     144.0000001 magnetization 
 augmentation part      144.0000001 magnetization 

 Free energy of the ion-electron system (eV)
  ---------------------------------------------------
  alpha Z        PSCENC =       466.78151634
  Ewald energy   TEWEN  =     -6442.96156159
  -Hartree energ DENC   =      -899.32484706
  -exchange      EXHF   =         0.00000000
  -V(xc)+E(xc)   XCENC  =        49.11024097
  PAW double counting   =      3865.12538590    -3570.76707164
  entropy T*S    EENTRO =        -0.00000000
  eigenvalues    EBANDS =      -835.67626156
  atomic energy  EATOM  =      7269.15145414
  Solvation  Ediel_sol  =         0.00000000
  ---------------------------------------------------
  free energy    TOTEN  =       -98.56114449 eV

  energy without entropy =      -98.56114449  energy(sigma->0) =      -98.56114449


--------------------------------------------------------------------------------------------------------




--------------------------------------- Iteration      1(   5)  ---------------------------------------


     EDDAV:  cpu time   10.1417: real time   10.1674
       DOS:  cpu time    0.0023: real time    0.0023
    --------------------------------------------
      LOOP:  cpu time   10.1440: real time   10.1697

 eigenvalue-minimisations  : 22832
 total energy-change (2. order) :-0.6288075E-01  (-0.6284146E-01)
 number of electron     144.0000001 magnetization 
 augmentation part      144.0000001 magnetization 

 Free energy of the ion-electron system (eV)
  ---------------------------------------------------
  alpha Z        PSCENC =       466.78151634
  Ewald energy   TEWEN  =     -6442.96156159
  -Hartree energ DENC   =      -899.32484706
  -exchange      EXHF   =         0.00000000
  -V(xc)+E(xc)   XCENC  =        49.11024097
  PAW double counting   =      3865.12538590    -3570.76707164
  entropy T*S    EENTRO =        -0.00000000
  eigenvalues    EBANDS =      -835.73914231
  atomic energy  EATOM  =      7269.15145414
  Solvation  Ediel_sol  =         0.00000000
  ---------------------------------------------------
  free energy    TOTEN  =       -98.62402524 eV

  energy without entropy =      -98.62402524  energy(sigma->0) =      -98.62402524


--------------------------------------------------------------------------------------------------------




--------------------------------------- Iteration      1(   6)  ---------------------------------------


     EDDAV:  cpu time   11.1548: real time   11.1830
       DOS:  cpu time    0.0142: real time    0.0143
    --------------------------------------------
      LOOP:  cpu time   11.1690: real time   11.1972

 eigenvalue-minimisations  : 26128
 total energy-change (2. order) :-0.1370223E-02  (-0.1369920E-02)
 number of electron     144.0000001 magnetization 
 augmentation part      144.0000001 magnetization 

 Free energy of the ion-electron system (eV)
  ---------------------------------------------------
  alpha Z        PSCENC =       466.78151634
  Ewald energy   TEWEN  =     -6442.96156159
  -Hartree energ DENC   =      -899.32484706
  -exchange      EXHF   =         0.00000000
  -V(xc)+E(xc)   XCENC  =        49.11024097
  PAW double counting   =      3865.12538590    -3570.76707164
  entropy T*S    EENTRO =        -0.00000000
  eigenvalues    EBANDS =      -835.74051253
  atomic energy  EATOM  =      7269.15145414
  Solvation  Ediel_sol  =         0.00000000
  ---------------------------------------------------
  free energy    TOTEN  =       -98.62539546 eV

  energy without entropy =      -98.62539546  energy(sigma->0) =      -98.62539546


--------------------------------------------------------------------------------------------------------




--------------------------------------- Iteration      1(   7)  ---------------------------------------


     EDDAV:  cpu time    9.9868: real time   10.0116
       DOS:  cpu time    0.0016: real time    0.0016
    --------------------------------------------
      LOOP:  cpu time    9.9884: real time   10.0132

 eigenvalue-minimisations  : 23224
 total energy-change (2. order) :-0.3585909E-04  (-0.3585420E-04)
 number of electron     144.0000001 magnetization 
 augmentation part      144.0000001 magnetization 

 Free energy of the ion-electron system (eV)
  ---------------------------------------------------
  alpha Z        PSCENC =       466.78151634
  Ewald energy   TEWEN  =     -6442.96156159
  -Hartree energ DENC   =      -899.32484706
  -exchange      EXHF   =         0.00000000
  -V(xc)+E(xc)   XCENC  =        49.11024097
  PAW double counting   =      3865.12538590    -3570.76707164
  entropy T*S    EENTRO =        -0.00000000
  eigenvalues    EBANDS =      -835.74054839
  atomic energy  EATOM  =      7269.15145414
  Solvation  Ediel_sol  =         0.00000000
  ---------------------------------------------------
  free energy    TOTEN  =       -98.62543132 eV

  energy without entropy =      -98.62543132  energy(sigma->0) =      -98.62543132


--------------------------------------------------------------------------------------------------------




--------------------------------------- Iteration      1(   8)  ---------------------------------------


     EDDAV:  cpu time    8.5384: real time    8.5607
       DOS:  cpu time    0.0018: real time    0.0018
    --------------------------------------------
      LOOP:  cpu time    8.5402: real time    8.5625

 eigenvalue-minimisations  : 18272
 total energy-change (2. order) :-0.6381024E-06  (-0.6380237E-06)
 number of electron     144.0000001 magnetization 
 augmentation part      144.0000001 magnetization 

 Free energy of the ion-electron system (eV)
  ---------------------------------------------------
  alpha Z        PSCENC =       466.78151634
  Ewald energy   TEWEN  =     -6442.96156159
  -Hartree energ DENC   =      -899.32484706
  -exchange      EXHF   =         0.00000000
  -V(xc)+E(xc)   XCENC  =        49.11024097
  PAW double counting   =      3865.12538590    -3570.76707164
  entropy T*S    EENTRO =        -0.00000000
  eigenvalues    EBANDS =      -835.74054903
  atomic energy  EATOM  =      7269.15145414
  Solvation  Ediel_sol  =         0.00000000
  ---------------------------------------------------
  free energy    TOTEN  =       -98.62543196 eV

  energy without entropy =      -98.62543196  energy(sigma->0) =      -98.62543196


--------------------------------------------------------------------------------------------------------




 average (electrostatic) potential at core
  the test charge radii are     1.2192  0.9892
  (the norm of the test charge is              1.0000)
       1 -35.9697       2 -35.9697       3 -35.9697       4 -35.9697       5 -36.0793
       6 -36.0793       7 -36.0793       8 -36.0793       9 -85.1089      10 -85.1089
      11 -85.1089      12 -85.1089      13 -85.1089      14 -85.1089      15 -85.1089
      16 -85.1089      17 -85.1782      18 -85.1782      19 -85.1782      20 -85.1782
      21 -85.0671      22 -85.0671      23 -85.0671      24 -85.0671
 
 
 
 E-fermi :   3.6374     XC(G=0):  -8.9674     alpha+bet :-10.5295


 k-point     1 :       0.0000    0.0000    0.0000
  band No.  band energies     occupation 
      1     -23.9643      2.00000
      2     -23.9587      2.00000
      3     -23.9551      2.00000
      4     -23.9549      2.00000
      5     -23.8790      2.00000
      6     -23.8759      2.00000
      7     -23.8709      2.00000
      8     -23.8688      2.00000
      9      -9.5413      2.00000
     10      -9.5198      2.00000
     11      -9.4772      2.00000
     12      -9.4702      2.00000
     13      -9.4258      2.00000
     14      -9.3824      2.00000
     15      -9.3788      2.00000
     16      -9.3610      2.00000
     17      -9.3566      2.00000
     18      -9.3289      2.00000
     19      -9.3211      2.00000
     20      -9.3174      2.00000
     21      -9.2729      2.00000
     22      -9.2377      2.00000
     23      -9.2031      2.00000
     24      -9.2021      2.00000
     25      -9.1975      2.00000
     26      -9.1726      2.00000
     27      -9.1598      2.00000
     28      -9.1590      2.00000
     29      -9.1427      2.00000
     30      -9.1413      2.00000
     31      -9.1291      2.00000
     32      -9.1180      2.00000
     33      -7.2112      2.00000
     34      -6.9486      2.00000
     35      -6.9081      2.00000
     36      -6.8846      2.00000
     37      -2.5857      2.00000
     38      -2.5214      2.00000
     39      -2.2573      2.00000
     40      -2.2387      2.00000
     41      -2.1496      2.00000
     42      -2.1307      2.00000
     43      -2.1299      2.00000
     44      -2.0877      2.00000
     45      -2.0291      2.00000
     46      -1.9786      2.00000
     47      -1.9292      2.00000
     48      -1.7579      2.00000
     49       0.0089      2.00000
     50       1.0378      2.00000
     51       1.2279      2.00000
     52       1.2682      2.00000
     53       1.3226      2.00000
     54       1.5398      2.00000
     55       1.7711      2.00000
     56       1.8350      2.00000
     57       1.8420      2.00000
     58       1.8990      2.00000
     59       1.9123      2.00000
     60       2.1401      2.00000
     61       2.1528      2.00000
     62       2.1585      2.00000
     63       2.3048      2.00000
     64       2.4232      2.00000
     65       2.4838      2.00000
     66       2.5540      2.00000
     67       2.5763      2.00000
     68       2.6077      2.00000
     69       2.9493      2.00000
     70       3.1807      2.00000
     71       3.2325      2.00000
     72       3.3562      2.00000
     73       4.5416      0.00000
     74       4.5437      0.00000
     75       4.8823      0.00000
     76       5.0623      0.00000
     77       5.0721      0.00000
     78       5.4311      0.00000
     79       5.6256      0.00000
     80       5.8183      0.00000
     81       5.8555      0.00000
     82       6.0922      0.00000
     83       6.1392      0.00000
     84       6.1455      0.00000
     85       6.1622      0.00000
     86       6.2506      0.00000
     87       6.2802      0.00000
     88       6.6182      0.00000

 k-point     2 :       0.0000    0.0263    0.0000
  band No.  band energies     occupation 
      1     -23.9642      2.00000
      2     -23.9587      2.00000
      3     -23.9551      2.00000
      4     -23.9549      2.00000
      5     -23.8790      2.00000
      6     -23.8759      2.00000
      7     -23.8709      2.00000
      8     -23.8688      2.00000
      9      -9.5410      2.00000
     10      -9.5199      2.00000
     11      -9.4829      2.00000
     12      -9.4643      2.00000
     13      -9.4258      2.00000
     14      -9.3857      2.00000
     15      -9.3802      2.00000
     16      -9.3616      2.00000
     17      -9.3535      2.00000
     18      -9.3340      2.00000
     19      -9.3273      2.00000
     20      -9.3048      2.00000
     21      -9.2734      2.00000
     22      -9.2383      2.00000
     23      -9.2031      2.00000
     24      -9.2023      2.00000
     25      -9.1970      2.00000
     26      -9.1731      2.00000
     27      -9.1593      2.00000
     28      -9.1588      2.00000
     29      -9.1427      2.00000
     30      -9.1418      2.00000
     31      -9.1291      2.00000
     32      -9.1179      2.00000
     33      -7.2097      2.00000
     34      -6.9482      2.00000
     35      -6.9081      2.00000
     36      -6.8846      2.00000
     37      -2.5840      2.00000
     38      -2.5200      2.00000
     39      -2.2568      2.00000
     40      -2.2376      2.00000
     41      -2.1621      2.00000
     42      -2.1292      2.00000
     43      -2.1170      2.00000
     44      -2.0871      2.00000
     45      -2.0337      2.00000
     46      -1.9784      2.00000
     47      -1.9332      2.00000
     48      -1.7578      2.00000
     49       0.0162      2.00000
     50       1.0403      2.00000
     51       1.2290      2.00000
     52       1.2697      2.00000
     53       1.3230      2.00000
     54       1.5389      2.00000
     55       1.7408      2.00000
     56       1.8427      2.00000
     57       1.8520      2.00000
     58       1.9086      2.00000
     59       1.9148      2.00000
     60       2.1414      2.00000
     61       2.1504      2.00000
     62       2.1591      2.00000
     63       2.3053      2.00000
     64       2.4255      2.00000
     65       2.4819      2.00000
     66       2.5541      2.00000
     67       2.5557      2.00000
     68       2.6262      2.00000
     69       2.9470      2.00000
     70       3.1460      2.00000
     71       3.2647      2.00000
     72       3.3571      2.00000
     73       4.5355      0.00000
     74       4.5406      0.00000
     75       4.8847      0.00000
     76       5.0666      0.00000
     77       5.0779      0.00000
     78       5.4301      0.00000
     79       5.6358      0.00000
     80       5.7542      0.00000
     81       5.9235      0.00000
     82       6.0805      0.00000
     83       6.0893      0.00000
     84       6.1248      0.00000
     85       6.2207      0.00000
     86       6.2490      0.00000
     87       6.2728      0.00000
     88       6.5666      0.00000

 k-point     3 :       0.0000    0.0526    0.0000
  band No.  band energies     occupation 
      1     -23.9641      2.00000
      2     -23.9587      2.00000
      3     -23.9551      2.00000
      4     -23.9549      2.00000
      5     -23.8791      2.00000
      6     -23.8760      2.00000
      7     -23.8709      2.00000
      8     -23.8689      2.00000
      9      -9.5400      2.00000
     10      -9.5204      2.00000
     11      -9.4906      2.00000
     12      -9.4558      2.00000
     13      -9.4257      2.00000
     14      -9.3930      2.00000
     15      -9.3838      2.00000
     16      -9.3631      2.00000
     17      -9.3487      2.00000
     18      -9.3467      2.00000
     19      -9.3231      2.00000
     20      -9.2908      2.00000
     21      -9.2751      2.00000
     22      -9.2401      2.00000
     23      -9.2032      2.00000
     24      -9.2026      2.00000
     25      -9.1956      2.00000
     26      -9.1745      2.00000
     27      -9.1582      2.00000
     28      -9.1578      2.00000
     29      -9.1433      2.00000
     30      -9.1427      2.00000
     31      -9.1292      2.00000
     32      -9.1178      2.00000
     33      -7.2051      2.00000
     34      -6.9472      2.00000
     35      -6.9079      2.00000
     36      -6.8848      2.00000
     37      -2.5790      2.00000
     38      -2.5158      2.00000
     39      -2.2553      2.00000
     40      -2.2345      2.00000
     41      -2.1795      2.00000
     42      -2.1272      2.00000
     43      -2.0962      2.00000
     44      -2.0855      2.00000
     45      -2.0470      2.00000
     46      -1.9777      2.00000
     47      -1.9446      2.00000
     48      -1.7576      2.00000
     49       0.0377      2.00000
     50       1.0475      2.00000
     51       1.2324      2.00000
     52       1.2741      2.00000
     53       1.3242      2.00000
     54       1.5365      2.00000
     55       1.6885      2.00000
     56       1.8449      2.00000
     57       1.8620      2.00000
     58       1.9218      2.00000
     59       1.9402      2.00000
     60       2.1432      2.00000
     61       2.1451      2.00000
     62       2.1614      2.00000
     63       2.3065      2.00000
     64       2.4321      2.00000
     65       2.4767      2.00000
     66       2.5185      2.00000
     67       2.5604      2.00000
     68       2.6497      2.00000
     69       2.9413      2.00000
     70       3.0922      2.00000
     71       3.3110      2.00000
     72       3.3593      2.00000
     73       4.5126      0.00000
     74       4.5377      0.00000
     75       4.8918      0.00000
     76       5.0785      0.00000
     77       5.0946      0.00000
     78       5.4265      0.00000
     79       5.6651      0.00000
     80       5.6814      0.00000
     81       6.0009      0.00000
     82       6.0043      0.00000
     83       6.0800      0.00000
     84       6.0879      0.00000
     85       6.2458      0.00000
     86       6.2629      0.00000
     87       6.2767      0.00000
     88       6.5094      0.00000

 k-point     4 :       0.0000    0.0789    0.0000
  band No.  band energies     occupation 
      1     -23.9640      2.00000
      2     -23.9586      2.00000
      3     -23.9551      2.00000
      4     -23.9550      2.00000
      5     -23.8791      2.00000
      6     -23.8761      2.00000
      7     -23.8709      2.00000
      8     -23.8689      2.00000
      9      -9.5384      2.00000
     10      -9.5212      2.00000
     11      -9.4980      2.00000
     12      -9.4469      2.00000
     13      -9.4257      2.00000
     14      -9.4016      2.00000
     15      -9.3887      2.00000
     16      -9.3658      2.00000
     17      -9.3631      2.00000
     18      -9.3389      2.00000
     19      -9.3171      2.00000
     20      -9.2777      2.00000
     21      -9.2773      2.00000
     22      -9.2427      2.00000
     23      -9.2033      2.00000
     24      -9.2031      2.00000
     25      -9.1935      2.00000
     26      -9.1770      2.00000
     27      -9.1571      2.00000
     28      -9.1554      2.00000
     29      -9.1454      2.00000
     30      -9.1427      2.00000
     31      -9.1293      2.00000
     32      -9.1174      2.00000
     33      -7.1976      2.00000
     34      -6.9455      2.00000
     35      -6.9076      2.00000
     36      -6.8851      2.00000
     37      -2.5707      2.00000
     38      -2.5090      2.00000
     39      -2.2527      2.00000
     40      -2.2296      2.00000
     41      -2.1956      2.00000
     42      -2.1240      2.00000
     43      -2.0830      2.00000
     44      -2.0743      2.00000
     45      -2.0681      2.00000
     46      -1.9768      2.00000
     47      -1.9627      2.00000
     48      -1.7579      2.00000
     49       0.0725      2.00000
     50       1.0586      2.00000
     51       1.2380      2.00000
     52       1.2816      2.00000
     53       1.3261      2.00000
     54       1.5327      2.00000
     55       1.6323      2.00000
     56       1.8482      2.00000
     57       1.8602      2.00000
     58       1.9325      2.00000
     59       1.9808      2.00000
     60       2.1316      2.00000
     61       2.1514      2.00000
     62       2.1656      2.00000
     63       2.3081      2.00000
     64       2.4427      2.00000
     65       2.4693      2.00000
     66       2.4789      2.00000
     67       2.5678      2.00000
     68       2.6666      2.00000
     69       2.9348      2.00000
     70       3.0354      2.00000
     71       3.3560      2.00000
     72       3.3623      2.00000
     73       4.4792      0.00000
     74       4.5330      0.00000
     75       4.9041      0.00000
     76       5.0962      0.00000
     77       5.1203      0.00000
     78       5.4185      0.00000
     79       5.6172      0.00000
     80       5.7098      0.00000
     81       5.9131      0.00000
     82       6.0090      0.00000
     83       6.0650      0.00000
     84       6.1157      0.00000
     85       6.2424      0.00000
     86       6.2574      0.00000
     87       6.3302      0.00000
     88       6.4777      0.00000

 k-point     5 :       0.0000    0.1053    0.0000
  band No.  band energies     occupation 
      1     -23.9638      2.00000
      2     -23.9585      2.00000
      3     -23.9551      2.00000
      4     -23.9550      2.00000
      5     -23.8792      2.00000
      6     -23.8762      2.00000
      7     -23.8709      2.00000
      8     -23.8689      2.00000
      9      -9.5362      2.00000
     10      -9.5223      2.00000
     11      -9.5049      2.00000
     12      -9.4381      2.00000
     13      -9.4257      2.00000
     14      -9.4106      2.00000
     15      -9.3942      2.00000
     16      -9.3779      2.00000
     17      -9.3688      2.00000
     18      -9.3311      2.00000
     19      -9.3102      2.00000
     20      -9.2813      2.00000
     21      -9.2645      2.00000
     22      -9.2460      2.00000
     23      -9.2035      2.00000
     24      -9.2035      2.00000
     25      -9.1909      2.00000
     26      -9.1807      2.00000
     27      -9.1555      2.00000
     28      -9.1524      2.00000
     29      -9.1480      2.00000
     30      -9.1425      2.00000
     31      -9.1296      2.00000
     32      -9.1169      2.00000
     33      -7.1874      2.00000
     34      -6.9432      2.00000
     35      -6.9073      2.00000
     36      -6.8855      2.00000
     37      -2.5595      2.00000
     38      -2.4995      2.00000
     39      -2.2492      2.00000
     40      -2.2229      2.00000
     41      -2.2098      2.00000
     42      -2.1198      2.00000
     43      -2.0954      2.00000
     44      -2.0796      2.00000
     45      -2.0523      2.00000
     46      -1.9861      2.00000
     47      -1.9758      2.00000
     48      -1.7592      2.00000
     49       0.1191      2.00000
     50       1.0726      2.00000
     51       1.2457      2.00000
     52       1.2924      2.00000
     53       1.3287      2.00000
     54       1.5280      2.00000
     55       1.5762      2.00000
     56       1.8527      2.00000
     57       1.8540      2.00000
     58       1.9454      2.00000
     59       2.0202      2.00000
     60       2.1159      2.00000
     61       2.1603      2.00000
     62       2.1722      2.00000
     63       2.3092      2.00000
     64       2.4359      2.00000
     65       2.4568      2.00000
     66       2.4618      2.00000
     67       2.5774      2.00000
     68       2.6740      2.00000
     69       2.9308      2.00000
     70       2.9778      2.00000
     71       3.3651      2.00000
     72       3.3980      2.00000
     73       4.4408      0.00000
     74       4.5267      0.00000
     75       4.9217      0.00000
     76       5.1160      0.00000
     77       5.1520      0.00000
     78       5.4035      0.00000
     79       5.5647      0.00000
     80       5.7652      0.00000
     81       5.8173      0.00000
     82       5.9380      0.00000
     83       6.0417      0.00000
     84       6.1863      0.00000
     85       6.2268      0.00000
     86       6.2309      0.00000
     87       6.3065      0.00000
     88       6.4324      0.00000

 k-point     6 :       0.0000    0.1316    0.0000
  band No.  band energies     occupation 
      1     -23.9635      2.00000
      2     -23.9584      2.00000
      3     -23.9551      2.00000
      4     -23.9550      2.00000
      5     -23.8793      2.00000
      6     -23.8764      2.00000
      7     -23.8709      2.00000
      8     -23.8690      2.00000
      9      -9.5335      2.00000
     10      -9.5237      2.00000
     11      -9.5112      2.00000
     12      -9.4296      2.00000
     13      -9.4258      2.00000
     14      -9.4196      2.00000
     15      -9.4000      2.00000
     16      -9.3920      2.00000
     17      -9.3727      2.00000
     18      -9.3237      2.00000
     19      -9.3028      2.00000
     20      -9.2855      2.00000
     21      -9.2527      2.00000
     22      -9.2499      2.00000
     23      -9.2037      2.00000
     24      -9.2035      2.00000
     25      -9.1879      2.00000
     26      -9.1856      2.00000
     27      -9.1536      2.00000
     28      -9.1506      2.00000
     29      -9.1489      2.00000
     30      -9.1423      2.00000
     31      -9.1302      2.00000
     32      -9.1163      2.00000
     33      -7.1748      2.00000
     34      -6.9405      2.00000
     35      -6.9068      2.00000
     36      -6.8860      2.00000
     37      -2.5456      2.00000
     38      -2.4877      2.00000
     39      -2.2446      2.00000
     40      -2.2218      2.00000
     41      -2.2153      2.00000
     42      -2.1270      2.00000
     43      -2.1148      2.00000
     44      -2.0756      2.00000
     45      -2.0307      2.00000
     46      -2.0137      2.00000
     47      -1.9748      2.00000
     48      -1.7617      2.00000
     49       0.1758      2.00000
     50       1.0880      2.00000
     51       1.2554      2.00000
     52       1.3065      2.00000
     53       1.3316      2.00000
     54       1.5222      2.00000
     55       1.5228      2.00000
     56       1.8456      2.00000
     57       1.8579      2.00000
     58       1.9590      2.00000
     59       2.0558      2.00000
     60       2.0966      2.00000
     61       2.1716      2.00000
     62       2.1815      2.00000
     63       2.3090      2.00000
     64       2.3892      2.00000
     65       2.4568      2.00000
     66       2.4735      2.00000
     67       2.5886      2.00000
     68       2.6714      2.00000
     69       2.9209      2.00000
     70       2.9309      2.00000
     71       3.3667      2.00000
     72       3.4367      2.00000
     73       4.4026      0.00000
     74       4.5188      0.00000
     75       4.9453      0.00000
     76       5.1329      0.00000
     77       5.1865      0.00000
     78       5.3778      0.00000
     79       5.5263      0.00000
     80       5.7162      0.00000
     81       5.8267      0.00000
     82       5.8630      0.00000
     83       6.0118      0.00000
     84       6.1998      0.00000
     85       6.2186      0.00000
     86       6.2523      0.00000
     87       6.2848      0.00000
     88       6.4427      0.00000

 k-point     7 :       0.0000    0.1579    0.0000
  band No.  band energies     occupation 
      1     -23.9632      2.00000
      2     -23.9583      2.00000
      3     -23.9551      2.00000
      4     -23.9550      2.00000
      5     -23.8794      2.00000
      6     -23.8766      2.00000
      7     -23.8709      2.00000
      8     -23.8690      2.00000
      9      -9.5304      2.00000
     10      -9.5253      2.00000
     11      -9.5167      2.00000
     12      -9.4284      2.00000
     13      -9.4261      2.00000
     14      -9.4213      2.00000
     15      -9.4057      2.00000
     16      -9.4057      2.00000
     17      -9.3769      2.00000
     18      -9.3168      2.00000
     19      -9.2954      2.00000
     20      -9.2901      2.00000
     21      -9.2541      2.00000
     22      -9.2424      2.00000
     23      -9.2040      2.00000
     24      -9.2029      2.00000
     25      -9.1917      2.00000
     26      -9.1846      2.00000
     27      -9.1531      2.00000
     28      -9.1513      2.00000
     29      -9.1452      2.00000
     30      -9.1420      2.00000
     31      -9.1311      2.00000
     32      -9.1156      2.00000
     33      -7.1600      2.00000
     34      -6.9374      2.00000
     35      -6.9063      2.00000
     36      -6.8865      2.00000
     37      -2.5295      2.00000
     38      -2.4736      2.00000
     39      -2.2390      2.00000
     40      -2.2313      2.00000
     41      -2.2090      2.00000
     42      -2.1594      2.00000
     43      -2.1093      2.00000
     44      -2.0711      2.00000
     45      -2.0442      2.00000
     46      -2.0099      2.00000
     47      -1.9737      2.00000
     48      -1.7657      2.00000
     49       0.2405      2.00000
     50       1.1034      2.00000
     51       1.2669      2.00000
     52       1.3237      2.00000
     53       1.3340      2.00000
     54       1.4726      2.00000
     55       1.5176      2.00000
     56       1.8360      2.00000
     57       1.8632      2.00000
     58       1.9723      2.00000
     59       2.0739      2.00000
     60       2.0868      2.00000
     61       2.1852      2.00000
     62       2.1923      2.00000
     63       2.3068      2.00000
     64       2.3391      2.00000
     65       2.4578      2.00000
     66       2.4918      2.00000
     67       2.6006      2.00000
     68       2.6611      2.00000
     69       2.8660      2.00000
     70       2.9338      2.00000
     71       3.3664      2.00000
     72       3.4715      2.00000
     73       4.3694      0.00000
     74       4.5090      0.00000
     75       4.9752      0.00000
     76       5.1398      0.00000
     77       5.2203      0.00000
     78       5.3375      0.00000
     79       5.5041      0.00000
     80       5.6153      0.00000
     81       5.7952      0.00000
     82       5.8901      0.00000
     83       5.9744      0.00000
     84       6.1658      0.00000
     85       6.1869      0.00000
     86       6.2004      0.00000
     87       6.3355      0.00000
     88       6.4508      0.00000

[...]
      2     -23.9607      2.00000
      3     -23.9555      2.00000
      4     -23.9555      2.00000
      5     -23.8752      2.00000
      6     -23.8745      2.00000
      7     -23.8729      2.00000
      8     -23.8723      2.00000
      9      -9.5486      2.00000
     10      -9.5444      2.00000
     11      -9.4246      2.00000
     12      -9.4145      2.00000
     13      -9.3918      2.00000
     14      -9.3841      2.00000
     15      -9.3558      2.00000
     16      -9.3549      2.00000
     17      -9.3505      2.00000
     18      -9.3455      2.00000
     19      -9.3371      2.00000
     20      -9.3332      2.00000
     21      -9.3095      2.00000
     22      -9.2963      2.00000
     23      -9.2047      2.00000
     24      -9.2001      2.00000
     25      -9.1778      2.00000
     26      -9.1772      2.00000
     27      -9.1756      2.00000
     28      -9.1717      2.00000
     29      -9.1502      2.00000
     30      -9.1463      2.00000
     31      -9.1352      2.00000
     32      -9.1324      2.00000
     33      -7.0318      2.00000
     34      -7.0069      2.00000
     35      -6.8939      2.00000
     36      -6.8886      2.00000
     37      -2.5502      2.00000
     38      -2.5323      2.00000
     39      -2.4111      2.00000
     40      -2.3702      2.00000
     41      -2.1597      2.00000
     42      -2.1410      2.00000
     43      -2.1201      2.00000
     44      -2.1174      2.00000
     45      -2.0460      2.00000
     46      -2.0278      2.00000
     47      -2.0223      2.00000
     48      -2.0180      2.00000
     49       0.6417      2.00000
     50       0.7436      2.00000
     51       1.1294      2.00000
     52       1.1364      2.00000
     53       1.6153      2.00000
     54       1.6578      2.00000
     55       1.9587      2.00000
     56       1.9780      2.00000
     57       2.0169      2.00000
     58       2.0280      2.00000
     59       2.2017      2.00000
     60       2.2405      2.00000
     61       2.4062      2.00000
     62       2.4089      2.00000
     63       2.4126      2.00000
     64       2.4321      2.00000
     65       2.5614      2.00000
     66       2.5911      2.00000
     67       2.7189      2.00000
     68       2.8093      2.00000
     69       2.9761      2.00000
     70       2.9887      2.00000
     71       3.0070      2.00000
     72       3.0673      2.00000
     73       4.7347      0.00000
     74       4.7953      0.00000
     75       4.7984      0.00000
     76       4.8081      0.00000
     77       4.8297      0.00000
     78       4.8824      0.00000
     79       5.2141      0.00000
     80       5.2403      0.00000
     81       5.8488      0.00000
     82       5.9390      0.00000
     83       6.0181      0.00000
     84       6.0199      0.00000
     85       6.0446      0.00000
     86       6.1412      0.00000
     87       6.7177      0.00000
     88       6.8097      0.00000

 k-point   100 :       0.5000    0.0000    0.0000
  band No.  band energies     occupation 
      1     -23.9609      2.00000
      2     -23.9609      2.00000
      3     -23.9555      2.00000
      4     -23.9555      2.00000
      5     -23.8748      2.00000
      6     -23.8748      2.00000
      7     -23.8726      2.00000
      8     -23.8726      2.00000
      9      -9.5467      2.00000
     10      -9.5467      2.00000
     11      -9.4196      2.00000
     12      -9.4196      2.00000
     13      -9.3871      2.00000
     14      -9.3871      2.00000
     15      -9.3527      2.00000
     16      -9.3527      2.00000
     17      -9.3509      2.00000
     18      -9.3509      2.00000
     19      -9.3351      2.00000
     20      -9.3351      2.00000
     21      -9.3035      2.00000
     22      -9.3035      2.00000
     23      -9.2026      2.00000
     24      -9.2026      2.00000
     25      -9.1774      2.00000
     26      -9.1774      2.00000
     27      -9.1736      2.00000
     28      -9.1736      2.00000
     29      -9.1482      2.00000
     30      -9.1482      2.00000
     31      -9.1337      2.00000
     32      -9.1337      2.00000
     33      -7.0191      2.00000
     34      -7.0191      2.00000
     35      -6.8911      2.00000
     36      -6.8911      2.00000
     37      -2.5419      2.00000
     38      -2.5419      2.00000
     39      -2.3916      2.00000
     40      -2.3916      2.00000
     41      -2.1504      2.00000
     42      -2.1504      2.00000
     43      -2.1191      2.00000
     44      -2.1191      2.00000
     45      -2.0369      2.00000
     46      -2.0369      2.00000
     47      -2.0205      2.00000
     48      -2.0205      2.00000
     49       0.6925      2.00000
     50       0.6925      2.00000
     51       1.1326      2.00000
     52       1.1326      2.00000
     53       1.6384      2.00000
     54       1.6384      2.00000
     55       1.9687      2.00000
     56       1.9687      2.00000
     57       2.0222      2.00000
     58       2.0222      2.00000
     59       2.2246      2.00000
     60       2.2246      2.00000
     61       2.4125      2.00000
     62       2.4125      2.00000
     63       2.4202      2.00000
     64       2.4202      2.00000
     65       2.5755      2.00000
     66       2.5755      2.00000
     67       2.7624      2.00000
     68       2.7624      2.00000
     69       2.9913      2.00000
     70       2.9913      2.00000
     71       3.0301      2.00000
     72       3.0301      2.00000
     73       4.7649      0.00000
     74       4.7649      0.00000
     75       4.8178      0.00000
     76       4.8178      0.00000
     77       4.8387      0.00000
     78       4.8387      0.00000
     79       5.2252      0.00000
     80       5.2252      0.00000
     81       5.9014      0.00000
     82       5.9015      0.00000
     83       6.0019      0.00000
     84       6.0021      0.00000
     85       6.0910      0.00000
     86       6.0914      0.00000
     87       6.7502      0.00000
     88       6.7751      0.00000


--------------------------------------------------------------------------------------------------------


 soft charge-density along one line, spin component           1
         0         1         2         3         4         5         6         7         8         9
 total charge-density along one line
 
 pseudopotential strength for first ion, spin component:           1
  2.182  -4.466  -0.000   0.003   0.001  -0.000   0.002   0.001
 -4.466  -2.808   0.000  -0.001   0.000  -0.000   0.001   0.000
 -0.000   0.000  -7.448  -0.000  -0.000   1.125  -0.000  -0.000
  0.003  -0.001  -0.000  -7.448  -0.001  -0.000   1.126  -0.002
  0.001   0.000  -0.000  -0.001  -7.448  -0.000  -0.002   1.126
 -0.000  -0.000   1.125  -0.000  -0.000   7.404  -0.000  -0.000
  0.002   0.001  -0.000   1.126  -0.002  -0.000   7.404  -0.000
  0.001   0.000  -0.000  -0.002   1.126  -0.000  -0.000   7.404
 -0.000   0.000   0.001  -0.000  -0.000   0.000  -0.000  -0.000
 -0.000   0.000   0.001  -0.000  -0.000   0.001  -0.000  -0.000
  0.000  -0.000   0.000   0.001  -0.000   0.000   0.001   0.000
 -0.001   0.000  -0.000   0.001   0.001  -0.000   0.001   0.001
  0.000  -0.000   0.000  -0.000   0.001   0.000  -0.000   0.001
  0.000   0.000  -0.000   0.000   0.000  -0.000   0.000   0.000
  0.000   0.000  -0.000   0.000   0.000  -0.000   0.000   0.000
 -0.000  -0.000  -0.000  -0.000  -0.000  -0.000  -0.000   0.000
  0.000   0.000   0.000  -0.000  -0.000   0.000  -0.000  -0.000
 -0.000  -0.000  -0.000   0.000  -0.000  -0.000   0.000  -0.000
 total augmentation occupancy for first ion, spin component:           1
  2.355  -0.912   0.000   0.000   0.000   0.000   0.000   0.000   0.000   0.000   0.000   0.000   0.000   0.000   0.000   0.000
 -0.912   2.345   0.000   0.000   0.000   0.000   0.000   0.000   0.000   0.000   0.000   0.000   0.000   0.000   0.000   0.000
  0.000   0.000   2.000   0.000   0.000   0.000   0.000   0.000   0.000   0.000   0.000   0.000   0.000   0.000   0.000   0.000
  0.000   0.000   0.000   2.000   0.000   0.000   0.000   0.000   0.000   0.000   0.000   0.000   0.000   0.000   0.000   0.000
  0.000   0.000   0.000   0.000   2.000   0.000   0.000   0.000   0.000   0.000   0.000   0.000   0.000   0.000   0.000   0.000
  0.000   0.000   0.000   0.000   0.000   0.000   0.000   0.000   0.000   0.000   0.000   0.000   0.000   0.000   0.000   0.000
  0.000   0.000   0.000   0.000   0.000   0.000   0.000   0.000   0.000   0.000   0.000   0.000   0.000   0.000   0.000   0.000
  0.000   0.000   0.000   0.000   0.000   0.000   0.000   0.000   0.000   0.000   0.000   0.000   0.000   0.000   0.000   0.000
  0.000   0.000   0.000   0.000   0.000   0.000   0.000   0.000   0.002   0.000   0.000   0.000   0.000   0.000   0.000   0.000
  0.000   0.000   0.000   0.000   0.000   0.000   0.000   0.000   0.000   0.002   0.000   0.000   0.000   0.000   0.000   0.000
  0.000   0.000   0.000   0.000   0.000   0.000   0.000   0.000   0.000   0.000   0.002   0.000   0.000   0.000   0.000   0.000
  0.000   0.000   0.000   0.000   0.000   0.000   0.000   0.000   0.000   0.000   0.000   0.002   0.000   0.000   0.000   0.000
  0.000   0.000   0.000   0.000   0.000   0.000   0.000   0.000   0.000   0.000   0.000   0.000   0.002   0.000   0.000   0.000
  0.000   0.000   0.000   0.000   0.000   0.000   0.000   0.000   0.000   0.000   0.000   0.000   0.000   0.000   0.000   0.000
  0.000   0.000   0.000   0.000   0.000   0.000   0.000   0.000   0.000   0.000   0.000   0.000   0.000   0.000   0.000   0.000
  0.000   0.000   0.000   0.000   0.000   0.000   0.000   0.000   0.000   0.000   0.000   0.000   0.000   0.000   0.000   0.000
  0.000   0.000   0.000   0.000   0.000   0.000   0.000   0.000   0.000   0.000   0.000   0.000   0.000   0.000   0.000   0.000
  0.000   0.000   0.000   0.000   0.000   0.000   0.000   0.000   0.000   0.000   0.000   0.000   0.000   0.000   0.000   0.000


------------------------ aborting loop because EDIFF is reached ----------------------------------------


    CHARGE:  cpu time    0.2516: real time    0.2521
    FORLOC:  cpu time    0.0039: real time    0.0039
    FORNL :  cpu time    1.4076: real time    1.4112
    STRESS:  cpu time    4.0754: real time    4.0853
    FORCOR:  cpu time    0.9390: real time    0.9412
    FORHAR:  cpu time    0.0077: real time    0.0077
    OFIELD:  cpu time    0.0001: real time    0.0001

  FORCE on cell =-STRESS in cart. coord.  units (eV):
  Direction    XX          YY          ZZ          XY          YZ          ZX
  --------------------------------------------------------------------------------------
  Alpha Z   466.78152   466.78152   466.78152
  Ewald   -2161.39154 -2147.30166 -2134.28631    -0.00000    -0.00000    -0.00014
  Hartree   293.85095   301.24064   304.55033     0.00000    -0.00000     0.00001
  E(xc)    -466.51602  -466.65344  -466.67527    -0.00000    -0.00000    -0.00000
  Local     135.85668   122.67902   105.40382     0.00000     0.00000     0.00009
  n-local   336.01843   340.29081   339.94646     0.00001    -0.00001     0.00001
  augment  -167.45509  -167.18069  -167.47694     0.00000    -0.00000     0.00000
  Kinetic  1553.36341  1549.19143  1554.75112    -0.00001     0.00000     0.00000
  Fock        0.00000     0.00000     0.00000     0.00000     0.00000     0.00000
  -------------------------------------------------------------------------------------
  Total      -9.49167    -0.95239     2.99474     0.00000     0.00000     0.00000
  in kB     -22.05656    -2.21314     6.95912     0.00000     0.00000     0.00000
  external pressure =       -5.77 kB  Pullay stress =        0.00 kB


 VOLUME and BASIS-vectors are now :
 -----------------------------------------------------------------------------
  energy-cutoff  :      500.00
  volume of cell :      689.47
      direct lattice vectors                 reciprocal lattice vectors
     8.908260505  0.000000000  0.000000000     0.112255361  0.000000000  0.000000000
     0.000000000  6.726861978  0.000000000     0.000000000  0.148657725  0.000000000
     0.000000000  0.000000000 11.505612668     0.000000000  0.000000000  0.086914103

  length of vectors
     8.908260505  6.726861978 11.505612668     0.112255361  0.148657725  0.086914103


 FORCES acting on ions
    electron-ion (+dipol)            ewald-force                    non-local-force                 convergence-correction
 -----------------------------------------------------------------------------------------------
   0.275E+01 0.804E-04 0.192E+01   -.316E+01 0.141E-04 -.196E+01   0.323E+00 -.670E-22 0.405E+00   0.322E-01 -.123E-04 -.285E+00
   -.275E+01 0.869E-05 -.192E+01   0.316E+01 -.201E-04 0.196E+01   -.323E+00 0.112E-21 -.405E+00   -.322E-01 0.426E-04 0.285E+00
   -.275E+01 0.450E-05 0.192E+01   0.316E+01 -.201E-04 -.196E+01   -.323E+00 0.179E-21 0.405E+00   -.322E-01 0.426E-04 -.285E+00
   0.275E+01 0.762E-04 -.192E+01   -.316E+01 0.141E-04 0.196E+01   0.323E+00 -.164E-21 -.405E+00   0.322E-01 -.123E-04 0.285E+00
   -.217E+02 0.747E-05 -.541E+01   0.211E+02 -.179E-04 0.561E+01   0.715E+00 0.165E-21 -.946E-01   -.209E-01 0.407E-04 -.144E+00
   0.217E+02 0.792E-04 0.541E+01   -.211E+02 0.172E-04 -.561E+01   -.715E+00 0.776E-23 0.946E-01   0.209E-01 -.150E-04 0.144E+00
   0.217E+02 0.770E-04 -.541E+01   -.211E+02 0.172E-04 0.561E+01   -.715E+00 -.538E-22 -.946E-01   0.209E-01 -.149E-04 -.144E+00
   -.217E+02 0.528E-05 0.541E+01   0.211E+02 -.179E-04 -.561E+01   0.715E+00 -.272E-22 0.946E-01   -.209E-01 0.408E-04 0.144E+00
   0.100E+02 0.306E+02 -.167E+02   -.108E+02 -.318E+02 0.176E+02   0.488E+00 0.117E+01 -.901E+00   0.212E+00 -.431E-02 0.126E-01
   -.100E+02 -.306E+02 0.167E+02   0.108E+02 0.318E+02 -.176E+02   -.488E+00 -.117E+01 0.901E+00   -.212E+00 0.430E-02 -.127E-01
   -.100E+02 -.306E+02 -.167E+02   0.108E+02 0.318E+02 0.176E+02   -.488E+00 -.117E+01 -.901E+00   -.212E+00 0.431E-02 0.127E-01
   0.100E+02 0.306E+02 0.167E+02   -.108E+02 -.318E+02 -.176E+02   0.488E+00 0.117E+01 0.901E+00   0.212E+00 -.430E-02 -.127E-01
   -.100E+02 0.306E+02 0.167E+02   0.108E+02 -.318E+02 -.176E+02   -.488E+00 0.117E+01 0.901E+00   -.212E+00 -.430E-02 -.127E-01
   0.100E+02 -.306E+02 -.167E+02   -.108E+02 0.318E+02 0.176E+02   0.488E+00 -.117E+01 -.901E+00   0.212E+00 0.430E-02 0.126E-01
   0.100E+02 -.306E+02 0.167E+02   -.108E+02 0.318E+02 -.176E+02   0.488E+00 -.117E+01 0.901E+00   0.212E+00 0.429E-02 -.127E-01
   -.100E+02 0.306E+02 -.167E+02   0.108E+02 -.318E+02 0.176E+02   -.488E+00 0.117E+01 -.901E+00   -.212E+00 -.431E-02 0.127E-01
   0.437E+02 -.121E-04 0.742E+00   -.448E+02 -.786E-05 -.142E+01   0.106E+01 0.471E-22 0.729E+00   -.611E-01 0.742E-05 -.748E-01
   -.437E+02 -.762E-06 -.742E+00   0.448E+02 0.815E-05 0.142E+01   -.106E+01 0.451E-22 -.729E+00   0.611E-01 -.712E-05 0.748E-01
   -.437E+02 0.741E-05 0.742E+00   0.448E+02 0.815E-05 -.142E+01   -.106E+01 0.960E-23 0.729E+00   0.611E-01 -.710E-05 -.749E-01
   0.437E+02 -.391E-05 -.742E+00   -.448E+02 -.786E-05 0.142E+01   0.106E+01 -.164E-21 -.729E+00   -.611E-01 0.744E-05 0.748E-01
   0.771E+01 -.431E-05 0.349E+02   -.788E+01 0.875E-05 -.362E+02   -.311E-01 0.311E-22 0.155E+01   0.215E+00 -.731E-05 -.957E-01
   -.771E+01 -.151E-04 -.349E+02   0.788E+01 -.914E-05 0.362E+02   0.311E-01 -.514E-22 -.155E+01   -.215E+00 0.791E-05 0.957E-01
   -.771E+01 -.126E-05 0.349E+02   0.788E+01 -.914E-05 -.362E+02   0.311E-01 -.791E-22 0.155E+01   -.215E+00 0.789E-05 -.957E-01
   0.771E+01 0.949E-05 -.349E+02   -.788E+01 0.875E-05 0.362E+02   -.311E-01 0.148E-22 -.155E+01   0.215E+00 -.733E-05 0.957E-01
 -----------------------------------------------------------------------------------------------
   -.273E-03 0.394E-03 0.607E-04   -.231E-13 -.441E-13 -.711E-14   0.000E+00 -.222E-15 0.222E-15   0.457E-05 0.107E-03 -.244E-05
 
 
 POSITION                                       TOTAL-FORCE (eV/Angst)
 -----------------------------------------------------------------------------------
      0.13687      1.68172      7.96340        -0.051397      0.000000      0.083660
      8.77139      5.04515      3.54221         0.051397      0.000000     -0.083660
      4.31726      5.04515      2.21059         0.051397     -0.000000      0.083660
      4.59100      1.68172      9.29502        -0.051397     -0.000000     -0.083660
      1.43158      5.04515     10.42987         0.076558      0.000000     -0.035554
      7.47668      1.68172      1.07574        -0.076558     -0.000000      0.035554
      3.02255      1.68172      4.67706        -0.076558      0.000000     -0.035554
      5.88571      5.04515      6.82855         0.076558     -0.000000      0.035554
      1.72337      0.47763      1.68413        -0.082280     -0.014643     -0.042074
      7.18489      6.24923      9.82149         0.082280      0.014643      0.042074
      2.73076      6.24923      7.43693         0.082280      0.014643     -0.042074
      6.17750      0.47763      4.06868        -0.082280     -0.014643      0.042074
      7.18489      3.84106      9.82149         0.082280     -0.014643      0.042074
      1.72337      2.88580      1.68413        -0.082280      0.014643     -0.042074
      6.17750      2.88580      4.06868        -0.082280      0.014643      0.042074
      2.73076      3.84106      7.43693         0.082280     -0.014643     -0.042074
      0.72396      5.04515      6.79944        -0.075192     -0.000000     -0.022196
      8.18430      1.68172      4.70617         0.075192      0.000000      0.022196
      3.73017      1.68172      1.04664         0.075192     -0.000000     -0.022196
      5.17809      5.04515     10.45898        -0.075192      0.000000      0.022196
      1.74956      1.68172     11.10205         0.021612     -0.000000      0.079405
      7.15870      5.04515      0.40356        -0.021612      0.000000     -0.079405
      2.70457      5.04515      5.34924        -0.021612      0.000000      0.079405
      6.20369      1.68172      6.15637         0.021612      0.000000     -0.079405
 -----------------------------------------------------------------------------------
    total drift:                               -0.000269      0.000501      0.000058


--------------------------------------------------------------------------------------------------------



  FREE ENERGIE OF THE ION-ELECTRON SYSTEM (eV)
  ---------------------------------------------------
  free  energy   TOTEN  =       -98.62543196 eV

  energy  without entropy=      -98.62543196  energy(sigma->0) =      -98.62543196
 


--------------------------------------------------------------------------------------------------------


    POTLOK:  cpu time    0.9781: real time    0.9804


--------------------------------------------------------------------------------------------------------


 writing wavefunctions
     LOOP+:  cpu time  101.0768: real time  105.7009
    4ORBIT:  cpu time    0.0000: real time    0.0000

 total amount of memory used by VASP MPI-rank0   117595. kBytes
=======================================================================

   base      :      30000. kBytes
   nonlr-proj:       2650. kBytes
   fftplans  :       2346. kBytes
   grid      :       3658. kBytes
   one-center:         93. kBytes
   wavefun   :      78848. kBytes
 
  
  
 General timing and accounting informations for this job:
 ========================================================
  
                  Total CPU time used (sec):      116.553
                            User time (sec):      114.085
                          System time (sec):        2.469
                         Elapsed time (sec):      125.199
  
                   Maximum memory used (kb):      314880.
                   Average memory used (kb):           0.
  
                          Minor page faults:        25912
                          Major page faults:          287
                 Voluntary context switches:        19586
