<?xml version="1.0" encoding="ISO-8859-1"?>
<modeling>
 <generator>
  <i name="program" type="string">vasp </i>
  <i name="version" type="string">5.4.4.18Apr17-6-g9f103f2a35  </i>
  <i name="subversion" type="string">(build Nov 21 2017 15:30:27) complex            parallel </i>
  <i name="platform" type="string">LinuxIFC </i>
  <i name="date" type="string">2020 11 22 </i>
  <i name="time" type="string">09:57:08 </i>
 </generator>
 <incar>
  <i type="string" name="PREC">normal</i>
  <i type="int" name="ICHARG">    11</i>
  <i type="int" name="NELM">   100</i>
  <i name="EDIFF">      0.00000100</i>
  <i name="EDIFFG">     -0.01000000</i>
  <i name="ENCUT">    500.00000000</i>
  <i name="POTIM">      0.30000000</i>
  <i type="string" name="LREAL"> Auto       ! Projection in reciprocal s</i>
  <i type="int" name="ISMEAR">     0</i>
  <i name="SIGMA">      0.01000000</i>
  <i type="logical" name="LWAVE"> T  </i>
  <i type="logical" name="LCHARG"> T  </i>
  <i type="logical" name="LASPH"> T  </i>
  <v type="int" name="KPOINT_BSE">    -1     0     0     0</v>
  <i type="int" name="NELM">   100</i>
  <i type="string" name="GGA"> MK</i>
  <i name="PARAM1">      0.12340000</i>
  <i name="PARAM2">      0.71135700</i>
  <i type="logical" name="LUSE_VDW"> T  </i>
  <i name="Zab_VDW">     -1.88670000</i>
  <i name="AGGAC">      0.00000000</i>
  <i type="logical" name="LASPH"> T  </i>
 </incar>
 <structure name="primitive_cell" >
  <crystal>
   <varray name="basis" >
    <v>       8.90826050       0.00000000       0.00000000 </v>
    <v>       0.00000000       6.72686198       0.00000000 </v>
    <v>       0.00000000       0.00000000      11.50561267 </v>
   </varray>
   <i name="volume">    689.46968423 </i>
   <varray name="rec_basis" >
    <v>       0.11225536       0.00000000       0.00000000 </v>
    <v>       0.00000000       0.14865773       0.00000000 </v>
    <v>       0.00000000       0.00000000       0.08691410 </v>
   </varray>
  </crystal>
  <varray name="positions" >
   <v>       0.01536406       0.25000000      -0.30786814 </v>
   <v>      -0.30360225       0.25000000      -0.46492478 </v>
   <v>      -0.08126803       0.25000000       0.40903255 </v>
   <v>      -0.19345800      -0.42899609      -0.14637426 </v>
   <v>      -0.19345800      -0.07100391      -0.14637426 </v>
   <v>       0.30654200      -0.42899609      -0.35362574 </v>
   <v>       0.30654200      -0.07100391      -0.35362574 </v>
   <v>       0.19639773       0.25000000      -0.03507522 </v>
   <v>       0.08126801      -0.24999998      -0.40903255 </v>
   <v>       0.16070224      -0.24999998      -0.09349718 </v>
   <v>       0.33929776       0.25000000       0.40650290 </v>
   <v>      -0.48463594       0.25000000      -0.19213182 </v>
   <v>      -0.33929776      -0.24999998      -0.40650286 </v>
   <v>      -0.16070224       0.25000000       0.09349716 </v>
   <v>       0.30360225      -0.24999998       0.46492469 </v>
   <v>      -0.30654200       0.42899609       0.35362574 </v>
   <v>      -0.30654200       0.07100390       0.35362574 </v>
   <v>      -0.19639775      -0.24999998       0.03507524 </v>
   <v>      -0.01536406      -0.24999998       0.30786814 </v>
   <v>       0.19345800       0.42899609       0.14637424 </v>
   <v>       0.19345800       0.07100390       0.14637424 </v>
   <v>      -0.41873197      -0.24999998      -0.09096740 </v>
   <v>       0.41873200       0.25000000       0.09096738 </v>
   <v>       0.48463594      -0.24999998       0.19213180 </v>
  </varray>
 </structure>
 <varray name="primitive_index" >
  <v type="int" >        1 </v>
  <v type="int" >       24 </v>
  <v type="int" >       18 </v>
  <v type="int" >       13 </v>
  <v type="int" >       10 </v>
  <v type="int" >       16 </v>
  <v type="int" >       11 </v>
  <v type="int" >       21 </v>
  <v type="int" >       17 </v>
  <v type="int" >        5 </v>
  <v type="int" >        7 </v>
  <v type="int" >        4 </v>
  <v type="int" >        8 </v>
  <v type="int" >        6 </v>
  <v type="int" >       23 </v>
  <v type="int" >       15 </v>
  <v type="int" >       12 </v>
  <v type="int" >       22 </v>
  <v type="int" >        2 </v>
  <v type="int" >       14 </v>
  <v type="int" >        9 </v>
  <v type="int" >       20 </v>
  <v type="int" >       19 </v>
  <v type="int" >        3 </v>
 </varray>
 <kpoints>
  <generation param="listgenerated">
   <i name="divisions" type="int">      20 </i>
   <v>       0.00000000       0.00000000       0.00000000 </v>
   <v>       0.00000000       0.50000000       0.00000000 </v>
   <v>       0.00000000       0.50000000       0.50000000 </v>
   <v>       0.00000000       0.00000000       0.50000000 </v>
   <v>       0.00000000       0.00000000       0.00000000 </v>
   <v>       0.50000000       0.00000000       0.00000000 </v>
  </generation>
  <varray name="kpointlist" >
   <v>       0.00000000       0.00000000       0.00000000 </v>
   <v>       0.00000000       0.02631579       0.00000000 </v>
   <v>       0.00000000       0.05263158       0.00000000 </v>
   <v>       0.00000000       0.07894737       0.00000000 </v>
   <v>       0.00000000       0.10526316       0.00000000 </v>
   <v>       0.00000000       0.13157895       0.00000000 </v>
   <v>       0.00000000       0.15789474       0.00000000 </v>
   <v>       0.00000000       0.18421053       0.00000000 </v>
   <v>       0.00000000       0.21052632       0.00000000 </v>
   <v>       0.00000000       0.23684211       0.00000000 </v>
   <v>       0.00000000       0.26315789       0.00000000 </v>
   <v>       0.00000000       0.28947368       0.00000000 </v>
   <v>       0.00000000       0.31578947       0.00000000 </v>
   <v>       0.00000000       0.34210526       0.00000000 </v>
   <v>       0.00000000       0.36842105       0.00000000 </v>
   <v>       0.00000000       0.39473684       0.00000000 </v>
   <v>       0.00000000       0.42105263       0.00000000 </v>
   <v>       0.00000000       0.44736842       0.00000000 </v>
   <v>       0.00000000       0.47368421       0.00000000 </v>
   <v>       0.00000000       0.50000000       0.00000000 </v>
   <v>       0.00000000       0.50000000       0.00000000 </v>
   <v>       0.00000000       0.50000000       0.02631579 </v>
   <v>       0.00000000       0.50000000       0.05263158 </v>
   <v>       0.00000000       0.50000000       0.07894737 </v>
   <v>       0.00000000       0.50000000       0.10526316 </v>
   <v>       0.00000000       0.50000000       0.13157895 </v>
   <v>       0.00000000       0.50000000       0.15789474 </v>
   <v>       0.00000000       0.50000000       0.18421053 </v>
   <v>       0.00000000       0.50000000       0.21052632 </v>
   <v>       0.00000000       0.50000000       0.23684211 </v>
   <v>       0.00000000       0.50000000       0.26315789 </v>
   <v>       0.00000000       0.50000000       0.28947368 </v>
   <v>       0.00000000       0.50000000       0.31578947 </v>
   <v>       0.00000000       0.50000000       0.34210526 </v>
   <v>       0.00000000       0.50000000       0.36842105 </v>
   <v>       0.00000000       0.50000000       0.39473684 </v>
   <v>       0.00000000       0.50000000       0.42105263 </v>
   <v>       0.00000000       0.50000000       0.44736842 </v>
   <v>       0.00000000       0.50000000       0.47368421 </v>
   <v>       0.00000000       0.50000000       0.50000000 </v>
   <v>       0.00000000       0.50000000       0.50000000 </v>
   <v>       0.00000000       0.47368421       0.50000000 </v>
   <v>       0.00000000       0.44736842       0.50000000 </v>
   <v>       0.00000000       0.42105263       0.50000000 </v>
   <v>       0.00000000       0.39473684       0.50000000 </v>
   <v>       0.00000000       0.36842105       0.50000000 </v>
   <v>       0.00000000       0.34210526       0.50000000 </v>
   <v>       0.00000000       0.31578947       0.50000000 </v>
   <v>       0.00000000       0.28947368       0.50000000 </v>
   <v>       0.00000000       0.26315789       0.50000000 </v>
   <v>       0.00000000       0.23684211       0.50000000 </v>
   <v>       0.00000000       0.21052632       0.50000000 </v>
   <v>       0.00000000       0.18421053       0.50000000 </v>
   <v>       0.00000000       0.15789474       0.50000000 </v>
   <v>       0.00000000       0.13157895       0.50000000 </v>
   <v>       0.00000000       0.10526316       0.50000000 </v>
   <v>       0.00000000       0.07894737       0.50000000 </v>
   <v>       0.00000000       0.05263158       0.50000000 </v>
   <v>       0.00000000       0.02631579       0.50000000 </v>
   <v>       0.00000000       0.00000000       0.50000000 </v>
   <v>       0.00000000       0.00000000       0.50000000 </v>
   <v>       0.00000000       0.00000000       0.47368421 </v>
   <v>       0.00000000       0.00000000       0.44736842 </v>
   <v>       0.00000000       0.00000000       0.42105263 </v>
   <v>       0.00000000       0.00000000       0.39473684 </v>
   <v>       0.00000000       0.00000000       0.36842105 </v>
   <v>       0.00000000       0.00000000       0.34210526 </v>
   <v>       0.00000000       0.00000000       0.31578947 </v>
   <v>       0.00000000       0.00000000       0.28947368 </v>
   <v>       0.00000000       0.00000000       0.26315789 </v>
   <v>       0.00000000       0.00000000       0.23684211 </v>
   <v>       0.00000000       0.00000000       0.21052632 </v>
   <v>       0.00000000       0.00000000       0.18421053 </v>
   <v>       0.00000000       0.00000000       0.15789474 </v>
   <v>       0.00000000       0.00000000       0.13157895 </v>
   <v>       0.00000000       0.00000000       0.10526316 </v>
   <v>       0.00000000       0.00000000       0.07894737 </v>
   <v>       0.00000000       0.00000000       0.05263158 </v>
   <v>       0.00000000       0.00000000       0.02631579 </v>
   <v>       0.00000000       0.00000000       0.00000000 </v>
   <v>       0.00000000       0.00000000       0.00000000 </v>
   <v>       0.02631579       0.00000000       0.00000000 </v>
   <v>       0.05263158       0.00000000       0.00000000 </v>
   <v>       0.07894737       0.00000000       0.00000000 </v>
   <v>       0.10526316       0.00000000       0.00000000 </v>
   <v>       0.13157895       0.00000000       0.00000000 </v>
   <v>       0.15789474       0.00000000       0.00000000 </v>
   <v>       0.18421053       0.00000000       0.00000000 </v>
   <v>       0.21052632       0.00000000       0.00000000 </v>
   <v>       0.23684211       0.00000000       0.00000000 </v>
   <v>       0.26315789       0.00000000       0.00000000 </v>
   <v>       0.28947368       0.00000000       0.00000000 </v>
   <v>       0.31578947       0.00000000       0.00000000 </v>
   <v>       0.34210526       0.00000000       0.00000000 </v>
   <v>       0.36842105       0.00000000       0.00000000 </v>
   <v>       0.39473684       0.00000000       0.00000000 </v>
   <v>       0.42105263       0.00000000       0.00000000 </v>
   <v>       0.44736842       0.00000000       0.00000000 </v>
   <v>       0.47368421       0.00000000       0.00000000 </v>
   <v>       0.50000000       0.00000000       0.00000000 </v>
  </varray>
  <varray name="weights" >
   <v>       0.01000000 </v>
   <v>       0.01000000 </v>
   <v>       0.01000000 </v>
   <v>       0.01000000 </v>
   <v>       0.01000000 </v>
   <v>       0.01000000 </v>
   <v>       0.01000000 </v>
   <v>       0.01000000 </v>
   <v>       0.01000000 </v>
   <v>       0.01000000 </v>
   <v>       0.01000000 </v>
   <v>       0.01000000 </v>
   <v>       0.01000000 </v>
   <v>       0.01000000 </v>
   <v>       0.01000000 </v>
   <v>       0.01000000 </v>
   <v>       0.01000000 </v>
   <v>       0.01000000 </v>
   <v>       0.01000000 </v>
   <v>       0.01000000 </v>
   <v>       0.01000000 </v>
   <v>       0.01000000 </v>
   <v>       0.01000000 </v>
   <v>       0.01000000 </v>
   <v>       0.01000000 </v>
   <v>       0.01000000 </v>
   <v>       0.01000000 </v>
   <v>       0.01000000 </v>
   <v>       0.01000000 </v>
   <v>       0.01000000 </v>
   <v>       0.01000000 </v>
   <v>       0.01000000 </v>
   <v>       0.01000000 </v>
   <v>       0.01000000 </v>
   <v>       0.01000000 </v>
   <v>       0.01000000 </v>
   <v>       0.01000000 </v>
   <v>       0.01000000 </v>
   <v>       0.01000000 </v>
   <v>       0.01000000 </v>
   <v>       0.01000000 </v>
   <v>       0.01000000 </v>
   <v>       0.01000000 </v>
   <v>       0.01000000 </v>
   <v>       0.01000000 </v>
   <v>       0.01000000 </v>
   <v>       0.01000000 </v>
   <v>       0.01000000 </v>
   <v>       0.01000000 </v>
   <v>       0.01000000 </v>
   <v>       0.01000000 </v>
   <v>       0.01000000 </v>
   <v>       0.01000000 </v>
   <v>       0.01000000 </v>
   <v>       0.01000000 </v>
   <v>       0.01000000 </v>
   <v>       0.01000000 </v>
   <v>       0.01000000 </v>
   <v>       0.01000000 </v>
   <v>       0.01000000 </v>
   <v>       0.01000000 </v>
   <v>       0.01000000 </v>
   <v>       0.01000000 </v>
   <v>       0.01000000 </v>
   <v>       0.01000000 </v>
   <v>       0.01000000 </v>
   <v>       0.01000000 </v>
   <v>       0.01000000 </v>
   <v>       0.01000000 </v>
   <v>       0.01000000 </v>
   <v>       0.01000000 </v>
   <v>       0.01000000 </v>
   <v>       0.01000000 </v>
   <v>       0.01000000 </v>
   <v>       0.01000000 </v>
   <v>       0.01000000 </v>
   <v>       0.01000000 </v>
   <v>       0.01000000 </v>
   <v>       0.01000000 </v>
   <v>       0.01000000 </v>
   <v>       0.01000000 </v>
   <v>       0.01000000 </v>
   <v>       0.01000000 </v>
   <v>       0.01000000 </v>
   <v>       0.01000000 </v>
   <v>       0.01000000 </v>
   <v>       0.01000000 </v>
   <v>       0.01000000 </v>
   <v>       0.01000000 </v>
   <v>       0.01000000 </v>
   <v>       0.01000000 </v>
   <v>       0.01000000 </v>
   <v>       0.01000000 </v>
   <v>       0.01000000 </v>
   <v>       0.01000000 </v>
   <v>       0.01000000 </v>
   <v>       0.01000000 </v>
   <v>       0.01000000 </v>
   <v>       0.01000000 </v>
   <v>       0.01000000 </v>
  </varray>
 </kpoints>
 <parameters>
  <separator name="general" >
   <i type="string" name="SYSTEM">unknown system</i>
   <i type="logical" name="LCOMPAT"> F  </i>
  </separator>
  <separator name="electronic" >
   <i type="string" name="PREC">normal</i>
   <i name="ENMAX">    500.00000000</i>
   <i name="ENAUG">    351.16500000</i>
   <i name="EDIFF">      0.00000100</i>
   <i type="int" name="IALGO">    38</i>
   <i type="int" name="IWAVPR">    10</i>
   <i type="int" name="NBANDS">    88</i>
   <i name="NELECT">    144.00000000</i>
   <i type="int" name="TURBO">     0</i>
   <i type="int" name="IRESTART">     0</i>
   <i type="int" name="NREBOOT">     0</i>
   <i type="int" name="NMIN">     0</i>
   <i name="EREF">      0.00000000</i>
   <separator name="electronic smearing" >
    <i type="int" name="ISMEAR">     0</i>
    <i name="SIGMA">      0.01000000</i>
    <i name="KSPACING">      0.50000000</i>
    <i type="logical" name="KGAMMA"> T  </i>
   </separator>
   <separator name="electronic projectors" >
    <i type="logical" name="LREAL"> T  </i>
    <v name="ROPT">     -0.00050000     -0.00050000</v>
    <i type="int" name="LMAXPAW">  -100</i>
    <i type="int" name="LMAXMIX">     2</i>
    <i type="logical" name="NLSPLINE"> F  </i>
   </separator>
   <separator name="electronic startup" >
    <i type="int" name="ISTART">     0</i>
    <i type="int" name="ICHARG">    11</i>
    <i type="int" name="INIWAV">     1</i>
   </separator>
   <separator name="electronic spin" >
    <i type="int" name="ISPIN">     1</i>
    <i type="logical" name="LNONCOLLINEAR"> F  </i>
    <v name="MAGMOM">      1.00000000      1.00000000      1.00000000      1.00000000      1.00000000      1.00000000      1.00000000      1.00000000      1.00000000      1.00000000      1.00000000      1.00000000      1.00000000      1.00000000      1.00000000      1.00000000      1.00000000      1.00000000      1.00000000      1.00000000
      1.00000000      1.00000000      1.00000000      1.00000000</v>
    <i name="NUPDOWN">     -1.00000000</i>
    <i type="logical" name="LSORBIT"> F  </i>
    <v name="SAXIS">      0.00000000      0.00000000      1.00000000</v>
    <i type="logical" name="LSPIRAL"> F  </i>
    <v name="QSPIRAL">      0.00000000      0.00000000      0.00000000</v>
    <i type="logical" name="LZEROZ"> F  </i>
   </separator>
   <separator name="electronic exchange-correlation" >
    <i type="logical" name="LASPH"> T  </i>
    <i type="logical" name="LMETAGGA"> F  </i>
   </separator>
   <separator name="electronic convergence" >
    <i type="int" name="NELM">   100</i>
    <i type="int" name="NELMDL">    -5</i>
    <i type="int" name="NELMIN">     2</i>
    <i name="ENINI">    500.00000000</i>
    <separator name="electronic convergence detail" >
     <i type="logical" name="LDIAG"> T  </i>
     <i type="logical" name="LSUBROT"> F  </i>
     <i name="WEIMIN">      0.00000000</i>
     <i name="EBREAK">      0.00000000</i>
     <i name="DEPER">      0.30000000</i>
     <i type="int" name="NRMM">     4</i>
     <i name="TIME">      0.40000000</i>
    </separator>
   </separator>
   <separator name="electronic mixer" >
    <i name="AMIX">      0.40000000</i>
    <i name="BMIX">      1.00000000</i>
    <i name="AMIN">      0.10000000</i>
    <i name="AMIX_MAG">      1.60000000</i>
    <i name="BMIX_MAG">      1.00000000</i>
    <separator name="electronic mixer details" >
     <i type="int" name="IMIX">     4</i>
     <i type="logical" name="MIXFIRST"> F  </i>
     <i type="int" name="MAXMIX">   -45</i>
     <i name="WC">    100.00000000</i>
     <i type="int" name="INIMIX">     1</i>
     <i type="int" name="MIXPRE">     1</i>
     <i type="int" name="MREMOVE">     5</i>
    </separator>
   </separator>
   <separator name="electronic dipolcorrection" >
    <i type="logical" name="LDIPOL"> F  </i>
    <i type="logical" name="LMONO"> F  </i>
    <i type="int" name="IDIPOL">     0</i>
    <i name="EPSILON">      1.00000000</i>
    <v name="DIPOL">   -100.00000000   -100.00000000   -100.00000000</v>
    <i name="EFIELD">      0.00000000</i>
   </separator>
  </separator>
  <separator name="grids" >
   <i type="int" name="NGX">    50</i>
   <i type="int" name="NGY">    40</i>
   <i type="int" name="NGZ">    64</i>
   <i type="int" name="NGXF">   100</i>
   <i type="int" name="NGYF">    80</i>
   <i type="int" name="NGZF">   128</i>
   <i type="logical" name="ADDGRID"> F  </i>
  </separator>
  <separator name="ionic" >
   <i type="int" name="NSW">     0</i>
   <i type="int" name="IBRION">    -1</i>
   <i type="int" name="MDALGO">     0</i>
   <i type="int" name="ISIF">     2</i>
   <i name="PSTRESS">      0.00000000</i>
   <i name="EDIFFG">     -0.01000000</i>
   <i type="int" name="NFREE">     0</i>
   <i name="POTIM">      0.30000000</i>
   <i name="SMASS">     -3.00000000</i>
   <i name="SCALEE">      1.00000000</i>
  </separator>
  <separator name="ionic md" >
   <i name="TEBEG">      0.00010000</i>
   <i name="TEEND">      0.00010000</i>
   <i type="int" name="NBLOCK">     1</i>
   <i type="int" name="KBLOCK">     1</i>
   <i type="int" name="NPACO">   256</i>
   <i name="APACO">     16.00000000</i>
  </separator>
  <separator name="symmetry" >
   <i type="int" name="ISYM">     2</i>
   <i name="SYMPREC">      0.00001000</i>
  </separator>
  <separator name="dos" >
   <i type="int" name="LORBIT">     0</i>
   <v name="RWIGS">     -1.00000000     -1.00000000</v>
   <i type="int" name="NEDOS">   301</i>
   <i name="EMIN">     10.00000000</i>
   <i name="EMAX">    -10.00000000</i>
   <i name="EFERMI">      0.00000000</i>
  </separator>
  <separator name="writing" >
   <i type="int" name="NWRITE">     2</i>
   <i type="logical" name="LWAVE"> T  </i>
   <i type="logical" name="LDOWNSAMPLE"> F  </i>
   <i type="logical" name="LCHARG"> T  </i>
   <i type="logical" name="LPARD"> F  </i>
   <i type="logical" name="LVTOT"> F  </i>
   <i type="logical" name="LVHAR"> F  </i>
   <i type="logical" name="LELF"> F  </i>
   <i type="logical" name="LOPTICS"> F  </i>
   <v name="STM">      0.00000000      0.00000000      0.00000000      0.00000000      0.00000000      0.00000000      0.00000000</v>
  </separator>
  <separator name="performance" >
   <i type="int" name="NPAR">     8</i>
   <i type="int" name="NSIM">     4</i>
   <i type="int" name="NBLK">    -1</i>
   <i type="logical" name="LPLANE"> T  </i>
   <i type="logical" name="LSCALAPACK"> T  </i>
   <i type="logical" name="LSCAAWARE"> F  </i>
   <i type="logical" name="LSCALU"> F  </i>
   <i type="logical" name="LASYNC"> F  </i>
   <i type="logical" name="LORBITALREAL"> F  </i>
  </separator>
  <separator name="miscellaneous" >
   <i type="int" name="IDIOT">     3</i>
   <i type="int" name="ISPECIAL">     0</i>
   <i type="logical" name="LMUSIC"> F  </i>
   <v name="POMASS">    137.32700000     28.08500000</v>
   <v name="DARWINR">      0.00000000      0.00000000</v>
   <v name="DARWINV">      1.00000000      1.00000000</v>
   <i type="logical" name="LCORR"> T  </i>
  </separator>
  <i type="logical" name="GGA_COMPAT"> T  </i>
  <i type="logical" name="LBERRY"> F  </i>
  <i type="int" name="ICORELEVEL">     0</i>
  <i type="logical" name="LDAU"> F  </i>
  <i type="int" name="I_CONSTRAINED_M">     0</i>
  <separator name="electronic exchange-correlation" >
   <i type="string" name="GGA">MK</i>
   <i type="int" name="VOSKOWN">     0</i>
   <i type="logical" name="LHFCALC"> F  </i>
   <i type="string" name="PRECFOCK"></i>
   <i type="logical" name="LSYMGRAD"> F  </i>
   <i type="logical" name="LHFONE"> F  </i>
   <i type="logical" name="LRHFCALC"> F  </i>
   <i type="logical" name="LTHOMAS"> F  </i>
   <i type="logical" name="LMODELHF"> F  </i>
   <i name="ENCUT4O">     -1.00000000</i>
   <i type="int" name="EXXOEP">     0</i>
   <i type="int" name="FOURORBIT">     0</i>
   <i name="AEXX">      0.00000000</i>
   <i name="HFALPHA">      0.00000000</i>
   <i name="MCALPHA">      0.00000000</i>
   <i name="ALDAX">      1.00000000</i>
   <i name="AGGAX">      1.00000000</i>
   <i name="ALDAC">      1.00000000</i>
   <i name="AGGAC">      0.00000000</i>
   <i type="int" name="NKREDX">     1</i>
   <i type="int" name="NKREDY">     1</i>
   <i type="int" name="NKREDZ">     1</i>
   <i type="logical" name="SHIFTRED"> F  </i>
   <i type="logical" name="ODDONLY"> F  </i>
   <i type="logical" name="EVENONLY"> F  </i>
   <i type="int" name="LMAXFOCK">     0</i>
   <i type="int" name="NMAXFOCKAE">     0</i>
   <i type="logical" name="LFOCKAEDFT"> F  </i>
   <i name="HFSCREEN">      0.00000000</i>
   <i name="HFSCREENC">      0.00000000</i>
   <i type="int" name="NBANDSGWLOW">     0</i>
  </separator>
  <separator name="vdW DFT" >
   <i type="logical" name="LUSE_VDW"> T  </i>
   <i name="Zab_VDW">     -1.88670000</i>
   <i name="PARAM1">      0.12340000</i>
   <i name="PARAM2">      0.71135700</i>
   <i name="PARAM3">      0.00000000</i>
  </separator>
  <separator name="model GW" >
   <i type="int" name="MODEL_GW">     0</i>
   <i name="MODEL_EPS0">     17.23674211</i>
   <i name="MODEL_ALPHA">      1.00000000</i>
  </separator>
  <separator name="linear response parameters" >
   <i type="logical" name="LEPSILON"> F  </i>
   <i type="logical" name="LRPA"> F  </i>
   <i type="logical" name="LNABLA"> F  </i>
   <i type="logical" name="LVEL"> F  </i>
   <i type="int" name="KINTER">     0</i>
   <i name="CSHIFT">      0.10000000</i>
   <i name="OMEGAMAX">     -1.00000000</i>
   <i name="DEG_THRESHOLD">      0.00200000</i>
   <i name="RTIME">     -0.10000000</i>
   <i name="WPLASMAI">      0.00000000</i>
   <v name="DFIELD">      0.00000000      0.00000000      0.00000000</v>
   <v name="WPLASMA">      0.00000000      0.00000000      0.00000000      0.00000000      0.00000000      0.00000000      0.00000000      0.00000000      0.00000000</v>
  </separator>
  <separator name="orbital magnetization" >
   <i type="logical" name="NUCIND"> F  </i>
   <v name="MAGPOS">      0.00000000      0.00000000      0.00000000</v>
   <i type="logical" name="LNICSALL"> T  </i>
   <i type="logical" name="ORBITALMAG"> F  </i>
   <i type="logical" name="LMAGBLOCH"> F  </i>
   <i type="logical" name="LCHIMAG"> F  </i>
   <i type="logical" name="LGAUGE"> T  </i>
   <i type="int" name="MAGATOM">     0</i>
   <v name="MAGDIPOL">      0.00000000      0.00000000      0.00000000</v>
   <v name="AVECCONST">      0.00000000      0.00000000      0.00000000</v>
  </separator>
  <separator name="response functions" >
   <i type="logical" name="LADDER"> F  </i>
   <i type="logical" name="LRPAFORCE"> F  </i>
   <i type="logical" name="LFXC"> F  </i>
   <i type="logical" name="LHARTREE"> T  </i>
   <i type="int" name="IBSE">     0</i>
   <v type="int" name="KPOINT">    -1     0     0     0</v>
   <i type="logical" name="LTCTE"> F  </i>
   <i type="logical" name="LTETE"> F  </i>
   <i type="logical" name="LTRIPLET"> F  </i>
   <i type="logical" name="LFXCEPS"> F  </i>
   <i type="logical" name="LFXHEG"> F  </i>
   <i type="int" name="NATURALO">     2</i>
   <i type="logical" name="L2ORDER"> F  </i>
   <i type="logical" name="LMP2LT"> F  </i>
   <i type="logical" name="LUSEW"> F  </i>
   <i name="ENCUTGW">     -2.00000000</i>
   <i name="ENCUTGWSOFT">     -2.00000000</i>
   <i name="ENCUTLF">     -1.00000000</i>
   <i type="int" name="LMAXMP2">    -1</i>
   <i name="SCISSOR">      0.00000000</i>
   <i type="int" name="NOMEGA">     0</i>
   <i type="int" name="NOMEGAR">     0</i>
   <i type="int" name="NBANDSGW">    -1</i>
   <i type="int" name="NBANDSO">    -1</i>
   <i type="int" name="NBANDSV">    -1</i>
   <i type="int" name="NELM">   100</i>
   <i type="int" name="NELMHF">     1</i>
   <i type="int" name="DIM">     3</i>
   <i type="int" name="ANTIRES">     0</i>
   <i name="OMEGAMAX">    -30.00000000</i>
   <i name="OMEGAMIN">    -30.00000000</i>
   <i name="OMEGATL">   -200.00000000</i>
   <i type="int" name="OMEGAGRID">   140</i>
   <i name="CSHIFT">     -0.10000000</i>
   <i type="logical" name="SELFENERGY"> F  </i>
   <i type="logical" name="LSPECTRAL"> F  </i>
   <i type="logical" name="LSPECTRALGW"> F  </i>
   <i type="logical" name="LSINGLES"> F  </i>
   <i type="logical" name="LFERMIGW"> F  </i>
   <i type="logical" name="ODDONLYGW"> F  </i>
   <i type="logical" name="EVENONLYGW"> F  </i>
   <i type="int" name="NKREDLFX">     1</i>
   <i type="int" name="NKREDLFY">     1</i>
   <i type="int" name="NKREDLFZ">     1</i>
   <i type="int" name="MAXMEM">  2800</i>
   <i type="int" name="TELESCOPE">     0</i>
   <i type="int" name="TAUPAR">     1</i>
   <i type="int" name="OMEGAPAR">    -1</i>
   <i name="LAMBDA">      1.00000000</i>
  </separator>
  <separator name="External order field" >
   <i name="OFIELD_KAPPA">      0.00000000</i>
   <v name="OFIELD_K">      0.00000000      0.00000000      0.00000000</v>
   <i name="OFIELD_Q6_NEAR">      0.00000000</i>
   <i name="OFIELD_Q6_FAR">      0.00000000</i>
   <i name="OFIELD_A">      0.00000000</i>
  </separator>
 </parameters>
 <atominfo>
  <atoms>      24 </atoms>
  <types>       2 </types>
  <array name="atoms" >
   <dimension dim="1">ion</dimension>
   <field type="string">element</field>
   <field type="int">atomtype</field>
   <set>
    <rc><c>Ba</c><c>   1</c></rc>
    <rc><c>Ba</c><c>   1</c></rc>
    <rc><c>Ba</c><c>   1</c></rc>
    <rc><c>Ba</c><c>   1</c></rc>
    <rc><c>Ba</c><c>   1</c></rc>
    <rc><c>Ba</c><c>   1</c></rc>
    <rc><c>Ba</c><c>   1</c></rc>
    <rc><c>Ba</c><c>   1</c></rc>
    <rc><c>Si</c><c>   2</c></rc>
    <rc><c>Si</c><c>   2</c></rc>
    <rc><c>Si</c><c>   2</c></rc>
    <rc><c>Si</c><c>   2</c></rc>
    <rc><c>Si</c><c>   2</c></rc>
    <rc><c>Si</c><c>   2</c></rc>
    <rc><c>Si</c><c>   2</c></rc>
    <rc><c>Si</c><c>   2</c></rc>
    <rc><c>Si</c><c>   2</c></rc>
    <rc><c>Si</c><c>   2</c></rc>
    <rc><c>Si</c><c>   2</c></rc>
    <rc><c>Si</c><c>   2</c></rc>
    <rc><c>Si</c><c>   2</c></rc>
    <rc><c>Si</c><c>   2</c></rc>
    <rc><c>Si</c><c>   2</c></rc>
    <rc><c>Si</c><c>   2</c></rc>
   </set>
  </array>
  <array name="atomtypes" >
   <dimension dim="1">type</dimension>
   <field type="int">atomspertype</field>
   <field type="string">element</field>
   <field>mass</field>
   <field>valence</field>
   <field type="string">pseudopotential</field>
   <set>
    <rc><c>   8</c><c>Ba</c><c>    137.32700000</c><c>     10.00000000</c><c> PAW_PBE Ba_sv 06Sep2000                </c></rc>
    <rc><c>  16</c><c>Si</c><c>     28.08500000</c><c>      4.00000000</c><c> PAW_PBE Si 05Jan2001                   </c></rc>
   </set>
  </array>
 </atominfo>
 <structure name="initialpos" >
  <crystal>
   <varray name="basis" >
    <v>       8.90826050       0.00000000       0.00000000 </v>
    <v>       0.00000000       6.72686198       0.00000000 </v>
    <v>       0.00000000       0.00000000      11.50561267 </v>
   </varray>
   <i name="volume">    689.46968423 </i>
   <varray name="rec_basis" >
    <v>       0.11225536       0.00000000       0.00000000 </v>
    <v>       0.00000000       0.14865773       0.00000000 </v>
    <v>       0.00000000       0.00000000       0.08691410 </v>
   </varray>
  </crystal>
  <varray name="positions" >
   <v>       0.01536406       0.25000000       0.69213186 </v>
   <v>       0.98463594       0.75000002       0.30786814 </v>
   <v>       0.48463594       0.75000002       0.19213180 </v>
   <v>       0.51536406       0.25000000       0.80786818 </v>
   <v>       0.16070224       0.75000002       0.90650282 </v>
   <v>       0.83929776       0.25000000       0.09349716 </v>
   <v>       0.33929776       0.25000000       0.40650290 </v>
   <v>       0.66070224       0.75000002       0.59349714 </v>
   <v>       0.19345800       0.07100390       0.14637424 </v>
   <v>       0.80654200       0.92899609       0.85362574 </v>
   <v>       0.30654200       0.92899609       0.64637426 </v>
   <v>       0.69345800       0.07100390       0.35362574 </v>
   <v>       0.80654200       0.57100391       0.85362574 </v>
   <v>       0.19345800       0.42899609       0.14637424 </v>
   <v>       0.69345800       0.42899609       0.35362574 </v>
   <v>       0.30654200       0.57100391       0.64637426 </v>
   <v>       0.08126801       0.75000002       0.59096745 </v>
   <v>       0.91873197       0.25000000       0.40903255 </v>
   <v>       0.41873200       0.25000000       0.09096738 </v>
   <v>       0.58126803       0.75000002       0.90903260 </v>
   <v>       0.19639773       0.25000000       0.96492478 </v>
   <v>       0.80360225       0.75000002       0.03507524 </v>
   <v>       0.30360225       0.75000002       0.46492469 </v>
   <v>       0.69639775       0.25000000       0.53507522 </v>
  </varray>
 </structure>
 <calculation>
  <scstep>
   <time name="dav">    9.81    9.85</time>
   <time name="total">   11.20   11.29</time>
   <energy>
    <i name="alphaZ">    466.78151634 </i>
    <i name="ewald">  -6442.96156159 </i>
    <i name="hartreedc">   -899.33415162 </i>
    <i name="XCdc">     49.11020943 </i>
    <i name="pawpsdc">   3865.15241620 </i>
    <i name="pawaedc">  -3570.79548676 </i>
    <i name="eentropy">     -0.00022781 </i>
    <i name="bandstr">    119.00542725 </i>
    <i name="atom">   7269.15145414 </i>
    <i name="e_fr_energy">    856.10959558 </i>
    <i name="e_wo_entrp">    856.10982338 </i>
    <i name="e_0_energy">    856.10970948 </i>
   </energy>
  </scstep>
  <scstep>
   <time name="dav">   11.84   11.87</time>
   <time name="total">   11.85   11.88</time>
   <energy>
    <i name="e_fr_energy">    -16.29140740 </i>
    <i name="e_wo_entrp">    -16.29119815 </i>
    <i name="e_0_energy">    -16.29130277 </i>
   </energy>
  </scstep>
  <scstep>
   <time name="dav">   12.54   12.57</time>
   <time name="total">   12.54   12.57</time>
   <energy>
    <i name="e_fr_energy">    -95.90515743 </i>
    <i name="e_wo_entrp">    -95.90515743 </i>
    <i name="e_0_energy">    -95.90515743 </i>
   </energy>
  </scstep>
  <scstep>
   <time name="dav">   14.03   14.07</time>
   <time name="total">   14.04   14.07</time>
   <energy>
    <i name="e_fr_energy">    -98.56091791 </i>
    <i name="e_wo_entrp">    -98.56091791 </i>
    <i name="e_0_energy">    -98.56091791 </i>
   </energy>
  </scstep>
  <scstep>
   <time name="dav">   12.55   12.58</time>
   <time name="total">   12.56   12.59</time>
   <energy>
    <i name="e_fr_energy">    -98.62385251 </i>
    <i name="e_wo_entrp">    -98.62385251 </i>
    <i name="e_0_energy">    -98.62385251 </i>
   </energy>
  </scstep>
  <scstep>
   <time name="dav">   13.94   13.98</time>
   <time name="total">   13.95   13.98</time>
   <energy>
    <i name="e_fr_energy">    -98.62523176 </i>
    <i name="e_wo_entrp">    -98.62523176 </i>
    <i name="e_0_energy">    -98.62523176 </i>
   </energy>
  </scstep>
  <scstep>
   <time name="dav">   12.74   12.77</time>
   <time name="total">   12.74   12.77</time>
   <energy>
    <i name="e_fr_energy">    -98.62526764 </i>
    <i name="e_wo_entrp">    -98.62526764 </i>
    <i name="e_0_energy">    -98.62526764 </i>
   </energy>
  </scstep>
  <scstep>
   <time name="dav">   11.20   11.22</time>
   <time name="total">   11.20   11.23</time>
   <energy>
    <i name="alphaZ">    466.78151634 </i>
    <i name="ewald">  -6442.96156159 </i>
    <i name="hartreedc">   -899.33415162 </i>
    <i name="XCdc">     49.11020943 </i>
    <i name="pawpsdc">   3865.15241620 </i>
    <i name="pawaedc">  -3570.79548676 </i>
    <i name="eentropy">     -0.00000000 </i>
    <i name="bandstr">   -835.72966441 </i>
    <i name="atom">   7269.15145414 </i>
    <i name="e_fr_energy">    -98.62526828 </i>
    <i name="e_wo_entrp">    -98.62526828 </i>
    <i name="e_0_energy">    -98.62526828 </i>
   </energy>
  </scstep>
  <structure>
   <crystal>
    <varray name="basis" >
     <v>       8.90826050       0.00000000       0.00000000 </v>
     <v>       0.00000000       6.72686198       0.00000000 </v>
     <v>       0.00000000       0.00000000      11.50561267 </v>
    </varray>
    <i name="volume">    689.46968423 </i>
    <varray name="rec_basis" >
     <v>       0.11225536       0.00000000       0.00000000 </v>
     <v>       0.00000000       0.14865773       0.00000000 </v>
     <v>       0.00000000       0.00000000       0.08691410 </v>
    </varray>
   </crystal>
   <varray name="positions" >
    <v>       0.01536406       0.25000000       0.69213186 </v>
    <v>       0.98463594       0.75000002       0.30786814 </v>
    <v>       0.48463594       0.75000002       0.19213180 </v>
    <v>       0.51536406       0.25000000       0.80786818 </v>
    <v>       0.16070224       0.75000002       0.90650282 </v>
    <v>       0.83929776       0.25000000       0.09349716 </v>
    <v>       0.33929776       0.25000000       0.40650290 </v>
    <v>       0.66070224       0.75000002       0.59349714 </v>
    <v>       0.19345800       0.07100390       0.14637424 </v>
    <v>       0.80654200       0.92899609       0.85362574 </v>
    <v>       0.30654200       0.92899609       0.64637426 </v>
    <v>       0.69345800       0.07100390       0.35362574 </v>
    <v>       0.80654200       0.57100391       0.85362574 </v>
    <v>       0.19345800       0.42899609       0.14637424 </v>
    <v>       0.69345800       0.42899609       0.35362574 </v>
    <v>       0.30654200       0.57100391       0.64637426 </v>
    <v>       0.08126801       0.75000002       0.59096745 </v>
    <v>       0.91873197       0.25000000       0.40903255 </v>
    <v>       0.41873200       0.25000000       0.09096738 </v>
    <v>       0.58126803       0.75000002       0.90903260 </v>
    <v>       0.19639773       0.25000000       0.96492478 </v>
    <v>       0.80360225       0.75000002       0.03507524 </v>
    <v>       0.30360225       0.75000002       0.46492469 </v>
    <v>       0.69639775       0.25000000       0.53507522 </v>
   </varray>
  </structure>
  <varray name="forces" >
   <v>      -0.05173868      -0.00000000       0.08360436 </v>
   <v>       0.05173868      -0.00000000      -0.08360436 </v>
   <v>       0.05173868      -0.00000000       0.08360436 </v>
   <v>      -0.05173868      -0.00000000      -0.08360436 </v>
   <v>       0.07637421      -0.00000000      -0.03588769 </v>
   <v>      -0.07637421      -0.00000000       0.03588769 </v>
   <v>      -0.07637421      -0.00000000      -0.03588769 </v>
   <v>       0.07637421      -0.00000000       0.03588769 </v>
   <v>      -0.08234769      -0.01490432      -0.04178613 </v>
   <v>       0.08234769       0.01490432       0.04178613 </v>
   <v>       0.08234769       0.01490432      -0.04178613 </v>
   <v>      -0.08234769      -0.01490432       0.04178613 </v>
   <v>       0.08234769      -0.01490432       0.04178613 </v>
   <v>      -0.08234769       0.01490432      -0.04178613 </v>
   <v>      -0.08234769       0.01490432       0.04178613 </v>
   <v>       0.08234769      -0.01490432      -0.04178613 </v>
   <v>      -0.07508809      -0.00000000      -0.02226511 </v>
   <v>       0.07508809      -0.00000000       0.02226511 </v>
   <v>       0.07508809      -0.00000000      -0.02226511 </v>
   <v>      -0.07508809      -0.00000000       0.02226511 </v>
   <v>       0.02178856      -0.00000000       0.07899653 </v>
   <v>      -0.02178856      -0.00000000      -0.07899653 </v>
   <v>      -0.02178856      -0.00000000       0.07899653 </v>
   <v>       0.02178856      -0.00000000      -0.07899653 </v>
  </varray>
  <varray name="stress" >
   <v>     -22.07939046       0.00000000       0.00000000 </v>
   <v>       0.00000000      -2.17740615       0.00000000 </v>
   <v>       0.00000000       0.00000000       6.94350867 </v>
  </varray>
  <energy>
   <i name="e_fr_energy">    -98.62526828 </i>
   <i name="e_wo_entrp">    -98.62526828 </i>
   <i name="e_0_energy">     -0.00000000 </i>
  </energy>
  <time name="totalsc">  133.23  135.59</time>
  <eigenvalues>
   <array>
    <dimension dim="1">band</dimension>
    <dimension dim="2">kpoint</dimension>
    <dimension dim="3">spin</dimension>
    <field>eigene</field>
    <field>occ</field>
    <set>
     <set comment="spin 1">
      <set comment="kpoint 1">
       <r>  -23.9637    1.0000 </r>
       <r>  -23.9581    1.0000 </r>
       <r>  -23.9545    1.0000 </r>
       <r>  -23.9543    1.0000 </r>
       <r>  -23.8793    1.0000 </r>
       <r>  -23.8761    1.0000 </r>
       <r>  -23.8712    1.0000 </r>
       <r>  -23.8691    1.0000 </r>
       <r>   -9.5412    1.0000 </r>
       <r>   -9.5195    1.0000 </r>
       <r>   -9.4770    1.0000 </r>
       <r>   -9.4697    1.0000 </r>
       <r>   -9.4254    1.0000 </r>
       <r>   -9.3823    1.0000 </r>
       <r>   -9.3786    1.0000 </r>
       <r>   -9.3603    1.0000 </r>
       <r>   -9.3562    1.0000 </r>
       <r>   -9.3284    1.0000 </r>
       <r>   -9.3215    1.0000 </r>
       <r>   -9.3171    1.0000 </r>
       <r>   -9.2726    1.0000 </r>
       <r>   -9.2374    1.0000 </r>
       <r>   -9.2031    1.0000 </r>
       <r>   -9.2020    1.0000 </r>
       <r>   -9.1976    1.0000 </r>
       <r>   -9.1725    1.0000 </r>
       <r>   -9.1599    1.0000 </r>
       <r>   -9.1590    1.0000 </r>
       <r>   -9.1430    1.0000 </r>
       <r>   -9.1412    1.0000 </r>
       <r>   -9.1290    1.0000 </r>
       <r>   -9.1182    1.0000 </r>
       <r>   -7.2109    1.0000 </r>
       <r>   -6.9483    1.0000 </r>
       <r>   -6.9078    1.0000 </r>
       <r>   -6.8843    1.0000 </r>
       <r>   -2.5858    1.0000 </r>
       <r>   -2.5216    1.0000 </r>
       <r>   -2.2570    1.0000 </r>
       <r>   -2.2387    1.0000 </r>
       <r>   -2.1494    1.0000 </r>
       <r>   -2.1308    1.0000 </r>
       <r>   -2.1302    1.0000 </r>
       <r>   -2.0877    1.0000 </r>
       <r>   -2.0288    1.0000 </r>
       <r>   -1.9789    1.0000 </r>
       <r>   -1.9290    1.0000 </r>
       <r>   -1.7582    1.0000 </r>
       <r>    0.0089    1.0000 </r>
       <r>    1.0380    1.0000 </r>
       <r>    1.2279    1.0000 </r>
       <r>    1.2682    1.0000 </r>
       <r>    1.3227    1.0000 </r>
       <r>    1.5397    1.0000 </r>
       <r>    1.7709    1.0000 </r>
       <r>    1.8348    1.0000 </r>
       <r>    1.8418    1.0000 </r>
       <r>    1.8989    1.0000 </r>
       <r>    1.9121    1.0000 </r>
       <r>    2.1403    1.0000 </r>
       <r>    2.1528    1.0000 </r>
       <r>    2.1584    1.0000 </r>
       <r>    2.3048    1.0000 </r>
       <r>    2.4233    1.0000 </r>
       <r>    2.4839    1.0000 </r>
       <r>    2.5541    1.0000 </r>
       <r>    2.5763    1.0000 </r>
       <r>    2.6078    1.0000 </r>
       <r>    2.9493    1.0000 </r>
       <r>    3.1807    1.0000 </r>
       <r>    3.2322    1.0000 </r>
       <r>    3.3560    1.0000 </r>
       <r>    4.5414    0.0000 </r>
       <r>    4.5436    0.0000 </r>
       <r>    4.8821    0.0000 </r>
       <r>    5.0623    0.0000 </r>
       <r>    5.0722    0.0000 </r>
       <r>    5.4309    0.0000 </r>
       <r>    5.6255    0.0000 </r>
       <r>    5.8182    0.0000 </r>
       <r>    5.8555    0.0000 </r>
       <r>    6.0920    0.0000 </r>
       <r>    6.1394    0.0000 </r>
       <r>    6.1455    0.0000 </r>
       <r>    6.1621    0.0000 </r>
       <r>    6.2506    0.0000 </r>
       <r>    6.2800    0.0000 </r>
       <r>    6.6185    0.0000 </r>
      </set>
      <set comment="kpoint 2">
       <r>  -23.9637    1.0000 </r>
       <r>  -23.9581    1.0000 </r>
       <r>  -23.9545    1.0000 </r>
       <r>  -23.9543    1.0000 </r>
       <r>  -23.8793    1.0000 </r>
       <r>  -23.8762    1.0000 </r>
       <r>  -23.8712    1.0000 </r>
       <r>  -23.8691    1.0000 </r>
       <r>   -9.5408    1.0000 </r>
       <r>   -9.5197    1.0000 </r>
       <r>   -9.4825    1.0000 </r>
       <r>   -9.4639    1.0000 </r>
       <r>   -9.4254    1.0000 </r>
       <r>   -9.3856    1.0000 </r>
       <r>   -9.3800    1.0000 </r>
       <r>   -9.3609    1.0000 </r>
       <r>   -9.3531    1.0000 </r>
       <r>   -9.3341    1.0000 </r>
       <r>   -9.3268    1.0000 </r>
       <r>   -9.3047    1.0000 </r>
       <r>   -9.2732    1.0000 </r>
       <r>   -9.2380    1.0000 </r>
       <r>   -9.2031    1.0000 </r>
       <r>   -9.2021    1.0000 </r>
       <r>   -9.1971    1.0000 </r>
       <r>   -9.1730    1.0000 </r>
       <r>   -9.1593    1.0000 </r>
       <r>   -9.1588    1.0000 </r>
       <r>   -9.1430    1.0000 </r>
       <r>   -9.1417    1.0000 </r>
       <r>   -9.1291    1.0000 </r>
       <r>   -9.1181    1.0000 </r>
       <r>   -7.2094    1.0000 </r>
       <r>   -6.9479    1.0000 </r>
       <r>   -6.9078    1.0000 </r>
       <r>   -6.8844    1.0000 </r>
       <r>   -2.5841    1.0000 </r>
       <r>   -2.5202    1.0000 </r>
       <r>   -2.2565    1.0000 </r>
       <r>   -2.2377    1.0000 </r>
       <r>   -2.1620    1.0000 </r>
       <r>   -2.1295    1.0000 </r>
       <r>   -2.1170    1.0000 </r>
       <r>   -2.0871    1.0000 </r>
       <r>   -2.0334    1.0000 </r>
       <r>   -1.9786    1.0000 </r>
       <r>   -1.9329    1.0000 </r>
       <r>   -1.7581    1.0000 </r>
       <r>    0.0162    1.0000 </r>
       <r>    1.0405    1.0000 </r>
       <r>    1.2291    1.0000 </r>
       <r>    1.2697    1.0000 </r>
       <r>    1.3231    1.0000 </r>
       <r>    1.5389    1.0000 </r>
       <r>    1.7406    1.0000 </r>
       <r>    1.8425    1.0000 </r>
       <r>    1.8519    1.0000 </r>
       <r>    1.9085    1.0000 </r>
       <r>    1.9146    1.0000 </r>
       <r>    2.1415    1.0000 </r>
       <r>    2.1504    1.0000 </r>
       <r>    2.1591    1.0000 </r>
       <r>    2.3052    1.0000 </r>
       <r>    2.4256    1.0000 </r>
       <r>    2.4820    1.0000 </r>
       <r>    2.5541    1.0000 </r>
       <r>    2.5557    1.0000 </r>
       <r>    2.6263    1.0000 </r>
       <r>    2.9470    1.0000 </r>
       <r>    3.1459    1.0000 </r>
       <r>    3.2645    1.0000 </r>
       <r>    3.3568    1.0000 </r>
       <r>    4.5354    0.0000 </r>
       <r>    4.5404    0.0000 </r>
       <r>    4.8845    0.0000 </r>
       <r>    5.0665    0.0000 </r>
       <r>    5.0780    0.0000 </r>
       <r>    5.4299    0.0000 </r>
       <r>    5.6358    0.0000 </r>
       <r>    5.7541    0.0000 </r>
       <r>    5.9235    0.0000 </r>
       <r>    6.0804    0.0000 </r>
       <r>    6.0891    0.0000 </r>
       <r>    6.1249    0.0000 </r>
       <r>    6.2206    0.0000 </r>
       <r>    6.2490    0.0000 </r>
       <r>    6.2726    0.0000 </r>
       <r>    6.5668    0.0000 </r>
      </set>
      <set comment="kpoint 3">
       <r>  -23.9636    1.0000 </r>
       <r>  -23.9580    1.0000 </r>
       <r>  -23.9545    1.0000 </r>
       <r>  -23.9543    1.0000 </r>
       <r>  -23.8793    1.0000 </r>
       <r>  -23.8762    1.0000 </r>
       <r>  -23.8712    1.0000 </r>
       <r>  -23.8691    1.0000 </r>
       <r>   -9.5398    1.0000 </r>
       <r>   -9.5202    1.0000 </r>
       <r>   -9.4902    1.0000 </r>
       <r>   -9.4553    1.0000 </r>
       <r>   -9.4254    1.0000 </r>
       <r>   -9.3929    1.0000 </r>
       <r>   -9.3835    1.0000 </r>
       <r>   -9.3625    1.0000 </r>
       <r>   -9.3487    1.0000 </r>
       <r>   -9.3464    1.0000 </r>
       <r>   -9.3226    1.0000 </r>
       <r>   -9.2908    1.0000 </r>
       <r>   -9.2748    1.0000 </r>
       <r>   -9.2397    1.0000 </r>
       <r>   -9.2032    1.0000 </r>
       <r>   -9.2024    1.0000 </r>
       <r>   -9.1957    1.0000 </r>
       <r>   -9.1744    1.0000 </r>
       <r>   -9.1581    1.0000 </r>
       <r>   -9.1578    1.0000 </r>
       <r>   -9.1432    1.0000 </r>
       <r>   -9.1430    1.0000 </r>
       <r>   -9.1291    1.0000 </r>
       <r>   -9.1179    1.0000 </r>
       <r>   -7.2048    1.0000 </r>
       <r>   -6.9469    1.0000 </r>
       <r>   -6.9076    1.0000 </r>
       <r>   -6.8845    1.0000 </r>
       <r>   -2.5790    1.0000 </r>
       <r>   -2.5161    1.0000 </r>
       <r>   -2.2550    1.0000 </r>
       <r>   -2.2346    1.0000 </r>
       <r>   -2.1793    1.0000 </r>
       <r>   -2.1275    1.0000 </r>
       <r>   -2.0961    1.0000 </r>
       <r>   -2.0855    1.0000 </r>
       <r>   -2.0468    1.0000 </r>
       <r>   -1.9779    1.0000 </r>
       <r>   -1.9444    1.0000 </r>
       <r>   -1.7579    1.0000 </r>
       <r>    0.0377    1.0000 </r>
       <r>    1.0476    1.0000 </r>
       <r>    1.2325    1.0000 </r>
       <r>    1.2741    1.0000 </r>
       <r>    1.3243    1.0000 </r>
       <r>    1.5364    1.0000 </r>
       <r>    1.6883    1.0000 </r>
       <r>    1.8446    1.0000 </r>
       <r>    1.8618    1.0000 </r>
       <r>    1.9216    1.0000 </r>
       <r>    1.9401    1.0000 </r>
       <r>    2.1432    1.0000 </r>
       <r>    2.1453    1.0000 </r>
       <r>    2.1613    1.0000 </r>
       <r>    2.3065    1.0000 </r>
       <r>    2.4322    1.0000 </r>
       <r>    2.4768    1.0000 </r>
       <r>    2.5185    1.0000 </r>
       <r>    2.5604    1.0000 </r>
       <r>    2.6498    1.0000 </r>
       <r>    2.9413    1.0000 </r>
       <r>    3.0921    1.0000 </r>
       <r>    3.3109    1.0000 </r>
       <r>    3.3591    1.0000 </r>
       <r>    4.5125    0.0000 </r>
       <r>    4.5374    0.0000 </r>
       <r>    4.8917    0.0000 </r>
       <r>    5.0785    0.0000 </r>
       <r>    5.0947    0.0000 </r>
       <r>    5.4263    0.0000 </r>
       <r>    5.6651    0.0000 </r>
       <r>    5.6813    0.0000 </r>
       <r>    6.0008    0.0000 </r>
       <r>    6.0042    0.0000 </r>
       <r>    6.0798    0.0000 </r>
       <r>    6.0881    0.0000 </r>
       <r>    6.2458    0.0000 </r>
       <r>    6.2627    0.0000 </r>
       <r>    6.2766    0.0000 </r>
       <r>    6.5095    0.0000 </r>
      </set>
      <set comment="kpoint 4">
       <r>  -23.9634    1.0000 </r>
       <r>  -23.9580    1.0000 </r>
       <r>  -23.9545    1.0000 </r>
       <r>  -23.9543    1.0000 </r>
       <r>  -23.8794    1.0000 </r>
       <r>  -23.8763    1.0000 </r>
       <r>  -23.8712    1.0000 </r>
       <r>  -23.8691    1.0000 </r>
       <r>   -9.5382    1.0000 </r>
       <r>   -9.5210    1.0000 </r>
       <r>   -9.4977    1.0000 </r>
       <r>   -9.4465    1.0000 </r>
       <r>   -9.4254    1.0000 </r>
       <r>   -9.4015    1.0000 </r>
       <r>   -9.3884    1.0000 </r>
       <r>   -9.3652    1.0000 </r>
       <r>   -9.3631    1.0000 </r>
       <r>   -9.3386    1.0000 </r>
       <r>   -9.3167    1.0000 </r>
       <r>   -9.2775    1.0000 </r>
       <r>   -9.2773    1.0000 </r>
       <r>   -9.2423    1.0000 </r>
       <r>   -9.2033    1.0000 </r>
       <r>   -9.2029    1.0000 </r>
       <r>   -9.1936    1.0000 </r>
       <r>   -9.1769    1.0000 </r>
       <r>   -9.1570    1.0000 </r>
       <r>   -9.1554    1.0000 </r>
       <r>   -9.1453    1.0000 </r>
       <r>   -9.1429    1.0000 </r>
       <r>   -9.1293    1.0000 </r>
       <r>   -9.1176    1.0000 </r>
       <r>   -7.1974    1.0000 </r>
       <r>   -6.9452    1.0000 </r>
       <r>   -6.9073    1.0000 </r>
       <r>   -6.8848    1.0000 </r>
       <r>   -2.5708    1.0000 </r>
       <r>   -2.5092    1.0000 </r>
       <r>   -2.2525    1.0000 </r>
       <r>   -2.2296    1.0000 </r>
       <r>   -2.1955    1.0000 </r>
       <r>   -2.1243    1.0000 </r>
       <r>   -2.0830    1.0000 </r>
       <r>   -2.0742    1.0000 </r>
       <r>   -2.0678    1.0000 </r>
       <r>   -1.9771    1.0000 </r>
       <r>   -1.9624    1.0000 </r>
       <r>   -1.7582    1.0000 </r>
       <r>    0.0725    1.0000 </r>
       <r>    1.0588    1.0000 </r>
       <r>    1.2381    1.0000 </r>
       <r>    1.2816    1.0000 </r>
       <r>    1.3262    1.0000 </r>
       <r>    1.5326    1.0000 </r>
       <r>    1.6321    1.0000 </r>
       <r>    1.8480    1.0000 </r>
       <r>    1.8600    1.0000 </r>
       <r>    1.9323    1.0000 </r>
       <r>    1.9807    1.0000 </r>
       <r>    2.1316    1.0000 </r>
       <r>    2.1516    1.0000 </r>
       <r>    2.1655    1.0000 </r>
       <r>    2.3080    1.0000 </r>
       <r>    2.4428    1.0000 </r>
       <r>    2.4694    1.0000 </r>
       <r>    2.4789    1.0000 </r>
       <r>    2.5679    1.0000 </r>
       <r>    2.6666    1.0000 </r>
       <r>    2.9348    1.0000 </r>
       <r>    3.0353    1.0000 </r>
       <r>    3.3558    1.0000 </r>
       <r>    3.3621    1.0000 </r>
       <r>    4.4791    0.0000 </r>
       <r>    4.5327    0.0000 </r>
       <r>    4.9039    0.0000 </r>
       <r>    5.0962    0.0000 </r>
       <r>    5.1204    0.0000 </r>
       <r>    5.4184    0.0000 </r>
       <r>    5.6172    0.0000 </r>
       <r>    5.7098    0.0000 </r>
       <r>    5.9130    0.0000 </r>
       <r>    6.0091    0.0000 </r>
       <r>    6.0648    0.0000 </r>
       <r>    6.1157    0.0000 </r>
       <r>    6.2423    0.0000 </r>
       <r>    6.2573    0.0000 </r>
       <r>    6.3301    0.0000 </r>
       <r>    6.4777    0.0000 </r>
      </set>
      <set comment="kpoint 5">
       <r>  -23.9632    1.0000 </r>
       <r>  -23.9579    1.0000 </r>
       <r>  -23.9545    1.0000 </r>
       <r>  -23.9544    1.0000 </r>
       <r>  -23.8794    1.0000 </r>
       <r>  -23.8764    1.0000 </r>
       <r>  -23.8712    1.0000 </r>
       <r>  -23.8692    1.0000 </r>
       <r>   -9.5360    1.0000 </r>
       <r>   -9.5221    1.0000 </r>
       <r>   -9.5046    1.0000 </r>
       <r>   -9.4377    1.0000 </r>
       <r>   -9.4254    1.0000 </r>
       <r>   -9.4104    1.0000 </r>
       <r>   -9.3940    1.0000 </r>
       <r>   -9.3778    1.0000 </r>
       <r>   -9.3682    1.0000 </r>
       <r>   -9.3309    1.0000 </r>
       <r>   -9.3098    1.0000 </r>
       <r>   -9.2810    1.0000 </r>
       <r>   -9.2646    1.0000 </r>
       <r>   -9.2457    1.0000 </r>
       <r>   -9.2035    1.0000 </r>
       <r>   -9.2033    1.0000 </r>
       <r>   -9.1910    1.0000 </r>
       <r>   -9.1806    1.0000 </r>
       <r>   -9.1555    1.0000 </r>
       <r>   -9.1524    1.0000 </r>
       <r>   -9.1479    1.0000 </r>
       <r>   -9.1428    1.0000 </r>
       <r>   -9.1296    1.0000 </r>
       <r>   -9.1171    1.0000 </r>
       <r>   -7.1872    1.0000 </r>
       <r>   -6.9430    1.0000 </r>
       <r>   -6.9070    1.0000 </r>
       <r>   -6.8852    1.0000 </r>
       <r>   -2.5595    1.0000 </r>
       <r>   -2.4998    1.0000 </r>
       <r>   -2.2489    1.0000 </r>
       <r>   -2.2230    1.0000 </r>
       <r>   -2.2098    1.0000 </r>
       <r>   -2.1201    1.0000 </r>
       <r>   -2.0951    1.0000 </r>
       <r>   -2.0796    1.0000 </r>
       <r>   -2.0522    1.0000 </r>
       <r>   -1.9859    1.0000 </r>
       <r>   -1.9761    1.0000 </r>
       <r>   -1.7595    1.0000 </r>
       <r>    0.1191    1.0000 </r>
       <r>    1.0727    1.0000 </r>
       <r>    1.2458    1.0000 </r>
       <r>    1.2924    1.0000 </r>
       <r>    1.3288    1.0000 </r>
       <r>    1.5279    1.0000 </r>
       <r>    1.5760    1.0000 </r>
       <r>    1.8524    1.0000 </r>
       <r>    1.8538    1.0000 </r>
       <r>    1.9453    1.0000 </r>
       <r>    2.0202    1.0000 </r>
       <r>    2.1159    1.0000 </r>
       <r>    2.1605    1.0000 </r>
       <r>    2.1722    1.0000 </r>
       <r>    2.3092    1.0000 </r>
       <r>    2.4359    1.0000 </r>
       <r>    2.4569    1.0000 </r>
       <r>    2.4619    1.0000 </r>
       <r>    2.5775    1.0000 </r>
       <r>    2.6740    1.0000 </r>
       <r>    2.9309    1.0000 </r>
       <r>    2.9777    1.0000 </r>
       <r>    3.3648    1.0000 </r>
       <r>    3.3979    1.0000 </r>
       <r>    4.4407    0.0000 </r>
       <r>    4.5265    0.0000 </r>
       <r>    4.9216    0.0000 </r>
       <r>    5.1160    0.0000 </r>
       <r>    5.1521    0.0000 </r>
       <r>    5.4034    0.0000 </r>
       <r>    5.5647    0.0000 </r>
       <r>    5.7652    0.0000 </r>
       <r>    5.8172    0.0000 </r>
       <r>    5.9381    0.0000 </r>
       <r>    6.0415    0.0000 </r>
       <r>    6.1862    0.0000 </r>
       <r>    6.2267    0.0000 </r>
       <r>    6.2309    0.0000 </r>
       <r>    6.3064    0.0000 </r>
       <r>    6.4321    0.0000 </r>
      </set>
      <set comment="kpoint 6">
       <r>  -23.9630    1.0000 </r>
       <r>  -23.9578    1.0000 </r>
       <r>  -23.9545    1.0000 </r>
       <r>  -23.9544    1.0000 </r>
       <r>  -23.8795    1.0000 </r>
       <r>  -23.8766    1.0000 </r>
       <r>  -23.8712    1.0000 </r>
       <r>  -23.8692    1.0000 </r>
       <r>   -9.5333    1.0000 </r>
       <r>   -9.5235    1.0000 </r>
       <r>   -9.5108    1.0000 </r>
       <r>   -9.4291    1.0000 </r>
       <r>   -9.4255    1.0000 </r>
       <r>   -9.4194    1.0000 </r>
       <r>   -9.3997    1.0000 </r>
       <r>   -9.3920    1.0000 </r>
       <r>   -9.3720    1.0000 </r>
       <r>   -9.3235    1.0000 </r>
       <r>   -9.3024    1.0000 </r>
       <r>   -9.2852    1.0000 </r>
       <r>   -9.2528    1.0000 </r>
       <r>   -9.2495    1.0000 </r>
       <r>   -9.2037    1.0000 </r>
       <r>   -9.2033    1.0000 </r>
       <r>   -9.1879    1.0000 </r>
       <r>   -9.1856    1.0000 </r>
       <r>   -9.1535    1.0000 </r>
       <r>   -9.1505    1.0000 </r>
       <r>   -9.1489    1.0000 </r>
       <r>   -9.1426    1.0000 </r>
       <r>   -9.1302    1.0000 </r>
       <r>   -9.1164    1.0000 </r>
       <r>   -7.1745    1.0000 </r>
       <r>   -6.9402    1.0000 </r>
       <r>   -6.9065    1.0000 </r>
       <r>   -6.8857    1.0000 </r>
       <r>   -2.5456    1.0000 </r>
       <r>   -2.4879    1.0000 </r>
       <r>   -2.2443    1.0000 </r>
       <r>   -2.2217    1.0000 </r>
       <r>   -2.2153    1.0000 </r>
       <r>   -2.1268    1.0000 </r>
       <r>   -2.1151    1.0000 </r>
       <r>   -2.0756    1.0000 </r>
       <r>   -2.0306    1.0000 </r>
       <r>   -2.0135    1.0000 </r>
       <r>   -1.9751    1.0000 </r>
       <r>   -1.7620    1.0000 </r>
       <r>    0.1758    1.0000 </r>
       <r>    1.0880    1.0000 </r>
       <r>    1.2554    1.0000 </r>
       <r>    1.3066    1.0000 </r>
       <r>    1.3317    1.0000 </r>
       <r>    1.5221    1.0000 </r>
       <r>    1.5227    1.0000 </r>
       <r>    1.8454    1.0000 </r>
       <r>    1.8576    1.0000 </r>
       <r>    1.9589    1.0000 </r>
       <r>    2.0558    1.0000 </r>
       <r>    2.0966    1.0000 </r>
       <r>    2.1718    1.0000 </r>
       <r>    2.1814    1.0000 </r>
       <r>    2.3090    1.0000 </r>
       <r>    2.3892    1.0000 </r>
       <r>    2.4568    1.0000 </r>
       <r>    2.4736    1.0000 </r>
       <r>    2.5886    1.0000 </r>
       <r>    2.6714    1.0000 </r>
       <r>    2.9208    1.0000 </r>
       <r>    2.9310    1.0000 </r>
       <r>    3.3664    1.0000 </r>
       <r>    3.4365    1.0000 </r>
       <r>    4.4026    0.0000 </r>
       <r>    4.5186    0.0000 </r>
       <r>    4.9452    0.0000 </r>
       <r>    5.1329    0.0000 </r>
       <r>    5.1866    0.0000 </r>
       <r>    5.3777    0.0000 </r>
       <r>    5.5263    0.0000 </r>
       <r>    5.7161    0.0000 </r>
       <r>    5.8266    0.0000 </r>
       <r>    5.8631    0.0000 </r>
       <r>    6.0117    0.0000 </r>
       <r>    6.1996    0.0000 </r>
       <r>    6.2187    0.0000 </r>
       <r>    6.2522    0.0000 </r>
       <r>    6.2847    0.0000 </r>
       <r>    6.4426    0.0000 </r>
      </set>
      <set comment="kpoint 7">
       <r>  -23.9626    1.0000 </r>
       <r>  -23.9577    1.0000 </r>
       <r>  -23.9545    1.0000 </r>
       <r>  -23.9544    1.0000 </r>
       <r>  -23.8796    1.0000 </r>
       <r>  -23.8768    1.0000 </r>
       <r>  -23.8712    1.0000 </r>
       <r>  -23.8693    1.0000 </r>
       <r>   -9.5302    1.0000 </r>
       <r>   -9.5251    1.0000 </r>
       <r>   -9.5163    1.0000 </r>
       <r>   -9.4282    1.0000 </r>
       <r>   -9.4257    1.0000 </r>
       <r>   -9.4209    1.0000 </r>
       <r>   -9.4057    1.0000 </r>
       <r>   -9.4055    1.0000 </r>
       <r>   -9.3762    1.0000 </r>
       <r>   -9.3167    1.0000 </r>
       <r>   -9.2949    1.0000 </r>
       <r>   -9.2898    1.0000 </r>
       <r>   -9.2537    1.0000 </r>
       <r>   -9.2425    1.0000 </r>
       <r>   -9.2040    1.0000 </r>
       <r>   -9.2027    1.0000 </r>
       <r>   -9.1917    1.0000 </r>
       <r>   -9.1847    1.0000 </r>
       <r>   -9.1531    1.0000 </r>
       <r>   -9.1512    1.0000 </r>
       <r>   -9.1451    1.0000 </r>
       <r>   -9.1422    1.0000 </r>
       <r>   -9.1311    1.0000 </r>
       <r>   -9.1157    1.0000 </r>
       <r>   -7.1597    1.0000 </r>
       <r>   -6.9371    1.0000 </r>
       <r>   -6.9060    1.0000 </r>
       <r>   -6.8862    1.0000 </r>
       <r>   -2.5295    1.0000 </r>
       <r>   -2.4738    1.0000 </r>
       <r>   -2.2388    1.0000 </r>
       <r>   -2.2312    1.0000 </r>
       <r>   -2.2090    1.0000 </r>
       <r>   -2.1592    1.0000 </r>
       <r>   -2.1096    1.0000 </r>
       <r>   -2.0711    1.0000 </r>
       <r>   -2.0440    1.0000 </r>
       <r>   -2.0098    1.0000 </r>
       <r>   -1.9740    1.0000 </r>
       <r>   -1.7660    1.0000 </r>
       <r>    0.2406    1.0000 </r>
       <r>    1.1034    1.0000 </r>
       <r>    1.2669    1.0000 </r>
       <r>    1.3238    1.0000 </r>
       <r>    1.3341    1.0000 </r>
       <r>    1.4725    1.0000 </r>
       <r>    1.5176    1.0000 </r>
       <r>    1.8358    1.0000 </r>
       <r>    1.8630    1.0000 </r>
       <r>    1.9722    1.0000 </r>
       <r>    2.0739    1.0000 </r>
       <r>    2.0868    1.0000 </r>
       <r>    2.1854    1.0000 </r>
       <r>    2.1922    1.0000 </r>
       <r>    2.3068    1.0000 </r>
       <r>    2.3391    1.0000 </r>
       <r>    2.4578    1.0000 </r>
       <r>    2.4919    1.0000 </r>
       <r>    2.6006    1.0000 </r>
       <r>    2.6611    1.0000 </r>
       <r>    2.8659    1.0000 </r>
       <r>    2.9340    1.0000 </r>
       <r>    3.3662    1.0000 </r>
       <r>    3.4714    1.0000 </r>
       <r>    4.3694    0.0000 </r>
       <r>    4.5088    0.0000 </r>
       <r>    4.9751    0.0000 </r>
       <r>    5.1398    0.0000 </r>
       <r>    5.2205    0.0000 </r>
       <r>    5.3374    0.0000 </r>
       <r>    5.5041    0.0000 </r>
       <r>    5.6152    0.0000 </r>
       <r>    5.7953    0.0000 </r>
       <r>    5.8901    0.0000 </r>
       <r>    5.9743    0.0000 </r>
       <r>    6.1656    0.0000 </r>
       <r>    6.1868    0.0000 </r>
       <r>    6.2005    0.0000 </r>
       <r>    6.3354    0.0000 </r>
       <r>    6.4508    0.0000 </r>
      </set>
      <set comment="kpoint 8">
       <r>  -23.9623    1.0000 </r>
       <r>  -23.9576    1.0000 </r>
       <r>  -23.9545    1.0000 </r>
       <r>  -23.9544    1.0000 </r>
       <r>  -23.8797    1.0000 </r>
       <r>  -23.8770    1.0000 </r>
       <r>  -23.8711    1.0000 </r>
       <r>  -23.8694    1.0000 </r>
       <r>   -9.5269    1.0000 </r>
       <r>   -9.5269    1.0000 </r>
       <r>   -9.5209    1.0000 </r>
       <r>   -9.4365    1.0000 </r>
       <r>   -9.4261    1.0000 </r>
       <r>   -9.4189    1.0000 </r>
       <r>   -9.4133    1.0000 </r>
       <r>   -9.4110    1.0000 </r>
       <r>   -9.3806    1.0000 </r>
       <r>   -9.3106    1.0000 </r>
       <r>   -9.2946    1.0000 </r>
       <r>   -9.2877    1.0000 </r>
       <r>   -9.2581    1.0000 </r>
       <r>   -9.2343    1.0000 </r>
       <r>   -9.2043    1.0000 </r>
       <r>   -9.2007    1.0000 </r>
       <r>   -9.1985    1.0000 </r>
       <r>   -9.1812    1.0000 </r>
       <r>   -9.1554    1.0000 </r>
       <r>   -9.1486    1.0000 </r>
       <r>   -9.1417    1.0000 </r>
       <r>   -9.1413    1.0000 </r>
       <r>   -9.1323    1.0000 </r>
       <r>   -9.1150    1.0000 </r>
       <r>   -7.1431    1.0000 </r>
       <r>   -6.9337    1.0000 </r>
       <r>   -6.9055    1.0000 </r>
       <r>   -6.8869    1.0000 </r>
       <r>   -2.5118    1.0000 </r>
       <r>   -2.4577    1.0000 </r>
       <r>   -2.2381    1.0000 </r>
       <r>   -2.2323    1.0000 </r>
       <r>   -2.2180    1.0000 </r>
       <r>   -2.1772    1.0000 </r>
       <r>   -2.1039    1.0000 </r>
       <r>   -2.0760    1.0000 </r>
       <r>   -2.0661    1.0000 </r>
       <r>   -1.9904    1.0000 </r>
       <r>   -1.9728    1.0000 </r>
       <r>   -1.7715    1.0000 </r>
       <r>    0.3113    1.0000 </r>
       <r>    1.1174    1.0000 </r>
       <r>    1.2799    1.0000 </r>
       <r>    1.3332    1.0000 </r>
       <r>    1.3434    1.0000 </r>
       <r>    1.4311    1.0000 </r>
       <r>    1.5130    1.0000 </r>
       <r>    1.8256    1.0000 </r>
       <r>    1.8676    1.0000 </r>
       <r>    1.9848    1.0000 </r>
       <r>    2.0482    1.0000 </r>
       <r>    2.1133    1.0000 </r>
       <r>    2.2006    1.0000 </r>
       <r>    2.2023    1.0000 </r>
       <r>    2.2866    1.0000 </r>
       <r>    2.3024    1.0000 </r>
       <r>    2.4684    1.0000 </r>
       <r>    2.5105    1.0000 </r>
       <r>    2.6127    1.0000 </r>
       <r>    2.6464    1.0000 </r>
       <r>    2.8143    1.0000 </r>
       <r>    2.9370    1.0000 </r>
       <r>    3.3636    1.0000 </r>
       <r>    3.5021    1.0000 </r>
       <r>    4.3450    0.0000 </r>
       <r>    4.4967    0.0000 </r>
       <r>    5.0116    0.0000 </r>
       <r>    5.1294    0.0000 </r>
       <r>    5.2507    0.0000 </r>
       <r>    5.2787    0.0000 </r>
       <r>    5.4991    0.0000 </r>
       <r>    5.5210    0.0000 </r>
       <r>    5.7445    0.0000 </r>
       <r>    5.9266    0.0000 </r>
       <r>    5.9502    0.0000 </r>
       <r>    6.1296    0.0000 </r>
       <r>    6.1400    0.0000 </r>
       <r>    6.1879    0.0000 </r>
       <r>    6.3785    0.0000 </r>
       <r>    6.4285    0.0000 </r>
      </set>
      <set comment="kpoint 9">
       <r>  -23.9619    1.0000 </r>
       <r>  -23.9575    1.0000 </r>
       <r>  -23.9545    1.0000 </r>
       <r>  -23.9545    1.0000 </r>
       <r>  -23.8798    1.0000 </r>
       <r>  -23.8772    1.0000 </r>
       <r>  -23.8711    1.0000 </r>
       <r>  -23.8695    1.0000 </r>
       <r>   -9.5288    1.0000 </r>
       <r>   -9.5246    1.0000 </r>
       <r>   -9.5235    1.0000 </r>
       <r>   -9.4445    1.0000 </r>
       <r>   -9.4314    1.0000 </r>
       <r>   -9.4267    1.0000 </r>
       <r>   -9.4165    1.0000 </r>
       <r>   -9.4065    1.0000 </r>
       <r>   -9.3847    1.0000 </r>
       <r>   -9.3057    1.0000 </r>
       <r>   -9.2993    1.0000 </r>
       <r>   -9.2811    1.0000 </r>
       <r>   -9.2623    1.0000 </r>
       <r>   -9.2289    1.0000 </r>
       <r>   -9.2055    1.0000 </r>
       <r>   -9.2048    1.0000 </r>
       <r>   -9.1969    1.0000 </r>
       <r>   -9.1776    1.0000 </r>
       <r>   -9.1576    1.0000 </r>
       <r>   -9.1458    1.0000 </r>
       <r>   -9.1410    1.0000 </r>
       <r>   -9.1374    1.0000 </r>
       <r>   -9.1337    1.0000 </r>
       <r>   -9.1143    1.0000 </r>
       <r>   -7.1252    1.0000 </r>
       <r>   -6.9303    1.0000 </r>
       <r>   -6.9048    1.0000 </r>
       <r>   -6.8876    1.0000 </r>
       <r>   -2.4934    1.0000 </r>
       <r>   -2.4399    1.0000 </r>
       <r>   -2.2504    1.0000 </r>
       <r>   -2.2422    1.0000 </r>
       <r>   -2.2253    1.0000 </r>
       <r>   -2.1718    1.0000 </r>
       <r>   -2.1080    1.0000 </r>
       <r>   -2.0986    1.0000 </r>
       <r>   -2.0607    1.0000 </r>
       <r>   -1.9726    1.0000 </r>
       <r>   -1.9714    1.0000 </r>
       <r>   -1.7785    1.0000 </r>
       <r>    0.3860    1.0000 </r>
       <r>    1.1292    1.0000 </r>
       <r>    1.2941    1.0000 </r>
       <r>    1.3225    1.0000 </r>
       <r>    1.3645    1.0000 </r>
       <r>    1.4056    1.0000 </r>
       <r>    1.5095    1.0000 </r>
       <r>    1.8151    1.0000 </r>
       <r>    1.8700    1.0000 </r>
       <r>    1.9975    1.0000 </r>
       <r>    2.0200    1.0000 </r>
       <r>    2.1354    1.0000 </r>
       <r>    2.2091    1.0000 </r>
       <r>    2.2154    1.0000 </r>
       <r>    2.2341    1.0000 </r>
       <r>    2.2972    1.0000 </r>
       <r>    2.4913    1.0000 </r>
       <r>    2.5285    1.0000 </r>
       <r>    2.6246    1.0000 </r>
       <r>    2.6301    1.0000 </r>
       <r>    2.7672    1.0000 </r>
       <r>    2.9377    1.0000 </r>
       <r>    3.3587    1.0000 </r>
       <r>    3.5282    1.0000 </r>
       <r>    4.3320    0.0000 </r>
       <r>    4.4821    0.0000 </r>
       <r>    5.0549    0.0000 </r>
       <r>    5.0975    0.0000 </r>
       <r>    5.2011    0.0000 </r>
       <r>    5.2752    0.0000 </r>
       <r>    5.4377    0.0000 </r>
       <r>    5.5099    0.0000 </r>
       <r>    5.7172    0.0000 </r>
       <r>    5.8679    0.0000 </r>
       <r>    5.9974    0.0000 </r>
       <r>    6.0766    0.0000 </r>
       <r>    6.1082    0.0000 </r>
       <r>    6.1442    0.0000 </r>
       <r>    6.3046    0.0000 </r>
       <r>    6.3797    0.0000 </r>
      </set>
      <set comment="kpoint 10">
       <r>  -23.9615    1.0000 </r>
       <r>  -23.9573    1.0000 </r>
       <r>  -23.9546    1.0000 </r>
       <r>  -23.9545    1.0000 </r>
       <r>  -23.8799    1.0000 </r>
       <r>  -23.8775    1.0000 </r>
       <r>  -23.8711    1.0000 </r>
       <r>  -23.8696    1.0000 </r>
       <r>   -9.5308    1.0000 </r>
       <r>   -9.5273    1.0000 </r>
       <r>   -9.5202    1.0000 </r>
       <r>   -9.4518    1.0000 </r>
       <r>   -9.4430    1.0000 </r>
       <r>   -9.4275    1.0000 </r>
       <r>   -9.4217    1.0000 </r>
       <r>   -9.4007    1.0000 </r>
       <r>   -9.3884    1.0000 </r>
       <r>   -9.3035    1.0000 </r>
       <r>   -9.3022    1.0000 </r>
       <r>   -9.2755    1.0000 </r>
       <r>   -9.2660    1.0000 </r>
       <r>   -9.2261    1.0000 </r>
       <r>   -9.2121    1.0000 </r>
       <r>   -9.2053    1.0000 </r>
       <r>   -9.1914    1.0000 </r>
       <r>   -9.1739    1.0000 </r>
       <r>   -9.1597    1.0000 </r>
       <r>   -9.1428    1.0000 </r>
       <r>   -9.1401    1.0000 </r>
       <r>   -9.1354    1.0000 </r>
       <r>   -9.1338    1.0000 </r>
       <r>   -9.1138    1.0000 </r>
       <r>   -7.1063    1.0000 </r>
       <r>   -6.9270    1.0000 </r>
       <r>   -6.9042    1.0000 </r>
       <r>   -6.8884    1.0000 </r>
       <r>   -2.4755    1.0000 </r>
       <r>   -2.4208    1.0000 </r>
       <r>   -2.2877    1.0000 </r>
       <r>   -2.2435    1.0000 </r>
       <r>   -2.2180    1.0000 </r>
       <r>   -2.1607    1.0000 </r>
       <r>   -2.1385    1.0000 </r>
       <r>   -2.0941    1.0000 </r>
       <r>   -2.0548    1.0000 </r>
       <r>   -1.9698    1.0000 </r>
       <r>   -1.9570    1.0000 </r>
       <r>   -1.7867    1.0000 </r>
       <r>    0.4625    1.0000 </r>
       <r>    1.1380    1.0000 </r>
       <r>    1.2988    1.0000 </r>
       <r>    1.3090    1.0000 </r>
       <r>    1.3860    1.0000 </r>
       <r>    1.4001    1.0000 </r>
       <r>    1.5074    1.0000 </r>
       <r>    1.8045    1.0000 </r>
       <r>    1.8669    1.0000 </r>
       <r>    1.9907    1.0000 </r>
       <r>    2.0112    1.0000 </r>
       <r>    2.1533    1.0000 </r>
       <r>    2.1845    1.0000 </r>
       <r>    2.2115    1.0000 </r>
       <r>    2.2241    1.0000 </r>
       <r>    2.2967    1.0000 </r>
       <r>    2.5267    1.0000 </r>
       <r>    2.5448    1.0000 </r>
       <r>    2.6140    1.0000 </r>
       <r>    2.6361    1.0000 </r>
       <r>    2.7252    1.0000 </r>
       <r>    2.9344    1.0000 </r>
       <r>    3.3520    1.0000 </r>
       <r>    3.5492    1.0000 </r>
       <r>    4.3319    0.0000 </r>
       <r>    4.4651    0.0000 </r>
       <r>    5.0466    0.0000 </r>
       <r>    5.1043    0.0000 </r>
       <r>    5.1099    0.0000 </r>
       <r>    5.2924    0.0000 </r>
       <r>    5.3636    0.0000 </r>
       <r>    5.5321    0.0000 </r>
       <r>    5.7149    0.0000 </r>
       <r>    5.7965    0.0000 </r>
       <r>    6.0102    0.0000 </r>
       <r>    6.0233    0.0000 </r>
       <r>    6.1005    0.0000 </r>
       <r>    6.1136    0.0000 </r>
       <r>    6.2376    0.0000 </r>
       <r>    6.4108    0.0000 </r>
      </set>
      <set comment="kpoint 11">
       <r>  -23.9610    1.0000 </r>
       <r>  -23.9571    1.0000 </r>
       <r>  -23.9546    1.0000 </r>
       <r>  -23.9546    1.0000 </r>
       <r>  -23.8800    1.0000 </r>
       <r>  -23.8778    1.0000 </r>
       <r>  -23.8711    1.0000 </r>
       <r>  -23.8697    1.0000 </r>
       <r>   -9.5327    1.0000 </r>
       <r>   -9.5289    1.0000 </r>
       <r>   -9.5174    1.0000 </r>
       <r>   -9.4585    1.0000 </r>
       <r>   -9.4536    1.0000 </r>
       <r>   -9.4293    1.0000 </r>
       <r>   -9.4262    1.0000 </r>
       <r>   -9.3964    1.0000 </r>
       <r>   -9.3913    1.0000 </r>
       <r>   -9.3068    1.0000 </r>
       <r>   -9.3010    1.0000 </r>
       <r>   -9.2714    1.0000 </r>
       <r>   -9.2683    1.0000 </r>
       <r>   -9.2253    1.0000 </r>
       <r>   -9.2175    1.0000 </r>
       <r>   -9.2059    1.0000 </r>
       <r>   -9.1848    1.0000 </r>
       <r>   -9.1702    1.0000 </r>
       <r>   -9.1615    1.0000 </r>
       <r>   -9.1397    1.0000 </r>
       <r>   -9.1390    1.0000 </r>
       <r>   -9.1372    1.0000 </r>
       <r>   -9.1303    1.0000 </r>
       <r>   -9.1136    1.0000 </r>
       <r>   -7.0867    1.0000 </r>
       <r>   -6.9239    1.0000 </r>
       <r>   -6.9035    1.0000 </r>
       <r>   -6.8892    1.0000 </r>
       <r>   -2.4596    1.0000 </r>
       <r>   -2.4008    1.0000 </r>
       <r>   -2.3246    1.0000 </r>
       <r>   -2.2420    1.0000 </r>
       <r>   -2.2109    1.0000 </r>
       <r>   -2.1654    1.0000 </r>
       <r>   -2.1485    1.0000 </r>
       <r>   -2.0908    1.0000 </r>
       <r>   -2.0480    1.0000 </r>
       <r>   -1.9679    1.0000 </r>
       <r>   -1.9438    1.0000 </r>
       <r>   -1.7961    1.0000 </r>
       <r>    0.5388    1.0000 </r>
       <r>    1.1432    1.0000 </r>
       <r>    1.2706    1.0000 </r>
       <r>    1.3240    1.0000 </r>
       <r>    1.4067    1.0000 </r>
       <r>    1.4071    1.0000 </r>
       <r>    1.5069    1.0000 </r>
       <r>    1.7940    1.0000 </r>
       <r>    1.8533    1.0000 </r>
       <r>    1.9640    1.0000 </r>
       <r>    2.0268    1.0000 </r>
       <r>    2.1412    1.0000 </r>
       <r>    2.1671    1.0000 </r>
       <r>    2.2105    1.0000 </r>
       <r>    2.2195    1.0000 </r>
       <r>    2.3087    1.0000 </r>
       <r>    2.5586    1.0000 </r>
       <r>    2.5724    1.0000 </r>
       <r>    2.5989    1.0000 </r>
       <r>    2.6474    1.0000 </r>
       <r>    2.6887    1.0000 </r>
       <r>    2.9271    1.0000 </r>
       <r>    3.3442    1.0000 </r>
       <r>    3.5644    1.0000 </r>
       <r>    4.3452    0.0000 </r>
       <r>    4.4456    0.0000 </r>
       <r>    4.9842    0.0000 </r>
       <r>    5.0125    0.0000 </r>
       <r>    5.1587    0.0000 </r>
       <r>    5.2945    0.0000 </r>
       <r>    5.3021    0.0000 </r>
       <r>    5.5603    0.0000 </r>
       <r>    5.7135    0.0000 </r>
       <r>    5.7341    0.0000 </r>
       <r>    5.9691    0.0000 </r>
       <r>    5.9909    0.0000 </r>
       <r>    6.0379    0.0000 </r>
       <r>    6.1397    0.0000 </r>
       <r>    6.1792    0.0000 </r>
       <r>    6.3318    0.0000 </r>
      </set>
      <set comment="kpoint 12">
       <r>  -23.9605    1.0000 </r>
       <r>  -23.9570    1.0000 </r>
       <r>  -23.9547    1.0000 </r>
       <r>  -23.9547    1.0000 </r>
       <r>  -23.8801    1.0000 </r>
       <r>  -23.8781    1.0000 </r>
       <r>  -23.8710    1.0000 </r>
       <r>  -23.8698    1.0000 </r>
       <r>   -9.5345    1.0000 </r>
       <r>   -9.5295    1.0000 </r>
       <r>   -9.5154    1.0000 </r>
       <r>   -9.4646    1.0000 </r>
       <r>   -9.4628    1.0000 </r>
       <r>   -9.4342    1.0000 </r>
       <r>   -9.4277    1.0000 </r>
       <r>   -9.3937    1.0000 </r>
       <r>   -9.3932    1.0000 </r>
       <r>   -9.3088    1.0000 </r>
       <r>   -9.3026    1.0000 </r>
       <r>   -9.2692    1.0000 </r>
       <r>   -9.2686    1.0000 </r>
       <r>   -9.2257    1.0000 </r>
       <r>   -9.2209    1.0000 </r>
       <r>   -9.2066    1.0000 </r>
       <r>   -9.1782    1.0000 </r>
       <r>   -9.1666    1.0000 </r>
       <r>   -9.1632    1.0000 </r>
       <r>   -9.1393    1.0000 </r>
       <r>   -9.1377    1.0000 </r>
       <r>   -9.1366    1.0000 </r>
       <r>   -9.1273    1.0000 </r>
       <r>   -9.1136    1.0000 </r>
       <r>   -7.0671    1.0000 </r>
       <r>   -6.9214    1.0000 </r>
       <r>   -6.9028    1.0000 </r>
       <r>   -6.8901    1.0000 </r>
       <r>   -2.4476    1.0000 </r>
       <r>   -2.3802    1.0000 </r>
       <r>   -2.3595    1.0000 </r>
       <r>   -2.2376    1.0000 </r>
       <r>   -2.2047    1.0000 </r>
       <r>   -2.1864    1.0000 </r>
       <r>   -2.1365    1.0000 </r>
       <r>   -2.0890    1.0000 </r>
       <r>   -2.0404    1.0000 </r>
       <r>   -1.9656    1.0000 </r>
       <r>   -1.9333    1.0000 </r>
       <r>   -1.8065    1.0000 </r>
       <r>    0.6132    1.0000 </r>
       <r>    1.1445    1.0000 </r>
       <r>    1.2446    1.0000 </r>
       <r>    1.3380    1.0000 </r>
       <r>    1.4205    1.0000 </r>
       <r>    1.4261    1.0000 </r>
       <r>    1.5080    1.0000 </r>
       <r>    1.7836    1.0000 </r>
       <r>    1.8252    1.0000 </r>
       <r>    1.9431    1.0000 </r>
       <r>    2.0448    1.0000 </r>
       <r>    2.1069    1.0000 </r>
       <r>    2.1769    1.0000 </r>
       <r>    2.2040    1.0000 </r>
       <r>    2.2077    1.0000 </r>
       <r>    2.3316    1.0000 </r>
       <r>    2.5689    1.0000 </r>
       <r>    2.5853    1.0000 </r>
       <r>    2.6248    1.0000 </r>
       <r>    2.6580    1.0000 </r>
       <r>    2.6593    1.0000 </r>
       <r>    2.9162    1.0000 </r>
       <r>    3.3363    1.0000 </r>
       <r>    3.5732    1.0000 </r>
       <r>    4.3711    0.0000 </r>
       <r>    4.4235    0.0000 </r>
       <r>    4.9147    0.0000 </r>
       <r>    4.9190    0.0000 </r>
       <r>    5.2154    0.0000 </r>
       <r>    5.2274    0.0000 </r>
       <r>    5.3048    0.0000 </r>
       <r>    5.5892    0.0000 </r>
       <r>    5.6242    0.0000 </r>
       <r>    5.7702    0.0000 </r>
       <r>    5.9210    0.0000 </r>
       <r>    5.9697    0.0000 </r>
       <r>    5.9722    0.0000 </r>
       <r>    6.1537    0.0000 </r>
       <r>    6.1623    0.0000 </r>
       <r>    6.3240    0.0000 </r>
      </set>
      <set comment="kpoint 13">
       <r>  -23.9600    1.0000 </r>
       <r>  -23.9568    1.0000 </r>
       <r>  -23.9549    1.0000 </r>
       <r>  -23.9547    1.0000 </r>
       <r>  -23.8802    1.0000 </r>
       <r>  -23.8783    1.0000 </r>
       <r>  -23.8710    1.0000 </r>
       <r>  -23.8699    1.0000 </r>
       <r>   -9.5362    1.0000 </r>
       <r>   -9.5289    1.0000 </r>
       <r>   -9.5146    1.0000 </r>
       <r>   -9.4706    1.0000 </r>
       <r>   -9.4699    1.0000 </r>
       <r>   -9.4404    1.0000 </r>
       <r>   -9.4281    1.0000 </r>
       <r>   -9.3938    1.0000 </r>
       <r>   -9.3929    1.0000 </r>
       <r>   -9.3094    1.0000 </r>
       <r>   -9.3067    1.0000 </r>
       <r>   -9.2693    1.0000 </r>
       <r>   -9.2671    1.0000 </r>
       <r>   -9.2268    1.0000 </r>
       <r>   -9.2221    1.0000 </r>
       <r>   -9.2074    1.0000 </r>
       <r>   -9.1720    1.0000 </r>
       <r>   -9.1644    1.0000 </r>
       <r>   -9.1631    1.0000 </r>
       <r>   -9.1414    1.0000 </r>
       <r>   -9.1363    1.0000 </r>
       <r>   -9.1335    1.0000 </r>
       <r>   -9.1245    1.0000 </r>
       <r>   -9.1139    1.0000 </r>
       <r>   -7.0476    1.0000 </r>
       <r>   -6.9196    1.0000 </r>
       <r>   -6.9021    1.0000 </r>
       <r>   -6.8909    1.0000 </r>
       <r>   -2.4417    1.0000 </r>
       <r>   -2.3915    1.0000 </r>
       <r>   -2.3594    1.0000 </r>
       <r>   -2.2306    1.0000 </r>
       <r>   -2.1999    1.0000 </r>
       <r>   -2.1993    1.0000 </r>
       <r>   -2.1257    1.0000 </r>
       <r>   -2.0887    1.0000 </r>
       <r>   -2.0317    1.0000 </r>
       <r>   -1.9626    1.0000 </r>
       <r>   -1.9256    1.0000 </r>
       <r>   -1.8176    1.0000 </r>
       <r>    0.6839    1.0000 </r>
       <r>    1.1416    1.0000 </r>
       <r>    1.2236    1.0000 </r>
       <r>    1.3497    1.0000 </r>
       <r>    1.4383    1.0000 </r>
       <r>    1.4439    1.0000 </r>
       <r>    1.5106    1.0000 </r>
       <r>    1.7731    1.0000 </r>
       <r>    1.7861    1.0000 </r>
       <r>    1.9246    1.0000 </r>
       <r>    2.0647    1.0000 </r>
       <r>    2.0837    1.0000 </r>
       <r>    2.1826    1.0000 </r>
       <r>    2.1840    1.0000 </r>
       <r>    2.2048    1.0000 </r>
       <r>    2.3592    1.0000 </r>
       <r>    2.5734    1.0000 </r>
       <r>    2.5750    1.0000 </r>
       <r>    2.6335    1.0000 </r>
       <r>    2.6727    1.0000 </r>
       <r>    2.6799    1.0000 </r>
       <r>    2.9031    1.0000 </r>
       <r>    3.3294    1.0000 </r>
       <r>    3.5751    1.0000 </r>
       <r>    4.3986    0.0000 </r>
       <r>    4.4084    0.0000 </r>
       <r>    4.8199    0.0000 </r>
       <r>    4.8585    0.0000 </r>
       <r>    5.1614    0.0000 </r>
       <r>    5.2673    0.0000 </r>
       <r>    5.3019    0.0000 </r>
       <r>    5.5369    0.0000 </r>
       <r>    5.6151    0.0000 </r>
       <r>    5.8183    0.0000 </r>
       <r>    5.8771    0.0000 </r>
       <r>    5.8931    0.0000 </r>
       <r>    5.9577    0.0000 </r>
       <r>    6.1300    0.0000 </r>
       <r>    6.1732    0.0000 </r>
       <r>    6.3104    0.0000 </r>
[...]
       <r>   -9.3349    1.0000 </r>
       <r>   -9.3349    1.0000 </r>
       <r>   -9.3036    1.0000 </r>
       <r>   -9.3036    1.0000 </r>
       <r>   -9.2027    1.0000 </r>
       <r>   -9.2027    1.0000 </r>
       <r>   -9.1773    1.0000 </r>
       <r>   -9.1773    1.0000 </r>
       <r>   -9.1736    1.0000 </r>
       <r>   -9.1736    1.0000 </r>
       <r>   -9.1481    1.0000 </r>
       <r>   -9.1481    1.0000 </r>
       <r>   -9.1337    1.0000 </r>
       <r>   -9.1337    1.0000 </r>
       <r>   -7.0188    1.0000 </r>
       <r>   -7.0188    1.0000 </r>
       <r>   -6.8908    1.0000 </r>
       <r>   -6.8908    1.0000 </r>
       <r>   -2.5420    1.0000 </r>
       <r>   -2.5420    1.0000 </r>
       <r>   -2.3918    1.0000 </r>
       <r>   -2.3918    1.0000 </r>
       <r>   -2.1502    1.0000 </r>
       <r>   -2.1502    1.0000 </r>
       <r>   -2.1192    1.0000 </r>
       <r>   -2.1192    1.0000 </r>
       <r>   -2.0366    1.0000 </r>
       <r>   -2.0366    1.0000 </r>
       <r>   -2.0207    1.0000 </r>
       <r>   -2.0207    1.0000 </r>
       <r>    0.6926    1.0000 </r>
       <r>    0.6926    1.0000 </r>
       <r>    1.1327    1.0000 </r>
       <r>    1.1327    1.0000 </r>
       <r>    1.6383    1.0000 </r>
       <r>    1.6383    1.0000 </r>
       <r>    1.9686    1.0000 </r>
       <r>    1.9686    1.0000 </r>
       <r>    2.0222    1.0000 </r>
       <r>    2.0222    1.0000 </r>
       <r>    2.2245    1.0000 </r>
       <r>    2.2245    1.0000 </r>
       <r>    2.4125    1.0000 </r>
       <r>    2.4125    1.0000 </r>
       <r>    2.4201    1.0000 </r>
       <r>    2.4201    1.0000 </r>
       <r>    2.5756    1.0000 </r>
       <r>    2.5756    1.0000 </r>
       <r>    2.7622    1.0000 </r>
       <r>    2.7622    1.0000 </r>
       <r>    2.9913    1.0000 </r>
       <r>    2.9913    1.0000 </r>
       <r>    3.0299    1.0000 </r>
       <r>    3.0299    1.0000 </r>
       <r>    4.7648    0.0000 </r>
       <r>    4.7648    0.0000 </r>
       <r>    4.8177    0.0000 </r>
       <r>    4.8177    0.0000 </r>
       <r>    4.8386    0.0000 </r>
       <r>    4.8386    0.0000 </r>
       <r>    5.2253    0.0000 </r>
       <r>    5.2253    0.0000 </r>
       <r>    5.9014    0.0000 </r>
       <r>    5.9014    0.0000 </r>
       <r>    6.0020    0.0000 </r>
       <r>    6.0022    0.0000 </r>
       <r>    6.0912    0.0000 </r>
       <r>    6.0915    0.0000 </r>
       <r>    6.7503    0.0000 </r>
       <r>    6.7752    0.0000 </r>
      </set>
     </set>
    </set>
   </array>
  </eigenvalues>
  <separator name="orbital magnetization" >
   <v name="MAGDIPOLOUT">      0.00000000      0.00000000      0.00000000</v>
  </separator>
  <dos>
   <i name="efermi">      3.63757961 </i>
   <total>
    <array>
     <dimension dim="1">gridpoints</dimension>
     <dimension dim="2">spin</dimension>
     <field>energy</field>
     <field>total</field>
     <field>integrated</field>
     <set>
      <set comment="spin 1">
       <r>   -25.5024     0.0000     0.0000 </r>
       <r>   -25.3895     0.0000     0.0000 </r>
       <r>   -25.2767     0.0000     0.0000 </r>
       <r>   -25.1639     0.0000     0.0000 </r>
       <r>   -25.0510     0.0000     0.0000 </r>
       <r>   -24.9382     0.0000     0.0000 </r>
       <r>   -24.8253     0.0000     0.0000 </r>
       <r>   -24.7125     0.0000     0.0000 </r>
       <r>   -24.5997     0.0000     0.0000 </r>
       <r>   -24.4868     0.0000     0.0000 </r>
       <r>   -24.3740     0.0000     0.0000 </r>
       <r>   -24.2612     0.0000     0.0000 </r>
       <r>   -24.1483     0.0000     0.0000 </r>
       <r>   -24.0355     0.0000     0.0000 </r>
       <r>   -23.9227    70.8991     8.0000 </r>
       <r>   -23.8098    70.8992    16.0000 </r>
       <r>   -23.6970     0.0000    16.0000 </r>
       <r>   -23.5842     0.0000    16.0000 </r>
       <r>   -23.4713     0.0000    16.0000 </r>
       <r>   -23.3585     0.0000    16.0000 </r>
       <r>   -23.2456     0.0000    16.0000 </r>
       <r>   -23.1328     0.0000    16.0000 </r>
       <r>   -23.0200     0.0000    16.0000 </r>
       <r>   -22.9071     0.0000    16.0000 </r>
       <r>   -22.7943     0.0000    16.0000 </r>
       <r>   -22.6815     0.0000    16.0000 </r>
       <r>   -22.5686     0.0000    16.0000 </r>
       <r>   -22.4558     0.0000    16.0000 </r>
       <r>   -22.3430     0.0000    16.0000 </r>
       <r>   -22.2301     0.0000    16.0000 </r>
       <r>   -22.1173     0.0000    16.0000 </r>
       <r>   -22.0044     0.0000    16.0000 </r>
       <r>   -21.8916     0.0000    16.0000 </r>
       <r>   -21.7788     0.0000    16.0000 </r>
       <r>   -21.6659     0.0000    16.0000 </r>
       <r>   -21.5531     0.0000    16.0000 </r>
       <r>   -21.4403     0.0000    16.0000 </r>
       <r>   -21.3274     0.0000    16.0000 </r>
       <r>   -21.2146     0.0000    16.0000 </r>
       <r>   -21.1018     0.0000    16.0000 </r>
       <r>   -20.9889     0.0000    16.0000 </r>
       <r>   -20.8761     0.0000    16.0000 </r>
       <r>   -20.7632     0.0000    16.0000 </r>
       <r>   -20.6504     0.0000    16.0000 </r>
       <r>   -20.5376     0.0000    16.0000 </r>
       <r>   -20.4247     0.0000    16.0000 </r>
       <r>   -20.3119     0.0000    16.0000 </r>
       <r>   -20.1991     0.0000    16.0000 </r>
       <r>   -20.0862     0.0000    16.0000 </r>
       <r>   -19.9734     0.0000    16.0000 </r>
       <r>   -19.8606     0.0000    16.0000 </r>
       <r>   -19.7477     0.0000    16.0000 </r>
       <r>   -19.6349     0.0000    16.0000 </r>
       <r>   -19.5220     0.0000    16.0000 </r>
       <r>   -19.4092     0.0000    16.0000 </r>
       <r>   -19.2964     0.0000    16.0000 </r>
       <r>   -19.1835     0.0000    16.0000 </r>
       <r>   -19.0707     0.0000    16.0000 </r>
       <r>   -18.9579     0.0000    16.0000 </r>
       <r>   -18.8450     0.0000    16.0000 </r>
       <r>   -18.7322     0.0000    16.0000 </r>
       <r>   -18.6194     0.0000    16.0000 </r>
       <r>   -18.5065     0.0000    16.0000 </r>
       <r>   -18.3937     0.0000    16.0000 </r>
       <r>   -18.2808     0.0000    16.0000 </r>
       <r>   -18.1680     0.0000    16.0000 </r>
       <r>   -18.0552     0.0000    16.0000 </r>
       <r>   -17.9423     0.0000    16.0000 </r>
       <r>   -17.8295     0.0000    16.0000 </r>
       <r>   -17.7167     0.0000    16.0000 </r>
       <r>   -17.6038     0.0000    16.0000 </r>
       <r>   -17.4910     0.0000    16.0000 </r>
       <r>   -17.3782     0.0000    16.0000 </r>
       <r>   -17.2653     0.0000    16.0000 </r>
       <r>   -17.1525     0.0000    16.0000 </r>
       <r>   -17.0397     0.0000    16.0000 </r>
       <r>   -16.9268     0.0000    16.0000 </r>
       <r>   -16.8140     0.0000    16.0000 </r>
       <r>   -16.7011     0.0000    16.0000 </r>
       <r>   -16.5883     0.0000    16.0000 </r>
       <r>   -16.4755     0.0000    16.0000 </r>
       <r>   -16.3626     0.0000    16.0000 </r>
       <r>   -16.2498     0.0000    16.0000 </r>
       <r>   -16.1370     0.0000    16.0000 </r>
       <r>   -16.0241     0.0000    16.0000 </r>
       <r>   -15.9113     0.0000    16.0000 </r>
       <r>   -15.7985     0.0000    16.0000 </r>
       <r>   -15.6856     0.0000    16.0000 </r>
       <r>   -15.5728     0.0000    16.0000 </r>
       <r>   -15.4599     0.0000    16.0000 </r>
       <r>   -15.3471     0.0000    16.0000 </r>
       <r>   -15.2343     0.0000    16.0000 </r>
       <r>   -15.1214     0.0000    16.0000 </r>
       <r>   -15.0086     0.0000    16.0000 </r>
       <r>   -14.8958     0.0000    16.0000 </r>
       <r>   -14.7829     0.0000    16.0000 </r>
       <r>   -14.6701     0.0000    16.0000 </r>
       <r>   -14.5573     0.0000    16.0000 </r>
       <r>   -14.4444     0.0000    16.0000 </r>
       <r>   -14.3316     0.0000    16.0000 </r>
       <r>   -14.2187     0.0000    16.0000 </r>
       <r>   -14.1059     0.0000    16.0000 </r>
       <r>   -13.9931     0.0000    16.0000 </r>
       <r>   -13.8802     0.0000    16.0000 </r>
       <r>   -13.7674     0.0000    16.0000 </r>
       <r>   -13.6546     0.0000    16.0000 </r>
       <r>   -13.5417     0.0000    16.0000 </r>
       <r>   -13.4289     0.0000    16.0000 </r>
       <r>   -13.3161     0.0000    16.0000 </r>
       <r>   -13.2032     0.0000    16.0000 </r>
       <r>   -13.0904     0.0000    16.0000 </r>
       <r>   -12.9775     0.0000    16.0000 </r>
       <r>   -12.8647     0.0000    16.0000 </r>
       <r>   -12.7519     0.0000    16.0000 </r>
       <r>   -12.6390     0.0000    16.0000 </r>
       <r>   -12.5262     0.0000    16.0000 </r>
       <r>   -12.4134     0.0000    16.0000 </r>
       <r>   -12.3005     0.0000    16.0000 </r>
       <r>   -12.1877     0.0000    16.0000 </r>
       <r>   -12.0749     0.0000    16.0000 </r>
       <r>   -11.9620     0.0000    16.0000 </r>
       <r>   -11.8492     0.0000    16.0000 </r>
       <r>   -11.7364     0.0000    16.0000 </r>
       <r>   -11.6235     0.0000    16.0000 </r>
       <r>   -11.5107     0.0000    16.0000 </r>
       <r>   -11.3978     0.0000    16.0000 </r>
       <r>   -11.2850     0.0000    16.0000 </r>
       <r>   -11.1722     0.0000    16.0000 </r>
       <r>   -11.0593     0.0000    16.0000 </r>
       <r>   -10.9465     0.0000    16.0000 </r>
       <r>   -10.8337     0.0000    16.0000 </r>
       <r>   -10.7208     0.0000    16.0000 </r>
       <r>   -10.6080     0.0000    16.0000 </r>
       <r>   -10.4952     0.0000    16.0000 </r>
       <r>   -10.3823     0.0000    16.0000 </r>
       <r>   -10.2695     0.0000    16.0000 </r>
       <r>   -10.1566     0.0000    16.0000 </r>
       <r>   -10.0438     0.0000    16.0000 </r>
       <r>    -9.9310     0.0000    16.0000 </r>
       <r>    -9.8181     0.0000    16.0000 </r>
       <r>    -9.7053     0.0000    16.0000 </r>
       <r>    -9.5925     0.0000    16.0000 </r>
       <r>    -9.4796    49.8496    21.6248 </r>
       <r>    -9.3668    68.7596    32.0586 </r>
       <r>    -9.2540    60.6083    41.8388 </r>
       <r>    -9.1411   111.1898    56.9862 </r>
       <r>    -9.0283     0.0000    64.0000 </r>
       <r>    -8.9154     0.0000    64.0000 </r>
       <r>    -8.8026     0.0000    64.0000 </r>
       <r>    -8.6898     0.0000    64.0000 </r>
       <r>    -8.5769     0.0000    64.0000 </r>
       <r>    -8.4641     0.0000    64.0000 </r>
       <r>    -8.3513     0.0000    64.0000 </r>
       <r>    -8.2384     0.0000    64.0000 </r>
       <r>    -8.1256     0.0000    64.0000 </r>
       <r>    -8.0128     0.0000    64.0000 </r>
       <r>    -7.8999     0.0000    64.0000 </r>
       <r>    -7.7871     0.0000    64.0000 </r>
       <r>    -7.6742     0.0000    64.0000 </r>
       <r>    -7.5614     0.0000    64.0000 </r>
       <r>    -7.4486     0.0000    64.0000 </r>
       <r>    -7.3357     0.0000    64.0000 </r>
       <r>    -7.2229     0.0527    64.0059 </r>
       <r>    -7.1101     3.6075    64.7471 </r>
       <r>    -6.9972     7.1126    65.6826 </r>
       <r>    -6.8844    49.3847    71.5924 </r>
       <r>    -6.7716     0.0000    72.0000 </r>
       <r>    -6.6587     0.0000    72.0000 </r>
       <r>    -6.5459     0.0000    72.0000 </r>
       <r>    -6.4331     0.0000    72.0000 </r>
       <r>    -6.3202     0.0000    72.0000 </r>
       <r>    -6.2074     0.0000    72.0000 </r>
       <r>    -6.0945     0.0000    72.0000 </r>
       <r>    -5.9817     0.0000    72.0000 </r>
       <r>    -5.8689     0.0000    72.0000 </r>
       <r>    -5.7560     0.0000    72.0000 </r>
       <r>    -5.6432     0.0000    72.0000 </r>
       <r>    -5.5304     0.0000    72.0000 </r>
       <r>    -5.4175     0.0000    72.0000 </r>
       <r>    -5.3047     0.0000    72.0000 </r>
       <r>    -5.1919     0.0000    72.0000 </r>
       <r>    -5.0790     0.0000    72.0000 </r>
       <r>    -4.9662     0.0000    72.0000 </r>
       <r>    -4.8533     0.0000    72.0000 </r>
       <r>    -4.7405     0.0000    72.0000 </r>
       <r>    -4.6277     0.0000    72.0000 </r>
       <r>    -4.5148     0.0000    72.0000 </r>
       <r>    -4.4020     0.0000    72.0000 </r>
       <r>    -4.2892     0.0000    72.0000 </r>
       <r>    -4.1763     0.0000    72.0000 </r>
       <r>    -4.0635     0.0000    72.0000 </r>
       <r>    -3.9507     0.0000    72.0000 </r>
       <r>    -3.8378     0.0000    72.0000 </r>
       <r>    -3.7250     0.0000    72.0000 </r>
       <r>    -3.6121     0.0000    72.0000 </r>
       <r>    -3.4993     0.0000    72.0000 </r>
       <r>    -3.3865     0.0000    72.0000 </r>
       <r>    -3.2736     0.0000    72.0000 </r>
       <r>    -3.1608     0.0000    72.0000 </r>
       <r>    -3.0480     0.0000    72.0000 </r>
       <r>    -2.9351     0.0000    72.0000 </r>
       <r>    -2.8223     0.0000    72.0000 </r>
       <r>    -2.7095     0.0000    72.0000 </r>
       <r>    -2.5966     0.9098    72.1027 </r>
       <r>    -2.4838    15.5305    74.8124 </r>
       <r>    -2.3709     9.1720    76.2349 </r>
       <r>    -2.2581     7.2980    77.4835 </r>
       <r>    -2.1453    40.6425    83.7259 </r>
       <r>    -2.0324    26.0850    88.6033 </r>
       <r>    -1.9196    23.0383    93.1196 </r>
       <r>    -1.8068    10.0994    95.0596 </r>
       <r>    -1.6939     4.7857    96.0000 </r>
       <r>    -1.5811     0.0000    96.0000 </r>
       <r>    -1.4683     0.0000    96.0000 </r>
       <r>    -1.3554     0.0000    96.0000 </r>
       <r>    -1.2426     0.0000    96.0000 </r>
       <r>    -1.1297     0.0000    96.0000 </r>
       <r>    -1.0169     0.0000    96.0000 </r>
       <r>    -0.9041     0.0000    96.0000 </r>
       <r>    -0.7912     0.0000    96.0000 </r>
       <r>    -0.6784     0.0000    96.0000 </r>
       <r>    -0.5656     0.0000    96.0000 </r>
       <r>    -0.4527     0.0000    96.0000 </r>
       <r>    -0.3399     0.0000    96.0000 </r>
       <r>    -0.2271     0.0000    96.0000 </r>
       <r>    -0.1142     0.0000    96.0000 </r>
       <r>    -0.0014     0.0524    96.0059 </r>
       <r>     0.1114     1.5848    96.3588 </r>
       <r>     0.2243     0.9911    96.5318 </r>
       <r>     0.3371     0.8311    96.6738 </r>
       <r>     0.4500     0.8586    96.7969 </r>
       <r>     0.5628     0.8219    96.9327 </r>
       <r>     0.6756     2.6014    97.2535 </r>
       <r>     0.7885     1.4040    97.5384 </r>
       <r>     0.9013     1.6598    97.8073 </r>
       <r>     1.0141     2.8782    98.2048 </r>
       <r>     1.1270    10.2706   100.2389 </r>
       <r>     1.2398     8.4665   101.8953 </r>
       <r>     1.3526    16.9095   104.5080 </r>
       <r>     1.4655    14.9000   106.5613 </r>
       <r>     1.5783    12.7434   108.6179 </r>
       <r>     1.6912     6.4023   109.7224 </r>
       <r>     1.8040    17.5887   111.9246 </r>
       <r>     1.9168    23.3624   115.1161 </r>
       <r>     2.0297    14.4671   117.3324 </r>
       <r>     2.1425    20.5121   120.1545 </r>
       <r>     2.2553    14.1501   122.8966 </r>
       <r>     2.3682    20.8479   125.6324 </r>
       <r>     2.4810    21.5920   128.7164 </r>
       <r>     2.5938    27.2392   132.9136 </r>
       <r>     2.7067    12.6071   135.2025 </r>
       <r>     2.8195    10.6874   136.6459 </r>
       <r>     2.9324     9.0488   138.0810 </r>
       <r>     3.0452     4.8204   139.2039 </r>
       <r>     3.1580     4.2365   139.9580 </r>
       <r>     3.2709     6.9824   141.1079 </r>
       <r>     3.3837    15.2234   143.2378 </r>
       <r>     3.4965     1.8028   143.8034 </r>
       <r>     3.6094     1.2407   144.0000 </r>
       <r>     3.7222     0.0000   144.0000 </r>
       <r>     3.8350     0.0000   144.0000 </r>
       <r>     3.9479     0.0000   144.0000 </r>
       <r>     4.0607     0.0000   144.0000 </r>
       <r>     4.1736     0.0000   144.0000 </r>
       <r>     4.2864     2.4532   144.2768 </r>
       <r>     4.3992     7.9623   145.3584 </r>
       <r>     4.5121     5.2160   146.4086 </r>
       <r>     4.6249     6.9717   147.9067 </r>
       <r>     4.7377     5.5818   148.7698 </r>
       <r>     4.8506     8.5959   150.2899 </r>
       <r>     4.9634     6.0500   151.6627 </r>
       <r>     5.0762     7.7923   152.7593 </r>
       <r>     5.1891     6.0572   154.0835 </r>
       <r>     5.3019    12.3865   155.7576 </r>
       <r>     5.4147     5.7287   156.9664 </r>
       <r>     5.5276     6.7646   158.2233 </r>
       <r>     5.6404    11.3777   159.7038 </r>
       <r>     5.7533    12.2687   161.5644 </r>
       <r>     5.8661    10.0626   163.2554 </r>
       <r>     5.9789    13.4356   165.3360 </r>
       <r>     6.0918    13.1051   167.4987 </r>
       <r>     6.2046    23.7920   170.7846 </r>
       <r>     6.3174    11.3672   172.6626 </r>
       <r>     6.4303     7.7878   173.8987 </r>
       <r>     6.5431     4.5534   174.7138 </r>
       <r>     6.6559     4.9153   175.5546 </r>
       <r>     6.7688     1.3724   175.9149 </r>
       <r>     6.8816     0.3545   176.0000 </r>
       <r>     6.9945     0.0000   176.0000 </r>
       <r>     7.1073     0.0000   176.0000 </r>
       <r>     7.2201     0.0000   176.0000 </r>
       <r>     7.3330     0.0000   176.0000 </r>
       <r>     7.4458     0.0000   176.0000 </r>
       <r>     7.5586     0.0000   176.0000 </r>
       <r>     7.6715     0.0000   176.0000 </r>
       <r>     7.7843     0.0000   176.0000 </r>
       <r>     7.8971     0.0000   176.0000 </r>
       <r>     8.0100     0.0000   176.0000 </r>
       <r>     8.1228     0.0000   176.0000 </r>
       <r>     8.2357     0.0000   176.0000 </r>
       <r>     8.3485     0.0000   176.0000 </r>
      </set>
     </set>
    </array>
   </total>
  </dos>
 </calculation>
 <structure name="finalpos" >
  <crystal>
   <varray name="basis" >
    <v>       8.90826050       0.00000000       0.00000000 </v>
    <v>       0.00000000       6.72686198       0.00000000 </v>
    <v>       0.00000000       0.00000000      11.50561267 </v>
   </varray>
   <i name="volume">    689.46968423 </i>
   <varray name="rec_basis" >
    <v>       0.11225536       0.00000000       0.00000000 </v>
    <v>       0.00000000       0.14865773       0.00000000 </v>
    <v>       0.00000000       0.00000000       0.08691410 </v>
   </varray>
  </crystal>
  <varray name="positions" >
   <v>       0.01536406       0.25000000       0.69213186 </v>
   <v>       0.98463594       0.75000002       0.30786814 </v>
   <v>       0.48463594       0.75000002       0.19213180 </v>
   <v>       0.51536406       0.25000000       0.80786818 </v>
   <v>       0.16070224       0.75000002       0.90650282 </v>
   <v>       0.83929776       0.25000000       0.09349716 </v>
   <v>       0.33929776       0.25000000       0.40650290 </v>
   <v>       0.66070224       0.75000002       0.59349714 </v>
   <v>       0.19345800       0.07100390       0.14637424 </v>
   <v>       0.80654200       0.92899609       0.85362574 </v>
   <v>       0.30654200       0.92899609       0.64637426 </v>
   <v>       0.69345800       0.07100390       0.35362574 </v>
   <v>       0.80654200       0.57100391       0.85362574 </v>
   <v>       0.19345800       0.42899609       0.14637424 </v>
   <v>       0.69345800       0.42899609       0.35362574 </v>
   <v>       0.30654200       0.57100391       0.64637426 </v>
   <v>       0.08126801       0.75000002       0.59096745 </v>
   <v>       0.91873197       0.25000000       0.40903255 </v>
   <v>       0.41873200       0.25000000       0.09096738 </v>
   <v>       0.58126803       0.75000002       0.90903260 </v>
   <v>       0.19639773       0.25000000       0.96492478 </v>
   <v>       0.80360225       0.75000002       0.03507524 </v>
   <v>       0.30360225       0.75000002       0.46492469 </v>
   <v>       0.69639775       0.25000000       0.53507522 </v>
  </varray>
 </structure>
</modeling>
