<?xml version="1.0" encoding="ISO-8859-1"?>
<modeling>
 <generator>
  <i name="program" type="string">vasp </i>
  <i name="version" type="string">5.4.4.18Apr17-6-g9f103f2a35  </i>
  <i name="subversion" type="string">(build Nov 21 2017 15:30:27) complex            parallel </i>
  <i name="platform" type="string">LinuxIFC </i>
  <i name="date" type="string">2021 03 17 </i>
  <i name="time" type="string">17:08:01 </i>
 </generator>
 <incar>
  <i type="string" name="PREC">normal</i>
  <i type="int" name="ICHARG">    11</i>
  <i type="int" name="NELM">   100</i>
  <i name="EDIFF">      0.00000100</i>
  <i name="EDIFFG">     -0.01000000</i>
  <i name="ENCUT">    500.00000000</i>
  <i name="POTIM">      0.30000000</i>
  <i type="string" name="LREAL"> Auto       ! Projection in reciprocal s</i>
  <i type="int" name="ISMEAR">     0</i>
  <i name="SIGMA">      0.01000000</i>
  <i type="logical" name="LWAVE"> T  </i>
  <i type="logical" name="LCHARG"> T  </i>
  <i type="logical" name="LASPH"> T  </i>
  <v type="int" name="KPOINT_BSE">    -1     0     0     0</v>
  <i type="int" name="NELM">   100</i>
  <i type="string" name="GGA"> MK</i>
  <i name="PARAM1">      0.12340000</i>
  <i name="PARAM2">      0.71135700</i>
  <i type="logical" name="LUSE_VDW"> T  </i>
  <i name="Zab_VDW">     -1.88670000</i>
  <i name="AGGAC">      0.00000000</i>
  <i type="logical" name="LASPH"> T  </i>
 </incar>
 <structure name="primitive_cell" >
  <crystal>
   <varray name="basis" >
    <v>      70.49757494       0.00000000       0.09446213 </v>
    <v>       0.00000000       6.70529623       0.00000000 </v>
    <v>       0.01565223       0.00000000      11.48802326 </v>
   </varray>
   <i name="volume">   5430.46051499 </i>
   <varray name="rec_basis" >
    <v>       0.01418491       0.00000000      -0.00001933 </v>
    <v>       0.00000000       0.14913584       0.00000000 </v>
    <v>      -0.00011664       0.00000000       0.08704734 </v>
   </varray>
  </crystal>
  <varray name="positions" >
   <v>       0.01493016       0.25000000      -0.29296567 </v>
   <v>       0.03353465       0.25000000      -0.03225043 </v>
   <v>       0.04961206      -0.42838433      -0.35252774 </v>
   <v>       0.04961206      -0.07161567      -0.35252774 </v>
   <v>       0.01961238      -0.24999998      -0.37563379 </v>
   <v>       0.03747086      -0.24999998      -0.08282322 </v>
   <v>       0.05409974       0.25000000       0.40019363 </v>
   <v>       0.07605721       0.25000000      -0.18721651 </v>
   <v>       0.04307428      -0.24999998       0.46773254 </v>
   <v>       0.03338177       0.42831005       0.14999810 </v>
   <v>       0.03338177       0.07168994       0.14999810 </v>
   <v>       0.06241661       0.25000000       0.08673087 </v>
   <v>       0.09837888       0.25000000      -0.46059103 </v>
   <v>       0.08515364      -0.24999998      -0.08621165 </v>
   <v>       0.09432750      -0.24999998      -0.40016336 </v>
   <v>       0.09798820       0.43057534       0.35758142 </v>
   <v>       0.09798820       0.06942465       0.35758142 </v>
   <v>       0.11340818      -0.43018216      -0.14140712 </v>
   <v>       0.11340818      -0.06981784      -0.14140712 </v>
   <v>       0.07024663      -0.24999998       0.19752537 </v>
   <v>       0.11629527       0.25000000       0.09749601 </v>
   <v>       0.12634001       0.25000000       0.41270727 </v>
   <v>       0.11245755      -0.24999998       0.04098909 </v>
   <v>       0.13925358       0.25000000      -0.30532175 </v>
   <v>       0.14768399      -0.24999998      -0.40459152 </v>
   <v>       0.13515848      -0.24999998       0.31217289 </v>
   <v>       0.16208322       0.25000000      -0.03178259 </v>
   <v>       0.15779161      -0.24999998      -0.08991195 </v>
   <v>       0.17617358      -0.42976865      -0.35071961 </v>
   <v>       0.17617358      -0.07023135      -0.35071961 </v>
   <v>       0.16146604       0.42951837       0.14967268 </v>
   <v>       0.16146604       0.07048162       0.14967268 </v>
   <v>       0.17569530      -0.24999998       0.46777598 </v>
   <v>       0.18036967       0.25000000       0.40864696 </v>
   <v>       0.19003267       0.25000000       0.09554753 </v>
   <v>       0.20265139       0.25000000      -0.18783093 </v>
   <v>       0.21126017      -0.24999998      -0.08737424 </v>
   <v>       0.19862684      -0.24999998       0.19535033 </v>
   <v>       0.22097626      -0.24999998      -0.40241496 </v>
   <v>       0.22556246       0.25000000      -0.46122747 </v>
   <v>       0.22517899       0.42987185       0.35717134 </v>
   <v>       0.22517899       0.07012814       0.35717134 </v>
   <v>       0.23974194      -0.42975473      -0.14269481 </v>
   <v>       0.23974194      -0.07024527      -0.14269481 </v>
   <v>       0.23927976      -0.24999998       0.03889917 </v>
   <v>       0.24393321       0.25000000       0.09737422 </v>
   <v>       0.25363457       0.25000000       0.41211323 </v>
   <v>       0.26620176       0.25000000      -0.30556384 </v>
   <v>      -0.23682490       0.25000000       0.37563379 </v>
   <v>       0.26229427      -0.24999998       0.31126544 </v>
   <v>      -0.23214262      -0.24999998       0.29296567 </v>
   <v>       0.27484860      -0.24999998      -0.40593197 </v>
   <v>      -0.25059426      -0.42831005      -0.14999812 </v>
   <v>      -0.25059426      -0.07168995      -0.14999812 </v>
   <v>      -0.25074716      -0.24999998       0.03225044 </v>
   <v>       0.28461467      -0.24999998      -0.09164078 </v>
   <v>      -0.25468336       0.25000000       0.08282320 </v>
   <v>      -0.26028677       0.25000000      -0.46773263 </v>
   <v>       0.28925340       0.25000000      -0.03317613 </v>
   <v>       0.28879877       0.42962128       0.14848241 </v>
   <v>       0.28879877       0.07037871       0.14848241 </v>
   <v>      -0.26682451       0.42838433       0.35252774 </v>
   <v>      -0.26682451       0.07161566       0.35252774 </v>
   <v>       0.30332570      -0.42977270      -0.35163128 </v>
   <v>       0.30332570      -0.07022730      -0.35163128 </v>
   <v>      -0.27131219      -0.24999998      -0.40019359 </v>
   <v>       0.30285721      -0.24999998       0.46673412 </v>
   <v>       0.30751386       0.25000000       0.40791758 </v>
   <v>      -0.27962910      -0.24999998      -0.08673089 </v>
   <v>      -0.28745912       0.25000000      -0.19752539 </v>
   <v>       0.31728047       0.25000000       0.09317590 </v>
   <v>       0.32982903       0.25000000      -0.19005983 </v>
   <v>      -0.29326967      -0.24999998       0.18721649 </v>
   <v>      -0.30236615       0.25000000       0.08621163 </v>
   <v>       0.32586957      -0.24999998       0.19319007 </v>
   <v>       0.33840466      -0.24999998      -0.09002702 </v>
   <v>      -0.31154000       0.25000000       0.40016340 </v>
   <v>      -0.31520069      -0.43057534      -0.35758142 </v>
   <v>      -0.31520069      -0.06942466      -0.35758142 </v>
   <v>      -0.31559133      -0.24999998       0.46059095 </v>
   <v>       0.34817087      -0.24999998      -0.40481375 </v>
   <v>       0.35285382       0.25000000      -0.46361777 </v>
   <v>       0.35235871       0.42978467       0.35481674 </v>
   <v>       0.35235871       0.07021532       0.35481674 </v>
   <v>      -0.32967004       0.25000000      -0.04098907 </v>
   <v>      -0.33062069       0.43018216       0.14140710 </v>
   <v>      -0.33062069       0.06981783       0.14140710 </v>
   <v>      -0.33350778      -0.24999998      -0.09749604 </v>
   <v>       0.36689357      -0.42976000      -0.14543608 </v>
   <v>       0.36689357      -0.07024000      -0.14543608 </v>
   <v>       0.36644247      -0.24999998       0.03614578 </v>
   <v>       0.37105644       0.25000000       0.09471176 </v>
   <v>      -0.34355249      -0.24999998      -0.41270727 </v>
   <v>      -0.35237097       0.25000000      -0.31217289 </v>
   <v>       0.38084898       0.25000000       0.40898086 </v>
   <v>       0.39337814       0.25000000      -0.30829490 </v>
   <v>      -0.35646604      -0.24999998       0.30532175 </v>
   <v>       0.38940939      -0.24999998       0.30829490 </v>
   <v>      -0.36489645       0.25000000       0.40459152 </v>
   <v>       0.40193855      -0.24999998      -0.40898086 </v>
   <v>      -0.37500411       0.25000000       0.08991193 </v>
   <v>      -0.37867852      -0.42951837      -0.14967270 </v>
   <v>      -0.37867852      -0.07048163      -0.14967270 </v>
   <v>      -0.37929566      -0.24999998       0.03178260 </v>
   <v>       0.41173109      -0.24999998      -0.09471178 </v>
   <v>       0.41634506       0.25000000      -0.03614577 </v>
   <v>       0.41589396       0.42976000       0.14543606 </v>
   <v>       0.41589396       0.07023999       0.14543606 </v>
   <v>      -0.39290773       0.25000000      -0.46777606 </v>
   <v>      -0.39338602       0.42976865       0.35071961 </v>
   <v>      -0.39338602       0.07023135       0.35071961 </v>
   <v>      -0.39758211      -0.24999998      -0.40864692 </v>
   <v>       0.43042881      -0.42978467      -0.35481674 </v>
   <v>       0.43042881      -0.07021533      -0.35481674 </v>
   <v>       0.42993374      -0.24999998       0.46361768 </v>
   <v>       0.43461666       0.25000000       0.40481379 </v>
   <v>      -0.40724509      -0.24999998      -0.09554755 </v>
   <v>      -0.41583931       0.25000000      -0.19535035 </v>
   <v>       0.44438287       0.25000000       0.09002700 </v>
   <v>       0.45691796       0.25000000      -0.19319009 </v>
   <v>      -0.41986383      -0.24999998       0.18783091 </v>
   <v>      -0.42847264       0.25000000       0.08737422 </v>
   <v>       0.45295852      -0.24999998       0.19005981 </v>
   <v>       0.46550705      -0.24999998      -0.09317592 </v>
   <v>      -0.43818869       0.25000000       0.40241500 </v>
   <v>      -0.44239142      -0.42987185      -0.35717134 </v>
   <v>      -0.44239142      -0.07012815      -0.35717134 </v>
   <v>      -0.44277492      -0.24999998       0.46122738 </v>
   <v>       0.47527370      -0.24999998      -0.40791754 </v>
   <v>       0.47993032       0.25000000      -0.46673420 </v>
   <v>       0.47946186       0.42977270       0.35163128 </v>
   <v>       0.47946186       0.07022729       0.35163128 </v>
   <v>      -0.45649218       0.25000000      -0.03889915 </v>
   <v>      -0.45695438       0.42975473       0.14269479 </v>
   <v>      -0.45695438       0.07024526       0.14269479 </v>
   <v>      -0.46114565      -0.24999998      -0.09737424 </v>
   <v>       0.49398876      -0.42962128      -0.14848243 </v>
   <v>       0.49398876      -0.07037872      -0.14848243 </v>
   <v>       0.49353415      -0.24999998       0.03317614 </v>
   <v>       0.49817286       0.25000000       0.09164076 </v>
   <v>      -0.47084707      -0.24999998      -0.41211323 </v>
   <v>      -0.47950671       0.25000000      -0.31126544 </v>
   <v>      -0.49206107       0.25000000       0.40593197 </v>
   <v>      -0.48341420      -0.24999998       0.30556384 </v>
  </varray>
 </structure>
 <varray name="primitive_index" >
  <v type="int" >        1 </v>
  <v type="int" >      121 </v>
  <v type="int" >       91 </v>
  <v type="int" >       61 </v>
  <v type="int" >       97 </v>
  <v type="int" >       25 </v>
  <v type="int" >       37 </v>
  <v type="int" >       19 </v>
  <v type="int" >      133 </v>
  <v type="int" >       79 </v>
  <v type="int" >       49 </v>
  <v type="int" >      109 </v>
  <v type="int" >      139 </v>
  <v type="int" >      115 </v>
  <v type="int" >       43 </v>
  <v type="int" >       85 </v>
  <v type="int" >       67 </v>
  <v type="int" >       73 </v>
  <v type="int" >       55 </v>
  <v type="int" >       13 </v>
  <v type="int" >       31 </v>
  <v type="int" >      103 </v>
  <v type="int" >      127 </v>
  <v type="int" >        2 </v>
  <v type="int" >       98 </v>
  <v type="int" >        7 </v>
  <v type="int" >      122 </v>
  <v type="int" >       26 </v>
  <v type="int" >       92 </v>
  <v type="int" >       62 </v>
  <v type="int" >       80 </v>
  <v type="int" >       50 </v>
  <v type="int" >      134 </v>
  <v type="int" >       38 </v>
  <v type="int" >      110 </v>
  <v type="int" >       20 </v>
  <v type="int" >      116 </v>
  <v type="int" >       14 </v>
  <v type="int" >       44 </v>
  <v type="int" >      140 </v>
  <v type="int" >       86 </v>
  <v type="int" >       68 </v>
  <v type="int" >       74 </v>
  <v type="int" >       56 </v>
  <v type="int" >      128 </v>
  <v type="int" >       32 </v>
  <v type="int" >      104 </v>
  <v type="int" >        3 </v>
  <v type="int" >      108 </v>
  <v type="int" >        8 </v>
  <v type="int" >       12 </v>
  <v type="int" >       99 </v>
  <v type="int" >       78 </v>
  <v type="int" >       60 </v>
  <v type="int" >      132 </v>
  <v type="int" >       27 </v>
  <v type="int" >       36 </v>
  <v type="int" >      144 </v>
  <v type="int" >      123 </v>
  <v type="int" >       81 </v>
  <v type="int" >       51 </v>
  <v type="int" >       90 </v>
  <v type="int" >       72 </v>
  <v type="int" >       93 </v>
  <v type="int" >       63 </v>
  <v type="int" >       48 </v>
  <v type="int" >      135 </v>
  <v type="int" >       39 </v>
  <v type="int" >      120 </v>
  <v type="int" >       24 </v>
  <v type="int" >      111 </v>
  <v type="int" >       21 </v>
  <v type="int" >       18 </v>
  <v type="int" >      114 </v>
  <v type="int" >       15 </v>
  <v type="int" >      117 </v>
  <v type="int" >       42 </v>
  <v type="int" >       96 </v>
  <v type="int" >       66 </v>
  <v type="int" >      138 </v>
  <v type="int" >       45 </v>
  <v type="int" >      141 </v>
  <v type="int" >       87 </v>
  <v type="int" >       69 </v>
  <v type="int" >      126 </v>
  <v type="int" >       84 </v>
  <v type="int" >       54 </v>
  <v type="int" >       30 </v>
  <v type="int" >       75 </v>
  <v type="int" >       57 </v>
  <v type="int" >      129 </v>
  <v type="int" >       33 </v>
  <v type="int" >      102 </v>
  <v type="int" >        6 </v>
  <v type="int" >      105 </v>
  <v type="int" >        4 </v>
  <v type="int" >       11 </v>
  <v type="int" >        9 </v>
  <v type="int" >      107 </v>
  <v type="int" >      100 </v>
  <v type="int" >       35 </v>
  <v type="int" >       77 </v>
  <v type="int" >       59 </v>
  <v type="int" >      131 </v>
  <v type="int" >       28 </v>
  <v type="int" >      124 </v>
  <v type="int" >       82 </v>
  <v type="int" >       52 </v>
  <v type="int" >      143 </v>
  <v type="int" >       89 </v>
  <v type="int" >       71 </v>
  <v type="int" >       47 </v>
  <v type="int" >       94 </v>
  <v type="int" >       64 </v>
  <v type="int" >      136 </v>
  <v type="int" >       40 </v>
  <v type="int" >      119 </v>
  <v type="int" >       23 </v>
  <v type="int" >      112 </v>
  <v type="int" >       22 </v>
  <v type="int" >       17 </v>
  <v type="int" >      113 </v>
  <v type="int" >       16 </v>
  <v type="int" >      118 </v>
  <v type="int" >       41 </v>
  <v type="int" >       95 </v>
  <v type="int" >       65 </v>
  <v type="int" >      137 </v>
  <v type="int" >       46 </v>
  <v type="int" >      142 </v>
  <v type="int" >       88 </v>
  <v type="int" >       70 </v>
  <v type="int" >      125 </v>
  <v type="int" >       83 </v>
  <v type="int" >       53 </v>
  <v type="int" >       29 </v>
  <v type="int" >       76 </v>
  <v type="int" >       58 </v>
  <v type="int" >      130 </v>
  <v type="int" >       34 </v>
  <v type="int" >      101 </v>
  <v type="int" >        5 </v>
  <v type="int" >      106 </v>
  <v type="int" >       10 </v>
 </varray>
 <kpoints>
  <generation param="listgenerated">
   <i name="divisions" type="int">      20 </i>
   <v>       0.00000000       0.00000000       0.00000000 </v>
   <v>       0.00000000       0.50000000       0.00000000 </v>
   <v>       0.00000000       0.50000000       0.50000000 </v>
   <v>       0.00000000       0.00000000       0.50000000 </v>
   <v>       0.00000000       0.00000000       0.00000000 </v>
  </generation>
  <varray name="kpointlist" >
   <v>       0.00000000       0.00000000       0.00000000 </v>
   <v>       0.00000000       0.02631579       0.00000000 </v>
   <v>       0.00000000       0.05263158       0.00000000 </v>
   <v>       0.00000000       0.07894737       0.00000000 </v>
   <v>       0.00000000       0.10526316       0.00000000 </v>
   <v>       0.00000000       0.13157895       0.00000000 </v>
   <v>       0.00000000       0.15789474       0.00000000 </v>
   <v>       0.00000000       0.18421053       0.00000000 </v>
   <v>       0.00000000       0.21052632       0.00000000 </v>
   <v>       0.00000000       0.23684211       0.00000000 </v>
   <v>       0.00000000       0.26315789       0.00000000 </v>
   <v>       0.00000000       0.28947368       0.00000000 </v>
   <v>       0.00000000       0.31578947       0.00000000 </v>
   <v>       0.00000000       0.34210526       0.00000000 </v>
   <v>       0.00000000       0.36842105       0.00000000 </v>
   <v>       0.00000000       0.39473684       0.00000000 </v>
   <v>       0.00000000       0.42105263       0.00000000 </v>
   <v>       0.00000000       0.44736842       0.00000000 </v>
   <v>       0.00000000       0.47368421       0.00000000 </v>
   <v>       0.00000000       0.50000000       0.00000000 </v>
   <v>       0.00000000       0.50000000       0.00000000 </v>
   <v>       0.00000000       0.50000000       0.02631579 </v>
   <v>       0.00000000       0.50000000       0.05263158 </v>
   <v>       0.00000000       0.50000000       0.07894737 </v>
   <v>       0.00000000       0.50000000       0.10526316 </v>
   <v>       0.00000000       0.50000000       0.13157895 </v>
   <v>       0.00000000       0.50000000       0.15789474 </v>
   <v>       0.00000000       0.50000000       0.18421053 </v>
   <v>       0.00000000       0.50000000       0.21052632 </v>
   <v>       0.00000000       0.50000000       0.23684211 </v>
   <v>       0.00000000       0.50000000       0.26315789 </v>
   <v>       0.00000000       0.50000000       0.28947368 </v>
   <v>       0.00000000       0.50000000       0.31578947 </v>
   <v>       0.00000000       0.50000000       0.34210526 </v>
   <v>       0.00000000       0.50000000       0.36842105 </v>
   <v>       0.00000000       0.50000000       0.39473684 </v>
   <v>       0.00000000       0.50000000       0.42105263 </v>
   <v>       0.00000000       0.50000000       0.44736842 </v>
   <v>       0.00000000       0.50000000       0.47368421 </v>
   <v>       0.00000000       0.50000000       0.50000000 </v>
   <v>       0.00000000       0.50000000       0.50000000 </v>
   <v>       0.00000000       0.47368421       0.50000000 </v>
   <v>       0.00000000       0.44736842       0.50000000 </v>
   <v>       0.00000000       0.42105263       0.50000000 </v>
   <v>       0.00000000       0.39473684       0.50000000 </v>
   <v>       0.00000000       0.36842105       0.50000000 </v>
   <v>       0.00000000       0.34210526       0.50000000 </v>
   <v>       0.00000000       0.31578947       0.50000000 </v>
   <v>       0.00000000       0.28947368       0.50000000 </v>
   <v>       0.00000000       0.26315789       0.50000000 </v>
   <v>       0.00000000       0.23684211       0.50000000 </v>
   <v>       0.00000000       0.21052632       0.50000000 </v>
   <v>       0.00000000       0.18421053       0.50000000 </v>
   <v>       0.00000000       0.15789474       0.50000000 </v>
   <v>       0.00000000       0.13157895       0.50000000 </v>
   <v>       0.00000000       0.10526316       0.50000000 </v>
   <v>       0.00000000       0.07894737       0.50000000 </v>
   <v>       0.00000000       0.05263158       0.50000000 </v>
   <v>       0.00000000       0.02631579       0.50000000 </v>
   <v>       0.00000000       0.00000000       0.50000000 </v>
   <v>       0.00000000       0.00000000       0.50000000 </v>
   <v>       0.00000000       0.00000000       0.47368421 </v>
   <v>       0.00000000       0.00000000       0.44736842 </v>
   <v>       0.00000000       0.00000000       0.42105263 </v>
   <v>       0.00000000       0.00000000       0.39473684 </v>
   <v>       0.00000000       0.00000000       0.36842105 </v>
   <v>       0.00000000       0.00000000       0.34210526 </v>
   <v>       0.00000000       0.00000000       0.31578947 </v>
   <v>       0.00000000       0.00000000       0.28947368 </v>
   <v>       0.00000000       0.00000000       0.26315789 </v>
   <v>       0.00000000       0.00000000       0.23684211 </v>
   <v>       0.00000000       0.00000000       0.21052632 </v>
   <v>       0.00000000       0.00000000       0.18421053 </v>
   <v>       0.00000000       0.00000000       0.15789474 </v>
   <v>       0.00000000       0.00000000       0.13157895 </v>
   <v>       0.00000000       0.00000000       0.10526316 </v>
   <v>       0.00000000       0.00000000       0.07894737 </v>
   <v>       0.00000000       0.00000000       0.05263158 </v>
   <v>       0.00000000       0.00000000       0.02631579 </v>
   <v>       0.00000000       0.00000000       0.00000000 </v>
  </varray>
  <varray name="weights" >
   <v>       0.01250000 </v>
   <v>       0.01250000 </v>
   <v>       0.01250000 </v>
   <v>       0.01250000 </v>
   <v>       0.01250000 </v>
   <v>       0.01250000 </v>
   <v>       0.01250000 </v>
   <v>       0.01250000 </v>
   <v>       0.01250000 </v>
   <v>       0.01250000 </v>
   <v>       0.01250000 </v>
   <v>       0.01250000 </v>
   <v>       0.01250000 </v>
   <v>       0.01250000 </v>
   <v>       0.01250000 </v>
   <v>       0.01250000 </v>
   <v>       0.01250000 </v>
   <v>       0.01250000 </v>
   <v>       0.01250000 </v>
   <v>       0.01250000 </v>
   <v>       0.01250000 </v>
   <v>       0.01250000 </v>
   <v>       0.01250000 </v>
   <v>       0.01250000 </v>
   <v>       0.01250000 </v>
   <v>       0.01250000 </v>
   <v>       0.01250000 </v>
   <v>       0.01250000 </v>
   <v>       0.01250000 </v>
   <v>       0.01250000 </v>
   <v>       0.01250000 </v>
   <v>       0.01250000 </v>
   <v>       0.01250000 </v>
   <v>       0.01250000 </v>
   <v>       0.01250000 </v>
   <v>       0.01250000 </v>
   <v>       0.01250000 </v>
   <v>       0.01250000 </v>
   <v>       0.01250000 </v>
   <v>       0.01250000 </v>
   <v>       0.01250000 </v>
   <v>       0.01250000 </v>
   <v>       0.01250000 </v>
   <v>       0.01250000 </v>
   <v>       0.01250000 </v>
   <v>       0.01250000 </v>
   <v>       0.01250000 </v>
   <v>       0.01250000 </v>
   <v>       0.01250000 </v>
   <v>       0.01250000 </v>
   <v>       0.01250000 </v>
   <v>       0.01250000 </v>
   <v>       0.01250000 </v>
   <v>       0.01250000 </v>
   <v>       0.01250000 </v>
   <v>       0.01250000 </v>
   <v>       0.01250000 </v>
   <v>       0.01250000 </v>
   <v>       0.01250000 </v>
   <v>       0.01250000 </v>
   <v>       0.01250000 </v>
   <v>       0.01250000 </v>
   <v>       0.01250000 </v>
   <v>       0.01250000 </v>
   <v>       0.01250000 </v>
   <v>       0.01250000 </v>
   <v>       0.01250000 </v>
   <v>       0.01250000 </v>
   <v>       0.01250000 </v>
   <v>       0.01250000 </v>
   <v>       0.01250000 </v>
   <v>       0.01250000 </v>
   <v>       0.01250000 </v>
   <v>       0.01250000 </v>
   <v>       0.01250000 </v>
   <v>       0.01250000 </v>
   <v>       0.01250000 </v>
   <v>       0.01250000 </v>
   <v>       0.01250000 </v>
   <v>       0.01250000 </v>
  </varray>
 </kpoints>
 <parameters>
  <separator name="general" >
   <i type="string" name="SYSTEM">unknown system</i>
   <i type="logical" name="LCOMPAT"> F  </i>
  </separator>
  <separator name="electronic" >
   <i type="string" name="PREC">normal</i>
   <i name="ENMAX">    500.00000000</i>
   <i name="ENAUG">    351.16500000</i>
   <i name="EDIFF">      0.00000100</i>
   <i type="int" name="IALGO">    38</i>
   <i type="int" name="IWAVPR">    10</i>
   <i type="int" name="NBANDS">   520</i>
   <i name="NELECT">    864.00000000</i>
   <i type="int" name="TURBO">     0</i>
   <i type="int" name="IRESTART">     0</i>
   <i type="int" name="NREBOOT">     0</i>
   <i type="int" name="NMIN">     0</i>
   <i name="EREF">      0.00000000</i>
   <separator name="electronic smearing" >
    <i type="int" name="ISMEAR">     0</i>
    <i name="SIGMA">      0.01000000</i>
    <i name="KSPACING">      0.50000000</i>
    <i type="logical" name="KGAMMA"> T  </i>
   </separator>
   <separator name="electronic projectors" >
    <i type="logical" name="LREAL"> T  </i>
    <v name="ROPT">     -0.00050000     -0.00050000</v>
    <i type="int" name="LMAXPAW">  -100</i>
    <i type="int" name="LMAXMIX">     2</i>
    <i type="logical" name="NLSPLINE"> F  </i>
   </separator>
   <separator name="electronic startup" >
    <i type="int" name="ISTART">     0</i>
    <i type="int" name="ICHARG">    11</i>
    <i type="int" name="INIWAV">     1</i>
   </separator>
   <separator name="electronic spin" >
    <i type="int" name="ISPIN">     1</i>
    <i type="logical" name="LNONCOLLINEAR"> F  </i>
    <v name="MAGMOM">      1.00000000      1.00000000      1.00000000      1.00000000      1.00000000      1.00000000      1.00000000      1.00000000      1.00000000      1.00000000      1.00000000      1.00000000      1.00000000      1.00000000      1.00000000      1.00000000      1.00000000      1.00000000      1.00000000      1.00000000
      1.00000000      1.00000000      1.00000000      1.00000000      1.00000000      1.00000000      1.00000000      1.00000000      1.00000000      1.00000000      1.00000000      1.00000000      1.00000000      1.00000000      1.00000000      1.00000000      1.00000000      1.00000000      1.00000000      1.00000000
      1.00000000      1.00000000      1.00000000      1.00000000      1.00000000      1.00000000      1.00000000      1.00000000      1.00000000      1.00000000      1.00000000      1.00000000      1.00000000      1.00000000      1.00000000      1.00000000      1.00000000      1.00000000      1.00000000      1.00000000
      1.00000000      1.00000000      1.00000000      1.00000000      1.00000000      1.00000000      1.00000000      1.00000000      1.00000000      1.00000000      1.00000000      1.00000000      1.00000000      1.00000000      1.00000000      1.00000000      1.00000000      1.00000000      1.00000000      1.00000000
      1.00000000      1.00000000      1.00000000      1.00000000      1.00000000      1.00000000      1.00000000      1.00000000      1.00000000      1.00000000      1.00000000      1.00000000      1.00000000      1.00000000      1.00000000      1.00000000      1.00000000      1.00000000      1.00000000      1.00000000
      1.00000000      1.00000000      1.00000000      1.00000000      1.00000000      1.00000000      1.00000000      1.00000000      1.00000000      1.00000000      1.00000000      1.00000000      1.00000000      1.00000000      1.00000000      1.00000000      1.00000000      1.00000000      1.00000000      1.00000000
      1.00000000      1.00000000      1.00000000      1.00000000      1.00000000      1.00000000      1.00000000      1.00000000      1.00000000      1.00000000      1.00000000      1.00000000      1.00000000      1.00000000      1.00000000      1.00000000      1.00000000      1.00000000      1.00000000      1.00000000
      1.00000000      1.00000000      1.00000000      1.00000000</v>
    <i name="NUPDOWN">     -1.00000000</i>
    <i type="logical" name="LSORBIT"> F  </i>
    <v name="SAXIS">      0.00000000      0.00000000      1.00000000</v>
    <i type="logical" name="LSPIRAL"> F  </i>
    <v name="QSPIRAL">      0.00000000      0.00000000      0.00000000</v>
    <i type="logical" name="LZEROZ"> F  </i>
   </separator>
   <separator name="electronic exchange-correlation" >
    <i type="logical" name="LASPH"> T  </i>
    <i type="logical" name="LMETAGGA"> F  </i>
   </separator>
   <separator name="electronic convergence" >
    <i type="int" name="NELM">   100</i>
    <i type="int" name="NELMDL">    -5</i>
    <i type="int" name="NELMIN">     2</i>
    <i name="ENINI">    500.00000000</i>
    <separator name="electronic convergence detail" >
     <i type="logical" name="LDIAG"> T  </i>
     <i type="logical" name="LSUBROT"> F  </i>
     <i name="WEIMIN">      0.00000000</i>
     <i name="EBREAK">      0.00000000</i>
     <i name="DEPER">      0.30000000</i>
     <i type="int" name="NRMM">     4</i>
     <i name="TIME">      0.40000000</i>
    </separator>
   </separator>
   <separator name="electronic mixer" >
    <i name="AMIX">      0.40000000</i>
    <i name="BMIX">      1.00000000</i>
    <i name="AMIN">      0.10000000</i>
    <i name="AMIX_MAG">      1.60000000</i>
    <i name="BMIX_MAG">      1.00000000</i>
    <separator name="electronic mixer details" >
     <i type="int" name="IMIX">     4</i>
     <i type="logical" name="MIXFIRST"> F  </i>
     <i type="int" name="MAXMIX">   -45</i>
     <i name="WC">    100.00000000</i>
     <i type="int" name="INIMIX">     1</i>
     <i type="int" name="MIXPRE">     1</i>
     <i type="int" name="MREMOVE">     5</i>
    </separator>
   </separator>
   <separator name="electronic dipolcorrection" >
    <i type="logical" name="LDIPOL"> F  </i>
    <i type="logical" name="LMONO"> F  </i>
    <i type="int" name="IDIPOL">     0</i>
    <i name="EPSILON">      1.00000000</i>
    <v name="DIPOL">   -100.00000000   -100.00000000   -100.00000000</v>
    <i name="EFIELD">      0.00000000</i>
   </separator>
  </separator>
  <separator name="grids" >
   <i type="int" name="NGX">   392</i>
   <i type="int" name="NGY">    40</i>
   <i type="int" name="NGZ">    64</i>
   <i type="int" name="NGXF">   784</i>
   <i type="int" name="NGYF">    80</i>
   <i type="int" name="NGZF">   128</i>
   <i type="logical" name="ADDGRID"> F  </i>
  </separator>
  <separator name="ionic" >
   <i type="int" name="NSW">     0</i>
   <i type="int" name="IBRION">    -1</i>
   <i type="int" name="MDALGO">     0</i>
   <i type="int" name="ISIF">     2</i>
   <i name="PSTRESS">      0.00000000</i>
   <i name="EDIFFG">     -0.01000000</i>
   <i type="int" name="NFREE">     0</i>
   <i name="POTIM">      0.30000000</i>
   <i name="SMASS">     -3.00000000</i>
   <i name="SCALEE">      1.00000000</i>
  </separator>
  <separator name="ionic md" >
   <i name="TEBEG">      0.00010000</i>
   <i name="TEEND">      0.00010000</i>
   <i type="int" name="NBLOCK">     1</i>
   <i type="int" name="KBLOCK">     1</i>
   <i type="int" name="NPACO">   256</i>
   <i name="APACO">     16.00000000</i>
  </separator>
  <separator name="symmetry" >
   <i type="int" name="ISYM">     2</i>
   <i name="SYMPREC">      0.00001000</i>
  </separator>
  <separator name="dos" >
   <i type="int" name="LORBIT">     0</i>
   <v name="RWIGS">     -1.00000000     -1.00000000</v>
   <i type="int" name="NEDOS">   301</i>
   <i name="EMIN">     10.00000000</i>
   <i name="EMAX">    -10.00000000</i>
   <i name="EFERMI">      0.00000000</i>
  </separator>
  <separator name="writing" >
   <i type="int" name="NWRITE">     2</i>
   <i type="logical" name="LWAVE"> T  </i>
   <i type="logical" name="LDOWNSAMPLE"> F  </i>
   <i type="logical" name="LCHARG"> T  </i>
   <i type="logical" name="LPARD"> F  </i>
   <i type="logical" name="LVTOT"> F  </i>
   <i type="logical" name="LVHAR"> F  </i>
   <i type="logical" name="LELF"> F  </i>
   <i type="logical" name="LOPTICS"> F  </i>
   <v name="STM">      0.00000000      0.00000000      0.00000000      0.00000000      0.00000000      0.00000000      0.00000000</v>
  </separator>
  <separator name="performance" >
   <i type="int" name="NPAR">     8</i>
   <i type="int" name="NSIM">     4</i>
   <i type="int" name="NBLK">    -1</i>
   <i type="logical" name="LPLANE"> T  </i>
   <i type="logical" name="LSCALAPACK"> T  </i>
   <i type="logical" name="LSCAAWARE"> F  </i>
   <i type="logical" name="LSCALU"> F  </i>
   <i type="logical" name="LASYNC"> F  </i>
   <i type="logical" name="LORBITALREAL"> F  </i>
  </separator>
  <separator name="miscellaneous" >
   <i type="int" name="IDIOT">     3</i>
   <i type="int" name="ISPECIAL">     0</i>
   <i type="logical" name="LMUSIC"> F  </i>
   <v name="POMASS">    137.32700000     28.08500000</v>
   <v name="DARWINR">      0.00000000      0.00000000</v>
   <v name="DARWINV">      1.00000000      1.00000000</v>
   <i type="logical" name="LCORR"> T  </i>
  </separator>
  <i type="logical" name="GGA_COMPAT"> T  </i>
  <i type="logical" name="LBERRY"> F  </i>
  <i type="int" name="ICORELEVEL">     0</i>
  <i type="logical" name="LDAU"> F  </i>
  <i type="int" name="I_CONSTRAINED_M">     0</i>
  <separator name="electronic exchange-correlation" >
   <i type="string" name="GGA">MK</i>
   <i type="int" name="VOSKOWN">     0</i>
   <i type="logical" name="LHFCALC"> F  </i>
   <i type="string" name="PRECFOCK"></i>
   <i type="logical" name="LSYMGRAD"> F  </i>
   <i type="logical" name="LHFONE"> F  </i>
   <i type="logical" name="LRHFCALC"> F  </i>
   <i type="logical" name="LTHOMAS"> F  </i>
   <i type="logical" name="LMODELHF"> F  </i>
   <i name="ENCUT4O">     -1.00000000</i>
   <i type="int" name="EXXOEP">     0</i>
   <i type="int" name="FOURORBIT">     0</i>
   <i name="AEXX">      0.00000000</i>
   <i name="HFALPHA">      0.00000000</i>
   <i name="MCALPHA">      0.00000000</i>
   <i name="ALDAX">      1.00000000</i>
   <i name="AGGAX">      1.00000000</i>
   <i name="ALDAC">      1.00000000</i>
   <i name="AGGAC">      0.00000000</i>
   <i type="int" name="NKREDX">     1</i>
   <i type="int" name="NKREDY">     1</i>
   <i type="int" name="NKREDZ">     1</i>
   <i type="logical" name="SHIFTRED"> F  </i>
   <i type="logical" name="ODDONLY"> F  </i>
   <i type="logical" name="EVENONLY"> F  </i>
   <i type="int" name="LMAXFOCK">     0</i>
   <i type="int" name="NMAXFOCKAE">     0</i>
   <i type="logical" name="LFOCKAEDFT"> F  </i>
   <i name="HFSCREEN">      0.00000000</i>
   <i name="HFSCREENC">      0.00000000</i>
   <i type="int" name="NBANDSGWLOW">     0</i>
  </separator>
  <separator name="vdW DFT" >
   <i type="logical" name="LUSE_VDW"> T  </i>
   <i name="Zab_VDW">     -1.88670000</i>
   <i name="PARAM1">      0.12340000</i>
   <i name="PARAM2">      0.71135700</i>
   <i name="PARAM3">      0.00000000</i>
  </separator>
  <separator name="model GW" >
   <i type="int" name="MODEL_GW">     0</i>
   <i name="MODEL_EPS0">     22.62691881</i>
   <i name="MODEL_ALPHA">      1.00000000</i>
  </separator>
  <separator name="linear response parameters" >
   <i type="logical" name="LEPSILON"> F  </i>
   <i type="logical" name="LRPA"> F  </i>
   <i type="logical" name="LNABLA"> F  </i>
   <i type="logical" name="LVEL"> F  </i>
   <i type="int" name="KINTER">     0</i>
   <i name="CSHIFT">      0.10000000</i>
   <i name="OMEGAMAX">     -1.00000000</i>
   <i name="DEG_THRESHOLD">      0.00200000</i>
   <i name="RTIME">     -0.10000000</i>
   <i name="WPLASMAI">      0.00000000</i>
   <v name="DFIELD">      0.00000000      0.00000000      0.00000000</v>
   <v name="WPLASMA">      0.00000000      0.00000000      0.00000000      0.00000000      0.00000000      0.00000000      0.00000000      0.00000000      0.00000000</v>
  </separator>
  <separator name="orbital magnetization" >
   <i type="logical" name="NUCIND"> F  </i>
   <v name="MAGPOS">      0.00000000      0.00000000      0.00000000</v>
   <i type="logical" name="LNICSALL"> T  </i>
   <i type="logical" name="ORBITALMAG"> F  </i>
   <i type="logical" name="LMAGBLOCH"> F  </i>
   <i type="logical" name="LCHIMAG"> F  </i>
   <i type="logical" name="LGAUGE"> T  </i>
   <i type="int" name="MAGATOM">     0</i>
   <v name="MAGDIPOL">      0.00000000      0.00000000      0.00000000</v>
   <v name="AVECCONST">      0.00000000      0.00000000      0.00000000</v>
  </separator>
  <separator name="response functions" >
   <i type="logical" name="LADDER"> F  </i>
   <i type="logical" name="LRPAFORCE"> F  </i>
   <i type="logical" name="LFXC"> F  </i>
   <i type="logical" name="LHARTREE"> T  </i>
   <i type="int" name="IBSE">     0</i>
   <v type="int" name="KPOINT">    -1     0     0     0</v>
   <i type="logical" name="LTCTE"> F  </i>
   <i type="logical" name="LTETE"> F  </i>
   <i type="logical" name="LTRIPLET"> F  </i>
   <i type="logical" name="LFXCEPS"> F  </i>
   <i type="logical" name="LFXHEG"> F  </i>
   <i type="int" name="NATURALO">     2</i>
   <i type="logical" name="L2ORDER"> F  </i>
   <i type="logical" name="LMP2LT"> F  </i>
   <i type="logical" name="LUSEW"> F  </i>
   <i name="ENCUTGW">     -2.00000000</i>
   <i name="ENCUTGWSOFT">     -2.00000000</i>
   <i name="ENCUTLF">     -1.00000000</i>
   <i type="int" name="LMAXMP2">    -1</i>
   <i name="SCISSOR">      0.00000000</i>
   <i type="int" name="NOMEGA">     0</i>
   <i type="int" name="NOMEGAR">     0</i>
   <i type="int" name="NBANDSGW">    -1</i>
   <i type="int" name="NBANDSO">    -1</i>
   <i type="int" name="NBANDSV">    -1</i>
   <i type="int" name="NELM">   100</i>
   <i type="int" name="NELMHF">     1</i>
   <i type="int" name="DIM">     3</i>
   <i type="int" name="ANTIRES">     0</i>
   <i name="OMEGAMAX">    -30.00000000</i>
   <i name="OMEGAMIN">    -30.00000000</i>
   <i name="OMEGATL">   -200.00000000</i>
   <i type="int" name="OMEGAGRID">   140</i>
   <i name="CSHIFT">     -0.10000000</i>
   <i type="logical" name="SELFENERGY"> F  </i>
   <i type="logical" name="LSPECTRAL"> F  </i>
   <i type="logical" name="LSPECTRALGW"> F  </i>
   <i type="logical" name="LSINGLES"> F  </i>
   <i type="logical" name="LFERMIGW"> F  </i>
   <i type="logical" name="ODDONLYGW"> F  </i>
   <i type="logical" name="EVENONLYGW"> F  </i>
   <i type="int" name="NKREDLFX">     1</i>
   <i type="int" name="NKREDLFY">     1</i>
   <i type="int" name="NKREDLFZ">     1</i>
   <i type="int" name="MAXMEM">  2800</i>
   <i type="int" name="TELESCOPE">     0</i>
   <i type="int" name="TAUPAR">     1</i>
   <i type="int" name="OMEGAPAR">    -1</i>
   <i name="LAMBDA">      1.00000000</i>
  </separator>
  <separator name="External order field" >
   <i name="OFIELD_KAPPA">      0.00000000</i>
   <v name="OFIELD_K">      0.00000000      0.00000000      0.00000000</v>
   <i name="OFIELD_Q6_NEAR">      0.00000000</i>
   <i name="OFIELD_Q6_FAR">      0.00000000</i>
   <i name="OFIELD_A">      0.00000000</i>
  </separator>
 </parameters>
 <atominfo>
  <atoms>     144 </atoms>
  <types>       2 </types>
  <array name="atoms" >
   <dimension dim="1">ion</dimension>
   <field type="string">element</field>
   <field type="int">atomtype</field>
   <set>
    <rc><c>Ba</c><c>   1</c></rc>
    <rc><c>Ba</c><c>   1</c></rc>
    <rc><c>Ba</c><c>   1</c></rc>
    <rc><c>Ba</c><c>   1</c></rc>
    <rc><c>Ba</c><c>   1</c></rc>
    <rc><c>Ba</c><c>   1</c></rc>
    <rc><c>Ba</c><c>   1</c></rc>
    <rc><c>Ba</c><c>   1</c></rc>
    <rc><c>Ba</c><c>   1</c></rc>
    <rc><c>Ba</c><c>   1</c></rc>
    <rc><c>Ba</c><c>   1</c></rc>
    <rc><c>Ba</c><c>   1</c></rc>
    <rc><c>Ba</c><c>   1</c></rc>
    <rc><c>Ba</c><c>   1</c></rc>
    <rc><c>Ba</c><c>   1</c></rc>
    <rc><c>Ba</c><c>   1</c></rc>
    <rc><c>Ba</c><c>   1</c></rc>
    <rc><c>Ba</c><c>   1</c></rc>
    <rc><c>Ba</c><c>   1</c></rc>
    <rc><c>Ba</c><c>   1</c></rc>
    <rc><c>Ba</c><c>   1</c></rc>
    <rc><c>Ba</c><c>   1</c></rc>
    <rc><c>Ba</c><c>   1</c></rc>
    <rc><c>Ba</c><c>   1</c></rc>
    <rc><c>Ba</c><c>   1</c></rc>
    <rc><c>Ba</c><c>   1</c></rc>
    <rc><c>Ba</c><c>   1</c></rc>
    <rc><c>Ba</c><c>   1</c></rc>
    <rc><c>Ba</c><c>   1</c></rc>
    <rc><c>Ba</c><c>   1</c></rc>
    <rc><c>Ba</c><c>   1</c></rc>
    <rc><c>Ba</c><c>   1</c></rc>
    <rc><c>Ba</c><c>   1</c></rc>
    <rc><c>Ba</c><c>   1</c></rc>
    <rc><c>Ba</c><c>   1</c></rc>
    <rc><c>Ba</c><c>   1</c></rc>
    <rc><c>Ba</c><c>   1</c></rc>
    <rc><c>Ba</c><c>   1</c></rc>
    <rc><c>Ba</c><c>   1</c></rc>
    <rc><c>Ba</c><c>   1</c></rc>
    <rc><c>Ba</c><c>   1</c></rc>
    <rc><c>Ba</c><c>   1</c></rc>
    <rc><c>Ba</c><c>   1</c></rc>
    <rc><c>Ba</c><c>   1</c></rc>
    <rc><c>Ba</c><c>   1</c></rc>
    <rc><c>Ba</c><c>   1</c></rc>
    <rc><c>Ba</c><c>   1</c></rc>
    <rc><c>Ba</c><c>   1</c></rc>
    <rc><c>Si</c><c>   2</c></rc>
    <rc><c>Si</c><c>   2</c></rc>
    <rc><c>Si</c><c>   2</c></rc>
    <rc><c>Si</c><c>   2</c></rc>
    <rc><c>Si</c><c>   2</c></rc>
    <rc><c>Si</c><c>   2</c></rc>
    <rc><c>Si</c><c>   2</c></rc>
    <rc><c>Si</c><c>   2</c></rc>
    <rc><c>Si</c><c>   2</c></rc>
    <rc><c>Si</c><c>   2</c></rc>
    <rc><c>Si</c><c>   2</c></rc>
    <rc><c>Si</c><c>   2</c></rc>
    <rc><c>Si</c><c>   2</c></rc>
    <rc><c>Si</c><c>   2</c></rc>
    <rc><c>Si</c><c>   2</c></rc>
    <rc><c>Si</c><c>   2</c></rc>
    <rc><c>Si</c><c>   2</c></rc>
    <rc><c>Si</c><c>   2</c></rc>
    <rc><c>Si</c><c>   2</c></rc>
    <rc><c>Si</c><c>   2</c></rc>
    <rc><c>Si</c><c>   2</c></rc>
    <rc><c>Si</c><c>   2</c></rc>
    <rc><c>Si</c><c>   2</c></rc>
    <rc><c>Si</c><c>   2</c></rc>
    <rc><c>Si</c><c>   2</c></rc>
    <rc><c>Si</c><c>   2</c></rc>
    <rc><c>Si</c><c>   2</c></rc>
    <rc><c>Si</c><c>   2</c></rc>
    <rc><c>Si</c><c>   2</c></rc>
    <rc><c>Si</c><c>   2</c></rc>
    <rc><c>Si</c><c>   2</c></rc>
    <rc><c>Si</c><c>   2</c></rc>
    <rc><c>Si</c><c>   2</c></rc>
    <rc><c>Si</c><c>   2</c></rc>
    <rc><c>Si</c><c>   2</c></rc>
    <rc><c>Si</c><c>   2</c></rc>
    <rc><c>Si</c><c>   2</c></rc>
    <rc><c>Si</c><c>   2</c></rc>
    <rc><c>Si</c><c>   2</c></rc>
    <rc><c>Si</c><c>   2</c></rc>
    <rc><c>Si</c><c>   2</c></rc>
    <rc><c>Si</c><c>   2</c></rc>
    <rc><c>Si</c><c>   2</c></rc>
    <rc><c>Si</c><c>   2</c></rc>
    <rc><c>Si</c><c>   2</c></rc>
    <rc><c>Si</c><c>   2</c></rc>
    <rc><c>Si</c><c>   2</c></rc>
    <rc><c>Si</c><c>   2</c></rc>
    <rc><c>Si</c><c>   2</c></rc>
    <rc><c>Si</c><c>   2</c></rc>
    <rc><c>Si</c><c>   2</c></rc>
    <rc><c>Si</c><c>   2</c></rc>
    <rc><c>Si</c><c>   2</c></rc>
    <rc><c>Si</c><c>   2</c></rc>
    <rc><c>Si</c><c>   2</c></rc>
    <rc><c>Si</c><c>   2</c></rc>
    <rc><c>Si</c><c>   2</c></rc>
    <rc><c>Si</c><c>   2</c></rc>
    <rc><c>Si</c><c>   2</c></rc>
    <rc><c>Si</c><c>   2</c></rc>
    <rc><c>Si</c><c>   2</c></rc>
    <rc><c>Si</c><c>   2</c></rc>
    <rc><c>Si</c><c>   2</c></rc>
    <rc><c>Si</c><c>   2</c></rc>
    <rc><c>Si</c><c>   2</c></rc>
    <rc><c>Si</c><c>   2</c></rc>
    <rc><c>Si</c><c>   2</c></rc>
    <rc><c>Si</c><c>   2</c></rc>
    <rc><c>Si</c><c>   2</c></rc>
    <rc><c>Si</c><c>   2</c></rc>
    <rc><c>Si</c><c>   2</c></rc>
    <rc><c>Si</c><c>   2</c></rc>
    <rc><c>Si</c><c>   2</c></rc>
    <rc><c>Si</c><c>   2</c></rc>
    <rc><c>Si</c><c>   2</c></rc>
    <rc><c>Si</c><c>   2</c></rc>
    <rc><c>Si</c><c>   2</c></rc>
    <rc><c>Si</c><c>   2</c></rc>
    <rc><c>Si</c><c>   2</c></rc>
    <rc><c>Si</c><c>   2</c></rc>
    <rc><c>Si</c><c>   2</c></rc>
    <rc><c>Si</c><c>   2</c></rc>
    <rc><c>Si</c><c>   2</c></rc>
    <rc><c>Si</c><c>   2</c></rc>
    <rc><c>Si</c><c>   2</c></rc>
    <rc><c>Si</c><c>   2</c></rc>
    <rc><c>Si</c><c>   2</c></rc>
    <rc><c>Si</c><c>   2</c></rc>
    <rc><c>Si</c><c>   2</c></rc>
    <rc><c>Si</c><c>   2</c></rc>
    <rc><c>Si</c><c>   2</c></rc>
    <rc><c>Si</c><c>   2</c></rc>
    <rc><c>Si</c><c>   2</c></rc>
    <rc><c>Si</c><c>   2</c></rc>
    <rc><c>Si</c><c>   2</c></rc>
    <rc><c>Si</c><c>   2</c></rc>
   </set>
  </array>
  <array name="atomtypes" >
   <dimension dim="1">type</dimension>
   <field type="int">atomspertype</field>
   <field type="string">element</field>
   <field>mass</field>
   <field>valence</field>
   <field type="string">pseudopotential</field>
   <set>
    <rc><c>  48</c><c>Ba</c><c>    137.32700000</c><c>     10.00000000</c><c> PAW_PBE Ba_sv 06Sep2000                </c></rc>
    <rc><c>  96</c><c>Si</c><c>     28.08500000</c><c>      4.00000000</c><c> PAW_PBE Si 05Jan2001                   </c></rc>
   </set>
  </array>
 </atominfo>
 <structure name="initialpos" >
  <crystal>
   <varray name="basis" >
    <v>      70.49757494       0.00000000       0.09446213 </v>
    <v>       0.00000000       6.70529623       0.00000000 </v>
    <v>       0.01565223       0.00000000      11.48802326 </v>
   </varray>
   <i name="volume">   5430.46051499 </i>
   <varray name="rec_basis" >
    <v>       0.01418491       0.00000000      -0.00001933 </v>
    <v>       0.00000000       0.14913584       0.00000000 </v>
    <v>      -0.00011664       0.00000000       0.08704734 </v>
   </varray>
  </crystal>
  <varray name="positions" >
   <v>       0.01493016       0.25000000       0.70703433 </v>
   <v>       0.13925358       0.25000000       0.69467825 </v>
   <v>       0.26620176       0.25000000       0.69443616 </v>
   <v>       0.39337814       0.25000000       0.69170510 </v>
   <v>       0.52049329       0.25000000       0.68873456 </v>
   <v>       0.64762903       0.25000000       0.68782711 </v>
   <v>       0.13515848       0.75000002       0.31217289 </v>
   <v>       0.26229427       0.75000002       0.31126544 </v>
   <v>       0.38940939       0.75000002       0.30829490 </v>
   <v>       0.51658580       0.75000002       0.30556384 </v>
   <v>       0.64353396       0.75000002       0.30532175 </v>
   <v>       0.76785738       0.75000002       0.29296567 </v>
   <v>       0.07024663       0.75000002       0.19752537 </v>
   <v>       0.19862684       0.75000002       0.19535033 </v>
   <v>       0.32586957       0.75000002       0.19319007 </v>
   <v>       0.45295852       0.75000002       0.19005981 </v>
   <v>       0.58013617       0.75000002       0.18783091 </v>
   <v>       0.70673033       0.75000002       0.18721649 </v>
   <v>       0.07605721       0.25000000       0.81278349 </v>
   <v>       0.20265139       0.25000000       0.81216907 </v>
   <v>       0.32982903       0.25000000       0.80994017 </v>
   <v>       0.45691796       0.25000000       0.80680991 </v>
   <v>       0.58416069       0.25000000       0.80464965 </v>
   <v>       0.71254088       0.25000000       0.80247461 </v>
   <v>       0.03747086       0.75000002       0.91717678 </v>
   <v>       0.15779161       0.75000002       0.91008805 </v>
   <v>       0.28461467       0.75000002       0.90835922 </v>
   <v>       0.41173109       0.75000002       0.90528822 </v>
   <v>       0.53885435       0.75000002       0.90262576 </v>
   <v>       0.66649222       0.75000002       0.90250396 </v>
   <v>       0.11629527       0.25000000       0.09749601 </v>
   <v>       0.24393321       0.25000000       0.09737422 </v>
   <v>       0.37105644       0.25000000       0.09471176 </v>
   <v>       0.49817286       0.25000000       0.09164076 </v>
   <v>       0.62499589       0.25000000       0.08991193 </v>
   <v>       0.74531664       0.25000000       0.08282320 </v>
   <v>       0.05409974       0.25000000       0.40019363 </v>
   <v>       0.18036967       0.25000000       0.40864696 </v>
   <v>       0.30751386       0.25000000       0.40791758 </v>
   <v>       0.43461666       0.25000000       0.40481379 </v>
   <v>       0.56181131       0.25000000       0.40241500 </v>
   <v>       0.68846000       0.25000000       0.40016340 </v>
   <v>       0.09432750       0.75000002       0.59983664 </v>
   <v>       0.22097626       0.75000002       0.59758504 </v>
   <v>       0.34817087       0.75000002       0.59518625 </v>
   <v>       0.47527370       0.75000002       0.59208246 </v>
   <v>       0.60241789       0.75000002       0.59135308 </v>
   <v>       0.72868781       0.75000002       0.59980641 </v>
   <v>       0.03338177       0.07168994       0.14999810 </v>
   <v>       0.16146604       0.07048162       0.14967268 </v>
   <v>       0.28879877       0.07037871       0.14848241 </v>
   <v>       0.41589396       0.07023999       0.14543606 </v>
   <v>       0.54304562       0.07024526       0.14269479 </v>
   <v>       0.66937931       0.06981783       0.14140710 </v>
   <v>       0.11340818       0.93018216       0.85859288 </v>
   <v>       0.23974194       0.92975473       0.85730519 </v>
   <v>       0.36689357       0.92976000       0.85456392 </v>
   <v>       0.49398876       0.92962128       0.85151757 </v>
   <v>       0.62132148       0.92951837       0.85032730 </v>
   <v>       0.74940574       0.92831005       0.85000188 </v>
   <v>       0.04961206       0.92838433       0.64747226 </v>
   <v>       0.17617358       0.92976865       0.64928039 </v>
   <v>       0.30332570       0.92977270       0.64836872 </v>
   <v>       0.43042881       0.92978467       0.64518326 </v>
   <v>       0.55760858       0.92987185       0.64282866 </v>
   <v>       0.68479931       0.93057534       0.64241858 </v>
   <v>       0.09798820       0.06942465       0.35758142 </v>
   <v>       0.22517899       0.07012814       0.35717134 </v>
   <v>       0.35235871       0.07021532       0.35481674 </v>
   <v>       0.47946186       0.07022729       0.35163128 </v>
   <v>       0.60661398       0.07023135       0.35071961 </v>
   <v>       0.73317549       0.07161566       0.35252774 </v>
   <v>       0.11340818       0.56981784       0.85859288 </v>
   <v>       0.23974194       0.57024527       0.85730519 </v>
   <v>       0.36689357       0.57024000       0.85456392 </v>
   <v>       0.49398876       0.57037872       0.85151757 </v>
   <v>       0.62132148       0.57048163       0.85032730 </v>
   <v>       0.74940574       0.57168995       0.85000188 </v>
   <v>       0.03338177       0.42831005       0.14999810 </v>
   <v>       0.16146604       0.42951837       0.14967268 </v>
   <v>       0.28879877       0.42962128       0.14848241 </v>
   <v>       0.41589396       0.42976000       0.14543606 </v>
   <v>       0.54304562       0.42975473       0.14269479 </v>
   <v>       0.66937931       0.43018216       0.14140710 </v>
   <v>       0.09798820       0.43057534       0.35758142 </v>
   <v>       0.22517899       0.42987185       0.35717134 </v>
   <v>       0.35235871       0.42978467       0.35481674 </v>
   <v>       0.47946186       0.42977270       0.35163128 </v>
   <v>       0.60661398       0.42976865       0.35071961 </v>
   <v>       0.73317549       0.42838433       0.35252774 </v>
   <v>       0.04961206       0.57161567       0.64747226 </v>
   <v>       0.17617358       0.57023135       0.64928039 </v>
   <v>       0.30332570       0.57022730       0.64836872 </v>
   <v>       0.43042881       0.57021533       0.64518326 </v>
   <v>       0.55760858       0.57012815       0.64282866 </v>
   <v>       0.68479931       0.56942466       0.64241858 </v>
   <v>       0.01961238       0.75000002       0.62436621 </v>
   <v>       0.14768399       0.75000002       0.59540848 </v>
   <v>       0.27484860       0.75000002       0.59406803 </v>
   <v>       0.40193855       0.75000002       0.59101914 </v>
   <v>       0.52915293       0.75000002       0.58788677 </v>
   <v>       0.65644751       0.75000002       0.58729273 </v>
   <v>       0.12634001       0.25000000       0.41270727 </v>
   <v>       0.25363457       0.25000000       0.41211323 </v>
   <v>       0.38084898       0.25000000       0.40898086 </v>
   <v>       0.50793893       0.25000000       0.40593197 </v>
   <v>       0.63510355       0.25000000       0.40459152 </v>
   <v>       0.76317510       0.25000000       0.37563379 </v>
   <v>       0.06241661       0.25000000       0.08673087 </v>
   <v>       0.19003267       0.25000000       0.09554753 </v>
   <v>       0.31728047       0.25000000       0.09317590 </v>
   <v>       0.44438287       0.25000000       0.09002700 </v>
   <v>       0.57152736       0.25000000       0.08737422 </v>
   <v>       0.69763385       0.25000000       0.08621163 </v>
   <v>       0.08515364       0.75000002       0.91378835 </v>
   <v>       0.21126017       0.75000002       0.91262576 </v>
   <v>       0.33840466       0.75000002       0.90997298 </v>
   <v>       0.46550705       0.75000002       0.90682408 </v>
   <v>       0.59275491       0.75000002       0.90445245 </v>
   <v>       0.72037090       0.75000002       0.91326911 </v>
   <v>       0.03353465       0.25000000       0.96774957 </v>
   <v>       0.16208322       0.25000000       0.96821741 </v>
   <v>       0.28925340       0.25000000       0.96682387 </v>
   <v>       0.41634506       0.25000000       0.96385423 </v>
   <v>       0.54350782       0.25000000       0.96110085 </v>
   <v>       0.67032996       0.25000000       0.95901093 </v>
   <v>       0.11245755       0.75000002       0.04098909 </v>
   <v>       0.23927976       0.75000002       0.03889917 </v>
   <v>       0.36644247       0.75000002       0.03614578 </v>
   <v>       0.49353415       0.75000002       0.03317614 </v>
   <v>       0.62070434       0.75000002       0.03178260 </v>
   <v>       0.74925284       0.75000002       0.03225044 </v>
   <v>       0.04307428       0.75000002       0.46773254 </v>
   <v>       0.17569530       0.75000002       0.46777598 </v>
   <v>       0.30285721       0.75000002       0.46673412 </v>
   <v>       0.42993374       0.75000002       0.46361768 </v>
   <v>       0.55722508       0.75000002       0.46122738 </v>
   <v>       0.68440867       0.75000002       0.46059095 </v>
   <v>       0.09837888       0.25000000       0.53940897 </v>
   <v>       0.22556246       0.25000000       0.53877253 </v>
   <v>       0.35285382       0.25000000       0.53638223 </v>
   <v>       0.47993032       0.25000000       0.53326580 </v>
   <v>       0.60709227       0.25000000       0.53222394 </v>
   <v>       0.73971323       0.25000000       0.53226737 </v>
  </varray>
 </structure>
 <calculation>
  <scstep>
   <time name="dav">  179.13  179.58</time>
   <time name="total">  183.44  183.93</time>
   <energy>
    <i name="alphaZ">   2133.50991807 </i>
    <i name="ewald"> 253700.02439150 </i>
    <i name="hartreedc">-295615.36840112 </i>
    <i name="XCdc">    292.29716415 </i>
    <i name="pawpsdc">  23181.04494464 </i>
    <i name="pawaedc"> -21414.60062435 </i>
    <i name="eentropy">     -0.00239824 </i>
    <i name="bandstr">    -29.24112667 </i>
    <i name="atom">  43614.90872484 </i>
    <i name="e_fr_energy">   5862.57259282 </i>
    <i name="e_wo_entrp">   5862.57499107 </i>
    <i name="e_0_energy">   5862.57379194 </i>
   </energy>
  </scstep>
  <scstep>
   <time name="dav">  221.87  222.40</time>
   <time name="total">  221.88  222.41</time>
   <energy>
    <i name="e_fr_energy">    160.06767081 </i>
    <i name="e_wo_entrp">    160.06851278 </i>
    <i name="e_0_energy">    160.06809180 </i>
   </energy>
  </scstep>
  <scstep>
   <time name="dav">  207.69  208.19</time>
   <time name="total">  207.70  208.20</time>
   <energy>
    <i name="e_fr_energy">   -541.83713320 </i>
    <i name="e_wo_entrp">   -541.83713320 </i>
    <i name="e_0_energy">   -541.83713320 </i>
   </energy>
  </scstep>
  <scstep>
   <time name="dav">  239.70  240.27</time>
   <time name="total">  239.71  240.28</time>
   <energy>
    <i name="e_fr_energy">   -576.64369359 </i>
    <i name="e_wo_entrp">   -576.64369359 </i>
    <i name="e_0_energy">   -576.64369359 </i>
   </energy>
  </scstep>
  <scstep>
   <time name="dav">  252.05  252.65</time>
   <time name="total">  252.05  252.66</time>
   <energy>
    <i name="e_fr_energy">   -578.14738077 </i>
    <i name="e_wo_entrp">   -578.14738077 </i>
    <i name="e_0_energy">   -578.14738077 </i>
   </energy>
  </scstep>
  <scstep>
   <time name="dav">  230.82  231.37</time>
   <time name="total">  230.82  231.38</time>
   <energy>
    <i name="e_fr_energy">   -578.19188488 </i>
    <i name="e_wo_entrp">   -578.19188488 </i>
    <i name="e_0_energy">   -578.19188488 </i>
   </energy>
  </scstep>
  <scstep>
   <time name="dav">  250.82  251.43</time>
   <time name="total">  250.83  251.43</time>
   <energy>
    <i name="e_fr_energy">   -578.19376894 </i>
    <i name="e_wo_entrp">   -578.19376894 </i>
    <i name="e_0_energy">   -578.19376894 </i>
   </energy>
  </scstep>
  <scstep>
   <time name="dav">  232.75  233.31</time>
   <time name="total">  232.76  233.31</time>
   <energy>
    <i name="e_fr_energy">   -578.19384872 </i>
    <i name="e_wo_entrp">   -578.19384872 </i>
    <i name="e_0_energy">   -578.19384872 </i>
   </energy>
  </scstep>
  <scstep>
   <time name="dav">  237.32  237.90</time>
   <time name="total">  237.33  237.91</time>
   <energy>
    <i name="e_fr_energy">   -578.19385297 </i>
    <i name="e_wo_entrp">   -578.19385297 </i>
    <i name="e_0_energy">   -578.19385297 </i>
   </energy>
  </scstep>
  <scstep>
   <time name="dav">  147.84  148.19</time>
   <time name="total">  147.84  148.20</time>
   <energy>
    <i name="alphaZ">   2133.50991807 </i>
    <i name="ewald"> 253700.02439150 </i>
    <i name="hartreedc">-295615.36840112 </i>
    <i name="XCdc">    292.29716415 </i>
    <i name="pawpsdc">  23181.04494464 </i>
    <i name="pawaedc"> -21414.60062435 </i>
    <i name="eentropy">     -0.00000000 </i>
    <i name="bandstr">  -6470.00997092 </i>
    <i name="atom">  43614.90872484 </i>
    <i name="e_fr_energy">   -578.19385318 </i>
    <i name="e_wo_entrp">   -578.19385318 </i>
    <i name="e_0_energy">   -578.19385318 </i>
   </energy>
  </scstep>
  <structure>
   <crystal>
    <varray name="basis" >
     <v>      70.49757494       0.00000000       0.09446213 </v>
     <v>       0.00000000       6.70529623       0.00000000 </v>
     <v>       0.01565223       0.00000000      11.48802326 </v>
    </varray>
    <i name="volume">   5430.46051499 </i>
    <varray name="rec_basis" >
     <v>       0.01418491       0.00000000      -0.00001933 </v>
     <v>       0.00000000       0.14913584       0.00000000 </v>
     <v>      -0.00011664       0.00000000       0.08704734 </v>
    </varray>
   </crystal>
   <varray name="positions" >
    <v>       0.01493016       0.25000000       0.70703433 </v>
    <v>       0.13925358       0.25000000       0.69467825 </v>
    <v>       0.26620176       0.25000000       0.69443616 </v>
    <v>       0.39337814       0.25000000       0.69170510 </v>
    <v>       0.52049329       0.25000000       0.68873456 </v>
    <v>       0.64762903       0.25000000       0.68782711 </v>
    <v>       0.13515848       0.75000002       0.31217289 </v>
    <v>       0.26229427       0.75000002       0.31126544 </v>
    <v>       0.38940939       0.75000002       0.30829490 </v>
    <v>       0.51658580       0.75000002       0.30556384 </v>
    <v>       0.64353396       0.75000002       0.30532175 </v>
    <v>       0.76785738       0.75000002       0.29296567 </v>
    <v>       0.07024663       0.75000002       0.19752537 </v>
    <v>       0.19862684       0.75000002       0.19535033 </v>
    <v>       0.32586957       0.75000002       0.19319007 </v>
    <v>       0.45295852       0.75000002       0.19005981 </v>
    <v>       0.58013617       0.75000002       0.18783091 </v>
    <v>       0.70673033       0.75000002       0.18721649 </v>
    <v>       0.07605721       0.25000000       0.81278349 </v>
    <v>       0.20265139       0.25000000       0.81216907 </v>
    <v>       0.32982903       0.25000000       0.80994017 </v>
    <v>       0.45691796       0.25000000       0.80680991 </v>
    <v>       0.58416069       0.25000000       0.80464965 </v>
    <v>       0.71254088       0.25000000       0.80247461 </v>
    <v>       0.03747086       0.75000002       0.91717678 </v>
    <v>       0.15779161       0.75000002       0.91008805 </v>
    <v>       0.28461467       0.75000002       0.90835922 </v>
    <v>       0.41173109       0.75000002       0.90528822 </v>
    <v>       0.53885435       0.75000002       0.90262576 </v>
    <v>       0.66649222       0.75000002       0.90250396 </v>
    <v>       0.11629527       0.25000000       0.09749601 </v>
    <v>       0.24393321       0.25000000       0.09737422 </v>
    <v>       0.37105644       0.25000000       0.09471176 </v>
    <v>       0.49817286       0.25000000       0.09164076 </v>
    <v>       0.62499589       0.25000000       0.08991193 </v>
    <v>       0.74531664       0.25000000       0.08282320 </v>
    <v>       0.05409974       0.25000000       0.40019363 </v>
    <v>       0.18036967       0.25000000       0.40864696 </v>
    <v>       0.30751386       0.25000000       0.40791758 </v>
    <v>       0.43461666       0.25000000       0.40481379 </v>
    <v>       0.56181131       0.25000000       0.40241500 </v>
    <v>       0.68846000       0.25000000       0.40016340 </v>
    <v>       0.09432750       0.75000002       0.59983664 </v>
    <v>       0.22097626       0.75000002       0.59758504 </v>
    <v>       0.34817087       0.75000002       0.59518625 </v>
    <v>       0.47527370       0.75000002       0.59208246 </v>
    <v>       0.60241789       0.75000002       0.59135308 </v>
    <v>       0.72868781       0.75000002       0.59980641 </v>
    <v>       0.03338177       0.07168994       0.14999810 </v>
    <v>       0.16146604       0.07048162       0.14967268 </v>
    <v>       0.28879877       0.07037871       0.14848241 </v>
    <v>       0.41589396       0.07023999       0.14543606 </v>
    <v>       0.54304562       0.07024526       0.14269479 </v>
    <v>       0.66937931       0.06981783       0.14140710 </v>
    <v>       0.11340818       0.93018216       0.85859288 </v>
    <v>       0.23974194       0.92975473       0.85730519 </v>
    <v>       0.36689357       0.92976000       0.85456392 </v>
    <v>       0.49398876       0.92962128       0.85151757 </v>
    <v>       0.62132148       0.92951837       0.85032730 </v>
    <v>       0.74940574       0.92831005       0.85000188 </v>
    <v>       0.04961206       0.92838433       0.64747226 </v>
    <v>       0.17617358       0.92976865       0.64928039 </v>
    <v>       0.30332570       0.92977270       0.64836872 </v>
    <v>       0.43042881       0.92978467       0.64518326 </v>
    <v>       0.55760858       0.92987185       0.64282866 </v>
    <v>       0.68479931       0.93057534       0.64241858 </v>
    <v>       0.09798820       0.06942465       0.35758142 </v>
    <v>       0.22517899       0.07012814       0.35717134 </v>
    <v>       0.35235871       0.07021532       0.35481674 </v>
    <v>       0.47946186       0.07022729       0.35163128 </v>
    <v>       0.60661398       0.07023135       0.35071961 </v>
    <v>       0.73317549       0.07161566       0.35252774 </v>
    <v>       0.11340818       0.56981784       0.85859288 </v>
    <v>       0.23974194       0.57024527       0.85730519 </v>
    <v>       0.36689357       0.57024000       0.85456392 </v>
    <v>       0.49398876       0.57037872       0.85151757 </v>
    <v>       0.62132148       0.57048163       0.85032730 </v>
    <v>       0.74940574       0.57168995       0.85000188 </v>
    <v>       0.03338177       0.42831005       0.14999810 </v>
    <v>       0.16146604       0.42951837       0.14967268 </v>
    <v>       0.28879877       0.42962128       0.14848241 </v>
    <v>       0.41589396       0.42976000       0.14543606 </v>
    <v>       0.54304562       0.42975473       0.14269479 </v>
    <v>       0.66937931       0.43018216       0.14140710 </v>
    <v>       0.09798820       0.43057534       0.35758142 </v>
    <v>       0.22517899       0.42987185       0.35717134 </v>
    <v>       0.35235871       0.42978467       0.35481674 </v>
    <v>       0.47946186       0.42977270       0.35163128 </v>
    <v>       0.60661398       0.42976865       0.35071961 </v>
    <v>       0.73317549       0.42838433       0.35252774 </v>
    <v>       0.04961206       0.57161567       0.64747226 </v>
    <v>       0.17617358       0.57023135       0.64928039 </v>
    <v>       0.30332570       0.57022730       0.64836872 </v>
    <v>       0.43042881       0.57021533       0.64518326 </v>
    <v>       0.55760858       0.57012815       0.64282866 </v>
    <v>       0.68479931       0.56942466       0.64241858 </v>
    <v>       0.01961238       0.75000002       0.62436621 </v>
    <v>       0.14768399       0.75000002       0.59540848 </v>
    <v>       0.27484860       0.75000002       0.59406803 </v>
    <v>       0.40193855       0.75000002       0.59101914 </v>
    <v>       0.52915293       0.75000002       0.58788677 </v>
    <v>       0.65644751       0.75000002       0.58729273 </v>
    <v>       0.12634001       0.25000000       0.41270727 </v>
    <v>       0.25363457       0.25000000       0.41211323 </v>
    <v>       0.38084898       0.25000000       0.40898086 </v>
    <v>       0.50793893       0.25000000       0.40593197 </v>
    <v>       0.63510355       0.25000000       0.40459152 </v>
    <v>       0.76317510       0.25000000       0.37563379 </v>
    <v>       0.06241661       0.25000000       0.08673087 </v>
    <v>       0.19003267       0.25000000       0.09554753 </v>
    <v>       0.31728047       0.25000000       0.09317590 </v>
    <v>       0.44438287       0.25000000       0.09002700 </v>
    <v>       0.57152736       0.25000000       0.08737422 </v>
    <v>       0.69763385       0.25000000       0.08621163 </v>
    <v>       0.08515364       0.75000002       0.91378835 </v>
    <v>       0.21126017       0.75000002       0.91262576 </v>
    <v>       0.33840466       0.75000002       0.90997298 </v>
    <v>       0.46550705       0.75000002       0.90682408 </v>
    <v>       0.59275491       0.75000002       0.90445245 </v>
    <v>       0.72037090       0.75000002       0.91326911 </v>
    <v>       0.03353465       0.25000000       0.96774957 </v>
    <v>       0.16208322       0.25000000       0.96821741 </v>
    <v>       0.28925340       0.25000000       0.96682387 </v>
    <v>       0.41634506       0.25000000       0.96385423 </v>
    <v>       0.54350782       0.25000000       0.96110085 </v>
    <v>       0.67032996       0.25000000       0.95901093 </v>
    <v>       0.11245755       0.75000002       0.04098909 </v>
    <v>       0.23927976       0.75000002       0.03889917 </v>
    <v>       0.36644247       0.75000002       0.03614578 </v>
    <v>       0.49353415       0.75000002       0.03317614 </v>
    <v>       0.62070434       0.75000002       0.03178260 </v>
    <v>       0.74925284       0.75000002       0.03225044 </v>
    <v>       0.04307428       0.75000002       0.46773254 </v>
    <v>       0.17569530       0.75000002       0.46777598 </v>
    <v>       0.30285721       0.75000002       0.46673412 </v>
    <v>       0.42993374       0.75000002       0.46361768 </v>
    <v>       0.55722508       0.75000002       0.46122738 </v>
    <v>       0.68440867       0.75000002       0.46059095 </v>
    <v>       0.09837888       0.25000000       0.53940897 </v>
    <v>       0.22556246       0.25000000       0.53877253 </v>
    <v>       0.35285382       0.25000000       0.53638223 </v>
    <v>       0.47993032       0.25000000       0.53326580 </v>
    <v>       0.60709227       0.25000000       0.53222394 </v>
    <v>       0.73971323       0.25000000       0.53226737 </v>
   </varray>
  </structure>
  <varray name="forces" >
   <v>       0.02610405      -0.00000000      -0.03862176 </v>
   <v>       0.03583860      -0.00000000      -0.02217786 </v>
   <v>       0.04167160      -0.00000000      -0.02283927 </v>
   <v>       0.03857824      -0.00000000      -0.02318773 </v>
   <v>       0.03341137      -0.00000000      -0.02418704 </v>
   <v>       0.04051346      -0.00000000      -0.02160266 </v>
   <v>      -0.04051346      -0.00000000       0.02160266 </v>
   <v>      -0.03341137      -0.00000000       0.02418704 </v>
   <v>      -0.03857824      -0.00000000       0.02318773 </v>
   <v>      -0.04167160      -0.00000000       0.02283927 </v>
   <v>      -0.03583860      -0.00000000       0.02217786 </v>
   <v>      -0.02610405      -0.00000000       0.03862176 </v>
   <v>      -0.05555170      -0.00000000      -0.02667561 </v>
   <v>      -0.03224280      -0.00000000      -0.02408473 </v>
   <v>      -0.04005263      -0.00000000      -0.02553857 </v>
   <v>      -0.03413382      -0.00000000      -0.01874096 </v>
   <v>      -0.03491240      -0.00000000      -0.02126875 </v>
   <v>      -0.04153403      -0.00000000      -0.01269451 </v>
   <v>       0.04153403      -0.00000000       0.01269451 </v>
   <v>       0.03491240      -0.00000000       0.02126875 </v>
   <v>       0.03413382      -0.00000000       0.01874096 </v>
   <v>       0.04005263      -0.00000000       0.02553857 </v>
   <v>       0.03224280      -0.00000000       0.02408473 </v>
   <v>       0.05555170      -0.00000000       0.02667561 </v>
   <v>       0.00862282      -0.00000000      -0.00415591 </v>
   <v>       0.01751295      -0.00000000       0.02273705 </v>
   <v>       0.00780619      -0.00000000       0.03383139 </v>
   <v>       0.01436717      -0.00000000       0.02987414 </v>
   <v>       0.01712147      -0.00000000       0.02303619 </v>
   <v>       0.00822257      -0.00000000       0.01967336 </v>
   <v>      -0.00822257      -0.00000000      -0.01967336 </v>
   <v>      -0.01712147      -0.00000000      -0.02303619 </v>
   <v>      -0.01436717      -0.00000000      -0.02987414 </v>
   <v>      -0.00780619      -0.00000000      -0.03383139 </v>
   <v>      -0.01751295      -0.00000000      -0.02273705 </v>
   <v>      -0.00862282      -0.00000000       0.00415591 </v>
   <v>      -0.00812647      -0.00000000       0.02872066 </v>
   <v>      -0.00914064      -0.00000000       0.03258344 </v>
   <v>      -0.01601448      -0.00000000       0.03305900 </v>
   <v>      -0.01557795      -0.00000000       0.02428345 </v>
   <v>      -0.01920394      -0.00000000       0.02805202 </v>
   <v>      -0.01202237      -0.00000000       0.02607257 </v>
   <v>       0.01202237      -0.00000000      -0.02607257 </v>
   <v>       0.01920394      -0.00000000      -0.02805202 </v>
   <v>       0.01557795      -0.00000000      -0.02428345 </v>
   <v>       0.01601448      -0.00000000      -0.03305900 </v>
   <v>       0.00914064      -0.00000000      -0.03258344 </v>
   <v>       0.00812647      -0.00000000      -0.02872066 </v>
   <v>       0.02340471       0.00432404       0.00336790 </v>
   <v>       0.01978758       0.01485647      -0.00372370 </v>
   <v>       0.01902100       0.01362296      -0.00688965 </v>
   <v>       0.02115365       0.02357815      -0.00581453 </v>
   <v>       0.01637293       0.01533028       0.00573877 </v>
   <v>       0.01913113       0.04312825      -0.01996563 </v>
   <v>      -0.01913113      -0.04312825       0.01996563 </v>
   <v>      -0.01637293      -0.01533028      -0.00573877 </v>
   <v>      -0.02115365      -0.02357815       0.00581453 </v>
   <v>      -0.01902100      -0.01362296       0.00688965 </v>
   <v>      -0.01978758      -0.01485647       0.00372370 </v>
   <v>      -0.02340471      -0.00432404      -0.00336790 </v>
   <v>      -0.00756877      -0.02005095      -0.00746102 </v>
   <v>      -0.01341878      -0.02731877      -0.00928908 </v>
   <v>      -0.01679373      -0.03632619      -0.01446931 </v>
   <v>      -0.01245620      -0.02263283      -0.00683558 </v>
   <v>      -0.02708928      -0.03139257      -0.01753341 </v>
   <v>      -0.02903103      -0.04307933      -0.02344224 </v>
   <v>       0.02903103       0.04307933       0.02344224 </v>
   <v>       0.02708928       0.03139257       0.01753341 </v>
   <v>       0.01245620       0.02263283       0.00683558 </v>
   <v>       0.01679373       0.03632619       0.01446931 </v>
   <v>       0.01341878       0.02731877       0.00928908 </v>
   <v>       0.00756877       0.02005095       0.00746102 </v>
   <v>      -0.01913113       0.04312825       0.01996563 </v>
   <v>      -0.01637293       0.01533028      -0.00573877 </v>
   <v>      -0.02115365       0.02357815       0.00581453 </v>
   <v>      -0.01902100       0.01362296       0.00688965 </v>
   <v>      -0.01978758       0.01485647       0.00372370 </v>
   <v>      -0.02340471       0.00432404      -0.00336790 </v>
   <v>       0.02340471      -0.00432404       0.00336790 </v>
   <v>       0.01978758      -0.01485647      -0.00372370 </v>
   <v>       0.01902100      -0.01362296      -0.00688965 </v>
   <v>       0.02115365      -0.02357815      -0.00581453 </v>
   <v>       0.01637293      -0.01533028       0.00573877 </v>
   <v>       0.01913113      -0.04312825      -0.01996563 </v>
   <v>       0.02903103      -0.04307933       0.02344224 </v>
   <v>       0.02708928      -0.03139257       0.01753341 </v>
   <v>       0.01245620      -0.02263283       0.00683558 </v>
   <v>       0.01679373      -0.03632619       0.01446931 </v>
   <v>       0.01341878      -0.02731877       0.00928908 </v>
   <v>       0.00756877      -0.02005095       0.00746102 </v>
   <v>      -0.00756877       0.02005095      -0.00746102 </v>
   <v>      -0.01341878       0.02731877      -0.00928908 </v>
   <v>      -0.01679373       0.03632619      -0.01446931 </v>
   <v>      -0.01245620       0.02263283      -0.00683558 </v>
   <v>      -0.02708928       0.03139257      -0.01753341 </v>
   <v>      -0.02903103       0.04307933      -0.02344224 </v>
   <v>       0.02687823      -0.00000000       0.01991371 </v>
   <v>       0.00949182      -0.00000000       0.01513344 </v>
   <v>      -0.01611315      -0.00000000       0.01157893 </v>
   <v>      -0.00592739      -0.00000000       0.01463654 </v>
   <v>      -0.00171336      -0.00000000       0.02771426 </v>
   <v>      -0.00798565      -0.00000000       0.02015492 </v>
   <v>       0.00798565      -0.00000000      -0.02015492 </v>
   <v>       0.00171336      -0.00000000      -0.02771426 </v>
   <v>       0.00592739      -0.00000000      -0.01463654 </v>
   <v>       0.01611315      -0.00000000      -0.01157893 </v>
   <v>      -0.00949182      -0.00000000      -0.01513344 </v>
   <v>      -0.02687823      -0.00000000      -0.01991371 </v>
   <v>       0.00692387      -0.00000000      -0.00171312 </v>
   <v>      -0.00416564      -0.00000000      -0.00642521 </v>
   <v>       0.00588569      -0.00000000       0.00974332 </v>
   <v>       0.00117554      -0.00000000       0.01278040 </v>
   <v>      -0.00835575      -0.00000000       0.00975332 </v>
   <v>       0.01796484      -0.00000000       0.01110873 </v>
   <v>      -0.01796484      -0.00000000      -0.01110873 </v>
   <v>       0.00835575      -0.00000000      -0.00975332 </v>
   <v>      -0.00117554      -0.00000000      -0.01278040 </v>
   <v>      -0.00588569      -0.00000000      -0.00974332 </v>
   <v>       0.00416564      -0.00000000       0.00642521 </v>
   <v>      -0.00692387      -0.00000000       0.00171312 </v>
   <v>       0.02982425      -0.00000000       0.00927744 </v>
   <v>      -0.02030779      -0.00000000       0.00127363 </v>
   <v>      -0.00765420      -0.00000000       0.00253970 </v>
   <v>      -0.00315459      -0.00000000      -0.00966180 </v>
   <v>      -0.00661232      -0.00000000      -0.00438637 </v>
   <v>      -0.01614484      -0.00000000       0.01787055 </v>
   <v>       0.01614484      -0.00000000      -0.01787055 </v>
   <v>       0.00661232      -0.00000000       0.00438637 </v>
   <v>       0.00315459      -0.00000000       0.00966180 </v>
   <v>       0.00765420      -0.00000000      -0.00253970 </v>
   <v>       0.02030779      -0.00000000      -0.00127363 </v>
   <v>      -0.02982425      -0.00000000      -0.00927744 </v>
   <v>       0.00132152      -0.00000000      -0.01154073 </v>
   <v>       0.01121272      -0.00000000      -0.01094879 </v>
   <v>       0.00626730      -0.00000000      -0.00262212 </v>
   <v>       0.01612434      -0.00000000      -0.00300606 </v>
   <v>       0.00854226      -0.00000000      -0.00827860 </v>
   <v>       0.01934573      -0.00000000      -0.00859421 </v>
   <v>      -0.01934573      -0.00000000       0.00859421 </v>
   <v>      -0.00854226      -0.00000000       0.00827860 </v>
   <v>      -0.01612434      -0.00000000       0.00300606 </v>
   <v>      -0.00626730      -0.00000000       0.00262212 </v>
   <v>      -0.01121272      -0.00000000       0.01094879 </v>
   <v>      -0.00132152      -0.00000000       0.01154073 </v>
  </varray>
  <varray name="stress" >
   <v>      -1.77089585       0.00000000      -0.05158063 </v>
   <v>       0.00000000      -1.79493822       0.00000000 </v>
   <v>      -0.05158059       0.00000000      -2.06616370 </v>
  </varray>
  <energy>
   <i name="e_fr_energy">   -578.19385318 </i>
   <i name="e_wo_entrp">   -578.19385318 </i>
   <i name="e_0_energy">     -0.00000000 </i>
  </energy>
  <time name="totalsc"> 2670.87 2718.88</time>
  <eigenvalues>
   <array>
    <dimension dim="1">band</dimension>
    <dimension dim="2">kpoint</dimension>
    <dimension dim="3">spin</dimension>
    <field>eigene</field>
    <field>occ</field>
    <set>
     <set comment="spin 1">
      <set comment="kpoint 1">
       <r>  -26.6940    1.0000 </r>
       <r>  -26.6931    1.0000 </r>
       <r>  -25.7297    1.0000 </r>
       <r>  -25.7282    1.0000 </r>
       <r>  -25.7258    1.0000 </r>
       <r>  -25.7240    1.0000 </r>
       <r>  -25.7214    1.0000 </r>
       <r>  -25.7198    1.0000 </r>
       <r>  -25.6631    1.0000 </r>
       <r>  -25.6610    1.0000 </r>
       <r>  -25.6606    1.0000 </r>
       <r>  -25.6591    1.0000 </r>
       <r>  -25.6583    1.0000 </r>
       <r>  -25.6569    1.0000 </r>
       <r>  -25.6560    1.0000 </r>
       <r>  -25.6553    1.0000 </r>
       <r>  -25.6546    1.0000 </r>
       <r>  -25.6529    1.0000 </r>
       <r>  -25.6525    1.0000 </r>
       <r>  -25.6523    1.0000 </r>
       <r>  -25.6519    1.0000 </r>
       <r>  -25.6515    1.0000 </r>
       <r>  -25.6409    1.0000 </r>
       <r>  -25.6396    1.0000 </r>
       <r>  -25.6251    1.0000 </r>
       <r>  -25.6230    1.0000 </r>
       <r>  -25.5823    1.0000 </r>
       <r>  -25.5804    1.0000 </r>
       <r>  -25.5781    1.0000 </r>
       <r>  -25.5758    1.0000 </r>
       <r>  -25.5748    1.0000 </r>
       <r>  -25.5747    1.0000 </r>
       <r>  -25.5743    1.0000 </r>
       <r>  -25.5736    1.0000 </r>
       <r>  -25.5732    1.0000 </r>
       <r>  -25.5725    1.0000 </r>
       <r>  -25.5714    1.0000 </r>
       <r>  -25.5710    1.0000 </r>
       <r>  -25.5701    1.0000 </r>
       <r>  -25.5693    1.0000 </r>
       <r>  -25.5690    1.0000 </r>
       <r>  -25.5674    1.0000 </r>
       <r>  -25.5667    1.0000 </r>
       <r>  -25.5658    1.0000 </r>
       <r>  -25.5549    1.0000 </r>
       <r>  -25.5527    1.0000 </r>
       <r>  -25.5080    1.0000 </r>
       <r>  -25.5065    1.0000 </r>
       <r>  -12.0663    1.0000 </r>
       <r>  -12.0653    1.0000 </r>
       <r>  -11.9949    1.0000 </r>
       <r>  -11.9939    1.0000 </r>
       <r>  -11.9006    1.0000 </r>
       <r>  -11.8996    1.0000 </r>
       <r>  -11.3073    1.0000 </r>
       <r>  -11.3060    1.0000 </r>
       <r>  -11.2461    1.0000 </r>
       <r>  -11.2453    1.0000 </r>
       <r>  -11.2420    1.0000 </r>
       <r>  -11.2411    1.0000 </r>
       <r>  -11.2378    1.0000 </r>
       <r>  -11.2328    1.0000 </r>
       <r>  -11.2194    1.0000 </r>
       <r>  -11.2104    1.0000 </r>
       <r>  -11.2015    1.0000 </r>
       <r>  -11.1976    1.0000 </r>
       <r>  -11.1853    1.0000 </r>
       <r>  -11.1782    1.0000 </r>
       <r>  -11.1778    1.0000 </r>
       <r>  -11.1760    1.0000 </r>
       <r>  -11.1734    1.0000 </r>
       <r>  -11.1695    1.0000 </r>
       <r>  -11.1599    1.0000 </r>
       <r>  -11.1563    1.0000 </r>
       <r>  -11.1453    1.0000 </r>
       <r>  -11.1381    1.0000 </r>
       <r>  -11.1363    1.0000 </r>
       <r>  -11.1331    1.0000 </r>
       <r>  -11.1277    1.0000 </r>
[...]
       <r>   -17.5199     0.0000    96.0000 </r>
       <r>   -17.4043     0.0000    96.0000 </r>
       <r>   -17.2887     0.0000    96.0000 </r>
       <r>   -17.1731     0.0000    96.0000 </r>
       <r>   -17.0575     0.0000    96.0000 </r>
       <r>   -16.9419     0.0000    96.0000 </r>
       <r>   -16.8263     0.0000    96.0000 </r>
       <r>   -16.7107     0.0000    96.0000 </r>
       <r>   -16.5951     0.0000    96.0000 </r>
       <r>   -16.4795     0.0000    96.0000 </r>
       <r>   -16.3639     0.0000    96.0000 </r>
       <r>   -16.2483     0.0000    96.0000 </r>
       <r>   -16.1328     0.0000    96.0000 </r>
       <r>   -16.0172     0.0000    96.0000 </r>
       <r>   -15.9016     0.0000    96.0000 </r>
       <r>   -15.7860     0.0000    96.0000 </r>
       <r>   -15.6704     0.0000    96.0000 </r>
       <r>   -15.5548     0.0000    96.0000 </r>
       <r>   -15.4392     0.0000    96.0000 </r>
       <r>   -15.3236     0.0000    96.0000 </r>
       <r>   -15.2080     0.0000    96.0000 </r>
       <r>   -15.0924     0.0000    96.0000 </r>
       <r>   -14.9768     0.0000    96.0000 </r>
       <r>   -14.8612     0.0000    96.0000 </r>
       <r>   -14.7456     0.0000    96.0000 </r>
       <r>   -14.6300     0.0000    96.0000 </r>
       <r>   -14.5144     0.0000    96.0000 </r>
       <r>   -14.3988     0.0000    96.0000 </r>
       <r>   -14.2832     0.0000    96.0000 </r>
       <r>   -14.1676     0.0000    96.0000 </r>
       <r>   -14.0520     0.0000    96.0000 </r>
       <r>   -13.9364     0.0000    96.0000 </r>
       <r>   -13.8208     0.0000    96.0000 </r>
       <r>   -13.7052     0.0000    96.0000 </r>
       <r>   -13.5897     0.0000    96.0000 </r>
       <r>   -13.4741     0.0000    96.0000 </r>
       <r>   -13.3585     0.0000    96.0000 </r>
       <r>   -13.2429     0.0000    96.0000 </r>
       <r>   -13.1273     0.0000    96.0000 </r>
       <r>   -13.0117     0.0000    96.0000 </r>
       <r>   -12.8961     0.0000    96.0000 </r>
       <r>   -12.7805     0.0000    96.0000 </r>
       <r>   -12.6649     0.0000    96.0000 </r>
       <r>   -12.5493     0.0000    96.0000 </r>
       <r>   -12.4337     0.0000    96.0000 </r>
       <r>   -12.3181     0.0000    96.0000 </r>
       <r>   -12.2025     0.0000    96.0000 </r>
       <r>   -12.0869     0.0216    96.0025 </r>
       <r>   -11.9713    34.5947   103.9990 </r>
       <r>   -11.8557    34.6034   108.0000 </r>
       <r>   -11.7401     0.0000   108.0000 </r>
       <r>   -11.6245     0.0000   108.0000 </r>
       <r>   -11.5089     0.0000   108.0000 </r>
       <r>   -11.3933     0.0000   108.0000 </r>
       <r>   -11.2777    31.9872   111.6976 </r>
       <r>   -11.1621   276.2530   152.3836 </r>
       <r>   -11.0465   380.5111   214.6104 </r>
       <r>   -10.9310   293.7770   267.9593 </r>
       <r>   -10.8154   672.3083   366.3659 </r>
       <r>   -10.6998     0.0000   384.0000 </r>
       <r>   -10.5842     0.0000   384.0000 </r>
       <r>   -10.4686     0.0000   384.0000 </r>
       <r>   -10.3530     0.0000   384.0000 </r>
       <r>   -10.2374     0.0000   384.0000 </r>
       <r>   -10.1218     0.0000   384.0000 </r>
       <r>   -10.0062     0.0000   384.0000 </r>
       <r>    -9.8906     0.0000   384.0000 </r>
       <r>    -9.7750     0.0000   384.0000 </r>
       <r>    -9.6594     0.0000   384.0000 </r>
       <r>    -9.5438     0.0000   384.0000 </r>
       <r>    -9.4282     0.0000   384.0000 </r>
       <r>    -9.3126     0.0000   384.0000 </r>
       <r>    -9.1970     0.0000   384.0000 </r>
       <r>    -9.0814     0.0000   384.0000 </r>
       <r>    -8.9658     0.0000   384.0000 </r>
       <r>    -8.8502     6.7787   384.7836 </r>
       <r>    -8.7346    20.7909   387.8283 </r>
       <r>    -8.6190   109.4828   402.6057 </r>
       <r>    -8.5034    41.5241   428.0000 </r>
       <r>    -8.3879     0.0000   428.0000 </r>
       <r>    -8.2723     0.0004   428.0000 </r>
       <r>    -8.1567    26.2756   431.9623 </r>
       <r>    -8.0411     0.0000   432.0000 </r>
       <r>    -7.9255     0.0000   432.0000 </r>
       <r>    -7.8099     0.0000   432.0000 </r>
       <r>    -7.6943     0.0000   432.0000 </r>
       <r>    -7.5787     0.0000   432.0000 </r>
       <r>    -7.4631     0.0000   432.0000 </r>
       <r>    -7.3475     0.0000   432.0000 </r>
       <r>    -7.2319     0.0000   432.0000 </r>
       <r>    -7.1163     0.0000   432.0000 </r>
       <r>    -7.0007     0.0000   432.0000 </r>
       <r>    -6.8851     0.0000   432.0000 </r>
       <r>    -6.7695     0.0000   432.0000 </r>
       <r>    -6.6539     0.0000   432.0000 </r>
       <r>    -6.5383     0.0000   432.0000 </r>
       <r>    -6.4227     0.0000   432.0000 </r>
       <r>    -6.3071     0.0000   432.0000 </r>
       <r>    -6.1915     0.0000   432.0000 </r>
       <r>    -6.0759     0.0000   432.0000 </r>
       <r>    -5.9603     0.0000   432.0000 </r>
       <r>    -5.8447     0.0000   432.0000 </r>
       <r>    -5.7292     0.0000   432.0000 </r>
       <r>    -5.6136     0.0000   432.0000 </r>
       <r>    -5.4980     0.0000   432.0000 </r>
       <r>    -5.3824     0.0000   432.0000 </r>
       <r>    -5.2668     0.0000   432.0000 </r>
       <r>    -5.1512     0.0000   432.0000 </r>
       <r>    -5.0356     0.0000   432.0000 </r>
       <r>    -4.9200     0.0000   432.0000 </r>
       <r>    -4.8044     0.0000   432.0000 </r>
       <r>    -4.6888     0.0000   432.0000 </r>
       <r>    -4.5732     0.0000   432.0000 </r>
       <r>    -4.4576     0.0000   432.0000 </r>
       <r>    -4.3420     0.0000   432.0000 </r>
       <r>    -4.2264    54.8041   438.3351 </r>
       <r>    -4.1108   113.2494   457.2411 </r>
       <r>    -3.9952    65.9125   468.2442 </r>
       <r>    -3.8796    90.4236   481.4526 </r>
       <r>    -3.7640   247.7460   517.9383 </r>
       <r>    -3.6484   205.9674   549.7339 </r>
       <r>    -3.5328    78.0017   563.2166 </r>
       <r>    -3.4172    18.1306   567.3958 </r>
       <r>    -3.3016    29.6921   573.9573 </r>
       <r>    -3.1861    15.1059   575.9962 </r>
       <r>    -3.0705     0.0000   576.0000 </r>
       <r>    -2.9549     0.0000   576.0000 </r>
       <r>    -2.8393     0.0000   576.0000 </r>
       <r>    -2.7237     0.0000   576.0000 </r>
       <r>    -2.6081     0.0000   576.0000 </r>
       <r>    -2.4925     0.0000   576.0000 </r>
       <r>    -2.3769     0.0000   576.0000 </r>
       <r>    -2.2613     0.0000   576.0000 </r>
       <r>    -2.1457     0.0000   576.0000 </r>
       <r>    -2.0301     0.0000   576.0000 </r>
       <r>    -1.9145     0.0000   576.0000 </r>
       <r>    -1.7989     0.0000   576.0000 </r>
       <r>    -1.6833     0.0000   576.0000 </r>
       <r>    -1.5677     2.4475   576.3829 </r>
       <r>    -1.4521     3.2446   576.9001 </r>
       <r>    -1.3365     2.7174   577.4141 </r>
       <r>    -1.2209     3.7982   578.1141 </r>
       <r>    -1.1053     5.9685   578.9899 </r>
       <r>    -0.9897    10.6898   580.6107 </r>
       <r>    -0.8741    13.3214   582.5899 </r>
       <r>    -0.7585    14.0543   584.9746 </r>
       <r>    -0.6429    26.7476   588.7919 </r>
       <r>    -0.5274    61.6720   599.2290 </r>
       <r>    -0.4118    70.0993   610.4282 </r>
       <r>    -0.2962    65.3270   621.2765 </r>
       <r>    -0.1806    60.6468   631.6605 </r>
       <r>    -0.0650    60.4162   642.1088 </r>
       <r>     0.0506    63.7234   652.8411 </r>
       <r>     0.1662    65.6649   664.9156 </r>
       <r>     0.2818   111.3228   682.7934 </r>
       <r>     0.3974   117.9198   703.3310 </r>
       <r>     0.5130   118.8547   722.9391 </r>
       <r>     0.6286   106.5307   740.9895 </r>
       <r>     0.7442    90.5931   757.4472 </r>
       <r>     0.8598    89.4189   771.1614 </r>
       <r>     0.9754   152.4314   794.6954 </r>
       <r>     1.0910    48.9721   805.8360 </r>
       <r>     1.2066    58.5943   815.1982 </r>
       <r>     1.3222    80.5354   829.1595 </r>
       <r>     1.4378    62.4585   839.9449 </r>
       <r>     1.5534    62.2134   851.0166 </r>
       <r>     1.6690    68.8583   861.5847 </r>
       <r>     1.7846     4.9845   863.7762 </r>
       <r>     1.9002     1.2976   864.0000 </r>
       <r>     2.0157     0.0000   864.0000 </r>
       <r>     2.1313     0.0000   864.0000 </r>
       <r>     2.2469     0.0000   864.0000 </r>
       <r>     2.3625     0.0000   864.0000 </r>
       <r>     2.4781     0.0000   864.0000 </r>
       <r>     2.5937     2.4632   864.2847 </r>
       <r>     2.7093    33.4235   868.9636 </r>
       <r>     2.8249    42.9448   875.9892 </r>
       <r>     2.9405    52.0279   884.9642 </r>
       <r>     3.0561    43.8496   893.0938 </r>
       <r>     3.1717    75.9292   905.5271 </r>
       <r>     3.2873    67.5700   916.5108 </r>
       <r>     3.4029    67.6306   927.2928 </r>
       <r>     3.5185    64.3239   937.9356 </r>
       <r>     3.6341    63.6445   949.5820 </r>
       <r>     3.7497    60.8896   959.3886 </r>
       <r>     3.8653    70.6785   970.8701 </r>
       <r>     3.9809    80.3331   983.4612 </r>
       <r>     4.0965    57.9005   992.9680 </r>
       <r>     4.2121    71.3207  1003.6444 </r>
       <r>     4.3277    72.1248  1016.2623 </r>
       <r>     4.4433    68.6934  1027.7657 </r>
       <r>     4.5589    38.5214  1035.1279 </r>
       <r>     4.6744    16.8783  1038.8261 </r>
       <r>     4.7900     4.0018  1039.7376 </r>
       <r>     4.9056     0.4325  1040.0000 </r>
       <r>     5.0212     0.0000  1040.0000 </r>
       <r>     5.1368     0.0000  1040.0000 </r>
       <r>     5.2524     0.0000  1040.0000 </r>
       <r>     5.3680     0.0000  1040.0000 </r>
       <r>     5.4836     0.0000  1040.0000 </r>
       <r>     5.5992     0.0000  1040.0000 </r>
       <r>     5.7148     0.0000  1040.0000 </r>
       <r>     5.8304     0.0000  1040.0000 </r>
       <r>     5.9460     0.0000  1040.0000 </r>
       <r>     6.0616     0.0000  1040.0000 </r>
       <r>     6.1772     0.0000  1040.0000 </r>
       <r>     6.2928     0.0000  1040.0000 </r>
       <r>     6.4084     0.0000  1040.0000 </r>
      </set>
     </set>
    </array>
   </total>
  </dos>
 </calculation>
 <structure name="finalpos" >
  <crystal>
   <varray name="basis" >
    <v>      70.49757494       0.00000000       0.09446213 </v>
    <v>       0.00000000       6.70529623       0.00000000 </v>
    <v>       0.01565223       0.00000000      11.48802326 </v>
   </varray>
   <i name="volume">   5430.46051499 </i>
   <varray name="rec_basis" >
    <v>       0.01418491       0.00000000      -0.00001933 </v>
    <v>       0.00000000       0.14913584       0.00000000 </v>
    <v>      -0.00011664       0.00000000       0.08704734 </v>
   </varray>
  </crystal>
  <varray name="positions" >
   <v>       0.01493016       0.25000000       0.70703433 </v>
   <v>       0.13925358       0.25000000       0.69467825 </v>
   <v>       0.26620176       0.25000000       0.69443616 </v>
   <v>       0.39337814       0.25000000       0.69170510 </v>
   <v>       0.52049329       0.25000000       0.68873456 </v>
   <v>       0.64762903       0.25000000       0.68782711 </v>
   <v>       0.13515848       0.75000002       0.31217289 </v>
   <v>       0.26229427       0.75000002       0.31126544 </v>
   <v>       0.38940939       0.75000002       0.30829490 </v>
   <v>       0.51658580       0.75000002       0.30556384 </v>
   <v>       0.64353396       0.75000002       0.30532175 </v>
   <v>       0.76785738       0.75000002       0.29296567 </v>
   <v>       0.07024663       0.75000002       0.19752537 </v>
   <v>       0.19862684       0.75000002       0.19535033 </v>
   <v>       0.32586957       0.75000002       0.19319007 </v>
   <v>       0.45295852       0.75000002       0.19005981 </v>
   <v>       0.58013617       0.75000002       0.18783091 </v>
   <v>       0.70673033       0.75000002       0.18721649 </v>
   <v>       0.07605721       0.25000000       0.81278349 </v>
   <v>       0.20265139       0.25000000       0.81216907 </v>
   <v>       0.32982903       0.25000000       0.80994017 </v>
   <v>       0.45691796       0.25000000       0.80680991 </v>
   <v>       0.58416069       0.25000000       0.80464965 </v>
   <v>       0.71254088       0.25000000       0.80247461 </v>
   <v>       0.03747086       0.75000002       0.91717678 </v>
   <v>       0.15779161       0.75000002       0.91008805 </v>
   <v>       0.28461467       0.75000002       0.90835922 </v>
   <v>       0.41173109       0.75000002       0.90528822 </v>
   <v>       0.53885435       0.75000002       0.90262576 </v>
   <v>       0.66649222       0.75000002       0.90250396 </v>
   <v>       0.11629527       0.25000000       0.09749601 </v>
   <v>       0.24393321       0.25000000       0.09737422 </v>
   <v>       0.37105644       0.25000000       0.09471176 </v>
   <v>       0.49817286       0.25000000       0.09164076 </v>
   <v>       0.62499589       0.25000000       0.08991193 </v>
   <v>       0.74531664       0.25000000       0.08282320 </v>
   <v>       0.05409974       0.25000000       0.40019363 </v>
   <v>       0.18036967       0.25000000       0.40864696 </v>
   <v>       0.30751386       0.25000000       0.40791758 </v>
   <v>       0.43461666       0.25000000       0.40481379 </v>
   <v>       0.56181131       0.25000000       0.40241500 </v>
   <v>       0.68846000       0.25000000       0.40016340 </v>
   <v>       0.09432750       0.75000002       0.59983664 </v>
   <v>       0.22097626       0.75000002       0.59758504 </v>
   <v>       0.34817087       0.75000002       0.59518625 </v>
   <v>       0.47527370       0.75000002       0.59208246 </v>
   <v>       0.60241789       0.75000002       0.59135308 </v>
   <v>       0.72868781       0.75000002       0.59980641 </v>
   <v>       0.03338177       0.07168994       0.14999810 </v>
   <v>       0.16146604       0.07048162       0.14967268 </v>
   <v>       0.28879877       0.07037871       0.14848241 </v>
   <v>       0.41589396       0.07023999       0.14543606 </v>
   <v>       0.54304562       0.07024526       0.14269479 </v>
   <v>       0.66937931       0.06981783       0.14140710 </v>
   <v>       0.11340818       0.93018216       0.85859288 </v>
   <v>       0.23974194       0.92975473       0.85730519 </v>
   <v>       0.36689357       0.92976000       0.85456392 </v>
   <v>       0.49398876       0.92962128       0.85151757 </v>
   <v>       0.62132148       0.92951837       0.85032730 </v>
   <v>       0.74940574       0.92831005       0.85000188 </v>
   <v>       0.04961206       0.92838433       0.64747226 </v>
   <v>       0.17617358       0.92976865       0.64928039 </v>
   <v>       0.30332570       0.92977270       0.64836872 </v>
   <v>       0.43042881       0.92978467       0.64518326 </v>
   <v>       0.55760858       0.92987185       0.64282866 </v>
   <v>       0.68479931       0.93057534       0.64241858 </v>
   <v>       0.09798820       0.06942465       0.35758142 </v>
   <v>       0.22517899       0.07012814       0.35717134 </v>
   <v>       0.35235871       0.07021532       0.35481674 </v>
   <v>       0.47946186       0.07022729       0.35163128 </v>
   <v>       0.60661398       0.07023135       0.35071961 </v>
   <v>       0.73317549       0.07161566       0.35252774 </v>
   <v>       0.11340818       0.56981784       0.85859288 </v>
   <v>       0.23974194       0.57024527       0.85730519 </v>
   <v>       0.36689357       0.57024000       0.85456392 </v>
   <v>       0.49398876       0.57037872       0.85151757 </v>
   <v>       0.62132148       0.57048163       0.85032730 </v>
   <v>       0.74940574       0.57168995       0.85000188 </v>
   <v>       0.03338177       0.42831005       0.14999810 </v>
   <v>       0.16146604       0.42951837       0.14967268 </v>
   <v>       0.28879877       0.42962128       0.14848241 </v>
   <v>       0.41589396       0.42976000       0.14543606 </v>
   <v>       0.54304562       0.42975473       0.14269479 </v>
   <v>       0.66937931       0.43018216       0.14140710 </v>
   <v>       0.09798820       0.43057534       0.35758142 </v>
   <v>       0.22517899       0.42987185       0.35717134 </v>
   <v>       0.35235871       0.42978467       0.35481674 </v>
   <v>       0.47946186       0.42977270       0.35163128 </v>
   <v>       0.60661398       0.42976865       0.35071961 </v>
   <v>       0.73317549       0.42838433       0.35252774 </v>
   <v>       0.04961206       0.57161567       0.64747226 </v>
   <v>       0.17617358       0.57023135       0.64928039 </v>
   <v>       0.30332570       0.57022730       0.64836872 </v>
   <v>       0.43042881       0.57021533       0.64518326 </v>
   <v>       0.55760858       0.57012815       0.64282866 </v>
   <v>       0.68479931       0.56942466       0.64241858 </v>
   <v>       0.01961238       0.75000002       0.62436621 </v>
   <v>       0.14768399       0.75000002       0.59540848 </v>
   <v>       0.27484860       0.75000002       0.59406803 </v>
   <v>       0.40193855       0.75000002       0.59101914 </v>
   <v>       0.52915293       0.75000002       0.58788677 </v>
   <v>       0.65644751       0.75000002       0.58729273 </v>
   <v>       0.12634001       0.25000000       0.41270727 </v>
   <v>       0.25363457       0.25000000       0.41211323 </v>
   <v>       0.38084898       0.25000000       0.40898086 </v>
   <v>       0.50793893       0.25000000       0.40593197 </v>
   <v>       0.63510355       0.25000000       0.40459152 </v>
   <v>       0.76317510       0.25000000       0.37563379 </v>
   <v>       0.06241661       0.25000000       0.08673087 </v>
   <v>       0.19003267       0.25000000       0.09554753 </v>
   <v>       0.31728047       0.25000000       0.09317590 </v>
   <v>       0.44438287       0.25000000       0.09002700 </v>
   <v>       0.57152736       0.25000000       0.08737422 </v>
   <v>       0.69763385       0.25000000       0.08621163 </v>
   <v>       0.08515364       0.75000002       0.91378835 </v>
   <v>       0.21126017       0.75000002       0.91262576 </v>
   <v>       0.33840466       0.75000002       0.90997298 </v>
   <v>       0.46550705       0.75000002       0.90682408 </v>
   <v>       0.59275491       0.75000002       0.90445245 </v>
   <v>       0.72037090       0.75000002       0.91326911 </v>
   <v>       0.03353465       0.25000000       0.96774957 </v>
   <v>       0.16208322       0.25000000       0.96821741 </v>
   <v>       0.28925340       0.25000000       0.96682387 </v>
   <v>       0.41634506       0.25000000       0.96385423 </v>
   <v>       0.54350782       0.25000000       0.96110085 </v>
   <v>       0.67032996       0.25000000       0.95901093 </v>
   <v>       0.11245755       0.75000002       0.04098909 </v>
   <v>       0.23927976       0.75000002       0.03889917 </v>
   <v>       0.36644247       0.75000002       0.03614578 </v>
   <v>       0.49353415       0.75000002       0.03317614 </v>
   <v>       0.62070434       0.75000002       0.03178260 </v>
   <v>       0.74925284       0.75000002       0.03225044 </v>
   <v>       0.04307428       0.75000002       0.46773254 </v>
   <v>       0.17569530       0.75000002       0.46777598 </v>
   <v>       0.30285721       0.75000002       0.46673412 </v>
   <v>       0.42993374       0.75000002       0.46361768 </v>
   <v>       0.55722508       0.75000002       0.46122738 </v>
   <v>       0.68440867       0.75000002       0.46059095 </v>
   <v>       0.09837888       0.25000000       0.53940897 </v>
   <v>       0.22556246       0.25000000       0.53877253 </v>
   <v>       0.35285382       0.25000000       0.53638223 </v>
   <v>       0.47993032       0.25000000       0.53326580 </v>
   <v>       0.60709227       0.25000000       0.53222394 </v>
   <v>       0.73971323       0.25000000       0.53226737 </v>
  </varray>
 </structure>
</modeling>
