<?xml version="1.0" encoding="ISO-8859-1"?>
<modeling>
 <generator>
  <i name="program" type="string">vasp </i>
  <i name="version" type="string">5.4.4.18Apr17-6-g9f103f2a35  </i>
  <i name="subversion" type="string">(build Nov 21 2017 15:30:27) complex            parallel </i>
  <i name="platform" type="string">LinuxIFC </i>
  <i name="date" type="string">2021 03 17 </i>
  <i name="time" type="string">22:30:23 </i>
 </generator>
 <incar>
  <i type="string" name="PREC">normal</i>
  <i type="int" name="ICHARG">    11</i>
  <i type="int" name="NELM">   100</i>
  <i name="EDIFF">      0.00000100</i>
  <i name="EDIFFG">     -0.01000000</i>
  <i name="ENCUT">    500.00000000</i>
  <i name="POTIM">      0.30000000</i>
  <i type="string" name="LREAL"> Auto       ! Projection in reciprocal s</i>
  <i type="int" name="ISMEAR">     0</i>
  <i name="SIGMA">      0.01000000</i>
  <i type="logical" name="LWAVE"> T  </i>
  <i type="logical" name="LCHARG"> T  </i>
  <i type="logical" name="LASPH"> T  </i>
  <v type="int" name="KPOINT_BSE">    -1     0     0     0</v>
  <i type="int" name="NELM">   100</i>
  <i type="string" name="GGA"> MK</i>
  <i name="PARAM1">      0.12340000</i>
  <i name="PARAM2">      0.71135700</i>
  <i type="logical" name="LUSE_VDW"> T  </i>
  <i name="Zab_VDW">     -1.88670000</i>
  <i name="AGGAC">      0.00000000</i>
  <i type="logical" name="LASPH"> T  </i>
 </incar>
 <structure name="primitive_cell" >
  <crystal>
   <varray name="basis" >
    <v>      88.56409012       0.00000000       0.06420376 </v>
    <v>       0.00000000       6.71859000       0.00000000 </v>
    <v>       0.00850298       0.00000000      11.50778614 </v>
   </varray>
   <i name="volume">   6847.42610447 </i>
   <varray name="rec_basis" >
    <v>       0.01129126       0.00000000      -0.00000834 </v>
    <v>       0.00000000       0.14884075       0.00000000 </v>
    <v>      -0.00006300       0.00000000       0.08689773 </v>
   </varray>
  </crystal>
  <varray name="positions" >
   <v>       0.01285615       0.25000000      -0.29440765 </v>
   <v>       0.02764834       0.25000000      -0.03379159 </v>
   <v>       0.04042895      -0.42809940      -0.35365686 </v>
   <v>       0.04042895      -0.07190060      -0.35365686 </v>
   <v>       0.01651678      -0.24999998      -0.37520290 </v>
   <v>       0.03058404      -0.24999998      -0.08422722 </v>
   <v>       0.04382711       0.25000000       0.39896268 </v>
   <v>       0.06134513       0.25000000      -0.18779926 </v>
   <v>       0.03497386      -0.24999998       0.46713518 </v>
   <v>       0.02735562       0.42792880       0.14827066 </v>
   <v>       0.02735562       0.07207119       0.14827066 </v>
   <v>       0.05050407       0.25000000       0.08618064 </v>
   <v>       0.07907687       0.25000000      -0.46112599 </v>
   <v>       0.06849315      -0.24999998      -0.08682347 </v>
   <v>       0.07602088      -0.24999998      -0.40060257 </v>
   <v>       0.07872688       0.43019992       0.35735894 </v>
   <v>       0.07872688       0.06980007       0.35735894 </v>
   <v>       0.09100185      -0.42983980      -0.14138281 </v>
   <v>       0.09100185      -0.07016020      -0.14138281 </v>
   <v>       0.05665082      -0.24999998       0.19670563 </v>
   <v>       0.09329734       0.25000000       0.09759331 </v>
   <v>       0.10132905       0.25000000       0.41214060 </v>
   <v>       0.09023711      -0.24999998       0.04052236 </v>
   <v>       0.11157727       0.25000000      -0.30553494 </v>
   <v>       0.11830619      -0.24999998      -0.40559546 </v>
   <v>       0.10832062      -0.24999998       0.31130684 </v>
   <v>       0.12971449       0.25000000      -0.03231112 </v>
   <v>       0.12633633      -0.24999998      -0.09058267 </v>
   <v>       0.14097956      -0.42949387      -0.35151198 </v>
   <v>       0.14097956      -0.07050613      -0.35151198 </v>
   <v>       0.12926230       0.42926537       0.14896626 </v>
   <v>       0.12926230       0.07073462       0.14896626 </v>
   <v>       0.14059244      -0.24999998       0.46715981 </v>
   <v>       0.14430739       0.25000000       0.40814066 </v>
   <v>       0.15198690       0.25000000       0.09448279 </v>
   <v>       0.16200748       0.25000000      -0.18857484 </v>
   <v>       0.16885708      -0.24999998      -0.08804022 </v>
   <v>       0.15880146      -0.24999998       0.19475610 </v>
   <v>       0.17664369      -0.24999998      -0.40282547 </v>
   <v>       0.18031206       0.25000000      -0.46153170 </v>
   <v>       0.17994364       0.42958349       0.35705748 </v>
   <v>       0.17994364       0.07041650       0.35705748 </v>
   <v>       0.19152987      -0.42955134      -0.14293490 </v>
   <v>       0.19152987      -0.07044866      -0.14293490 </v>
   <v>       0.19112036      -0.24999998       0.03845661 </v>
   <v>       0.19485056       0.25000000       0.09727130 </v>
   <v>       0.20261694       0.25000000       0.41187039 </v>
   <v>       0.21267442       0.25000000      -0.30554298 </v>
   <v>      -0.18878054       0.25000000       0.37520290 </v>
   <v>       0.20949299      -0.24999998       0.31104184 </v>
   <v>      -0.18511999      -0.24999998       0.29440765 </v>
   <v>       0.21952588      -0.24999998      -0.40609405 </v>
   <v>      -0.19961941      -0.42792880      -0.14827068 </v>
   <v>      -0.19961941      -0.07207120      -0.14827068 </v>
   <v>       0.22722446      -0.24999998      -0.09171381 </v>
   <v>      -0.19991210      -0.24999998       0.03379160 </v>
   <v>       0.23093483       0.25000000      -0.03313012 </v>
   <v>      -0.20284783       0.25000000       0.08422720 </v>
   <v>      -0.20723769       0.25000000      -0.46713526 </v>
   <v>       0.23057471       0.42947236       0.14830314 </v>
   <v>       0.23057471       0.07052763       0.14830314 </v>
   <v>      -0.21269275       0.42809940       0.35365686 </v>
   <v>      -0.21269275       0.07190059       0.35365686 </v>
   <v>       0.24221678      -0.42937567      -0.35171307 </v>
   <v>       0.24221678      -0.07062433      -0.35171307 </v>
   <v>      -0.21609091      -0.24999998      -0.39896264 </v>
   <v>       0.24180701      -0.24999998       0.46690637 </v>
   <v>       0.24554989       0.25000000       0.40814101 </v>
   <v>      -0.22276789      -0.24999998      -0.08618066 </v>
   <v>      -0.22891465       0.25000000      -0.19670565 </v>
   <v>       0.25325842       0.25000000       0.09320988 </v>
   <v>       0.26332183       0.25000000      -0.18946417 </v>
   <v>      -0.23360894      -0.24999998       0.18779924 </v>
   <v>       0.26014003      -0.24999998       0.19382594 </v>
   <v>      -0.24075695       0.25000000       0.08682345 </v>
   <v>       0.27020717      -0.24999998      -0.08903719 </v>
   <v>      -0.24828472       0.25000000       0.40060261 </v>
   <v>      -0.25099071      -0.43019992      -0.35735894 </v>
   <v>      -0.25099071      -0.06980008      -0.35735894 </v>
   <v>       0.27792107      -0.24999998      -0.40388349 </v>
   <v>      -0.25134067      -0.24999998       0.46112590 </v>
   <v>       0.28163990       0.25000000      -0.46254676 </v>
   <v>       0.28124679       0.42954496       0.35596146 </v>
   <v>       0.28124679       0.07045503       0.35596146 </v>
   <v>      -0.26250098       0.25000000      -0.04052234 </v>
   <v>       0.29288671      -0.42954217      -0.14418384 </v>
   <v>       0.29288671      -0.07045783      -0.14418384 </v>
   <v>      -0.26556117      -0.24999998      -0.09759333 </v>
   <v>      -0.26326569       0.42983980       0.14138279 </v>
   <v>      -0.26326569       0.07016019       0.14138279 </v>
   <v>       0.29252956      -0.24999998       0.03724473 </v>
   <v>       0.29627064       0.25000000       0.09596838 </v>
   <v>      -0.27359288      -0.24999998      -0.41214060 </v>
   <v>      -0.28058445       0.25000000      -0.31130684 </v>
   <v>       0.30392078       0.25000000       0.41047041 </v>
   <v>       0.31399904       0.25000000      -0.30698360 </v>
   <v>      -0.28384108      -0.24999998       0.30553494 </v>
   <v>       0.31085381      -0.24999998       0.30989580 </v>
   <v>      -0.29057000       0.25000000       0.40559546 </v>
   <v>       0.32086927      -0.24999998      -0.40726417 </v>
   <v>      -0.29860012       0.25000000       0.09058264 </v>
   <v>      -0.30152613      -0.42926537      -0.14896629 </v>
   <v>      -0.30152613      -0.07073463      -0.14896629 </v>
   <v>       0.32858523      -0.24999998      -0.09299596 </v>
   <v>      -0.30197829      -0.24999998       0.03231113 </v>
   <v>       0.33238842       0.25000000      -0.03434092 </v>
   <v>       0.33204151       0.42950761       0.14713896 </v>
   <v>       0.33204151       0.07049238       0.14713896 </v>
   <v>      -0.31285627       0.25000000      -0.46715989 </v>
   <v>      -0.31324336       0.42949387       0.35151198 </v>
   <v>      -0.31324336       0.07050612       0.35151198 </v>
   <v>       0.34356098      -0.42949461      -0.35282524 </v>
   <v>       0.34356098      -0.07050539      -0.35282524 </v>
   <v>      -0.31657122      -0.24999998      -0.40814062 </v>
   <v>       0.34318426      -0.24999998       0.46573376 </v>
   <v>       0.34694315       0.25000000       0.40663167 </v>
   <v>      -0.32425072      -0.24999998      -0.09448281 </v>
   <v>      -0.33106529       0.25000000      -0.19475612 </v>
   <v>       0.35471348       0.25000000       0.09183490 </v>
   <v>       0.36471277       0.25000000      -0.19100758 </v>
   <v>      -0.33427128      -0.24999998       0.18857482 </v>
   <v>       0.36158118      -0.24999998       0.19185149 </v>
   <v>      -0.34112089       0.25000000       0.08804020 </v>
   <v>       0.37166259      -0.24999998      -0.09076871 </v>
   <v>      -0.34890748       0.25000000       0.40282551 </v>
   <v>      -0.35220747      -0.42958349      -0.35705748 </v>
   <v>      -0.35220747      -0.07041651      -0.35705748 </v>
   <v>       0.37929240      -0.24999998      -0.40559514 </v>
   <v>      -0.35257586      -0.24999998       0.46153161 </v>
   <v>       0.38303266       0.25000000      -0.46445426 </v>
   <v>       0.38267141       0.42941825       0.35403804 </v>
   <v>       0.38267141       0.07058174       0.35403804 </v>
   <v>      -0.36338420       0.25000000      -0.03845659 </v>
   <v>      -0.36379367       0.42955134       0.14293488 </v>
   <v>      -0.36379367       0.07044865       0.14293488 </v>
   <v>      -0.36711440      -0.24999998      -0.09727132 </v>
   <v>       0.39432846      -0.42951584      -0.14607099 </v>
   <v>       0.39432846      -0.07048416      -0.14607099 </v>
   <v>       0.39396758      -0.24999998       0.03547251 </v>
   <v>       0.39769776       0.25000000       0.09412309 </v>
   <v>      -0.37488078      -0.24999998      -0.41187039 </v>
   <v>       0.40535224       0.25000000       0.40878677 </v>
   <v>      -0.38175680       0.25000000      -0.31104184 </v>
   <v>       0.41545023       0.25000000      -0.30870310 </v>
   <v>      -0.38493823      -0.24999998       0.30554298 </v>
   <v>       0.41228595      -0.24999998       0.30870310 </v>
   <v>      -0.39178967       0.25000000       0.40609405 </v>
   <v>       0.42238394      -0.24999998      -0.40878677 </v>
   <v>      -0.39948825       0.25000000       0.09171379 </v>
   <v>      -0.40283854      -0.42947236      -0.14830316 </v>
   <v>      -0.40283854      -0.07052764      -0.14830316 </v>
   <v>       0.43003842      -0.24999998      -0.09412312 </v>
   <v>      -0.40319862      -0.24999998       0.03313014 </v>
   <v>       0.43376860       0.25000000      -0.03547250 </v>
   <v>       0.43340772       0.42951584       0.14607097 </v>
   <v>       0.43340772       0.07048415       0.14607097 </v>
   <v>      -0.41407085       0.25000000      -0.46690645 </v>
   <v>      -0.41448059       0.42937567       0.35171307 </v>
   <v>      -0.41448059       0.07062432       0.35171307 </v>
   <v>      -0.41781373      -0.24999998      -0.40814097 </v>
   <v>       0.44506478      -0.42941825      -0.35403804 </v>
   <v>       0.44506478      -0.07058175      -0.35403804 </v>
   <v>       0.44470353      -0.24999998       0.46445418 </v>
   <v>       0.44844379       0.25000000       0.40559518 </v>
   <v>      -0.42552226      -0.24999998      -0.09320990 </v>
   <v>      -0.43240385       0.25000000      -0.19382596 </v>
   <v>       0.45607359       0.25000000       0.09076869 </v>
   <v>       0.46615500       0.25000000      -0.19185151 </v>
   <v>      -0.43558565      -0.24999998       0.18946415 </v>
   <v>       0.46302341      -0.24999998       0.19100756 </v>
   <v>      -0.44247096       0.25000000       0.08903717 </v>
   <v>       0.47302269      -0.24999998      -0.09183492 </v>
   <v>      -0.45018486       0.25000000       0.40388353 </v>
   <v>      -0.45351060      -0.42954496      -0.35596146 </v>
   <v>      -0.45351060      -0.07045504      -0.35596146 </v>
   <v>      -0.45390369      -0.24999998       0.46254668 </v>
   <v>       0.48079301      -0.24999998      -0.40663163 </v>
   <v>       0.48455190       0.25000000      -0.46573384 </v>
   <v>       0.48417520       0.42949461       0.35282524 </v>
   <v>       0.48417520       0.07050538       0.35282524 </v>
   <v>      -0.46479340       0.25000000      -0.03724472 </v>
   <v>      -0.46515052       0.42954217       0.14418382 </v>
   <v>      -0.46515052       0.07045782       0.14418382 </v>
   <v>      -0.46853448      -0.24999998      -0.09596840 </v>
   <v>       0.49569466      -0.42950761      -0.14713898 </v>
   <v>       0.49569466      -0.07049239      -0.14713898 </v>
   <v>       0.49534779      -0.24999998       0.03434094 </v>
   <v>       0.49915098       0.25000000       0.09299594 </v>
   <v>      -0.47618461      -0.24999998      -0.41047041 </v>
   <v>      -0.49313307       0.25000000       0.40726417 </v>
   <v>      -0.48311762       0.25000000      -0.30989580 </v>
   <v>      -0.48626286      -0.24999998       0.30698360 </v>
  </varray>
 </structure>
 <varray name="primitive_index" >
  <v type="int" >        1 </v>
  <v type="int" >      161 </v>
  <v type="int" >      121 </v>
  <v type="int" >       81 </v>
  <v type="int" >      129 </v>
  <v type="int" >       33 </v>
  <v type="int" >       49 </v>
  <v type="int" >       25 </v>
  <v type="int" >      177 </v>
  <v type="int" >      105 </v>
  <v type="int" >       65 </v>
  <v type="int" >      145 </v>
  <v type="int" >      185 </v>
  <v type="int" >      153 </v>
  <v type="int" >       57 </v>
  <v type="int" >      113 </v>
  <v type="int" >       89 </v>
  <v type="int" >       97 </v>
  <v type="int" >       73 </v>
  <v type="int" >       17 </v>
  <v type="int" >       41 </v>
  <v type="int" >      137 </v>
  <v type="int" >      169 </v>
  <v type="int" >        2 </v>
  <v type="int" >      130 </v>
  <v type="int" >        9 </v>
  <v type="int" >      162 </v>
  <v type="int" >       34 </v>
  <v type="int" >      122 </v>
  <v type="int" >       82 </v>
  <v type="int" >      106 </v>
  <v type="int" >       66 </v>
  <v type="int" >      178 </v>
  <v type="int" >       50 </v>
  <v type="int" >      146 </v>
  <v type="int" >       26 </v>
  <v type="int" >      154 </v>
  <v type="int" >       18 </v>
  <v type="int" >       58 </v>
  <v type="int" >      186 </v>
  <v type="int" >      114 </v>
  <v type="int" >       90 </v>
  <v type="int" >       98 </v>
  <v type="int" >       74 </v>
  <v type="int" >      170 </v>
  <v type="int" >       42 </v>
  <v type="int" >      138 </v>
  <v type="int" >        3 </v>
  <v type="int" >      144 </v>
  <v type="int" >       10 </v>
  <v type="int" >       16 </v>
  <v type="int" >      131 </v>
  <v type="int" >      104 </v>
  <v type="int" >       80 </v>
  <v type="int" >       35 </v>
  <v type="int" >      176 </v>
  <v type="int" >      163 </v>
  <v type="int" >       48 </v>
  <v type="int" >      192 </v>
  <v type="int" >      107 </v>
  <v type="int" >       67 </v>
  <v type="int" >      120 </v>
  <v type="int" >       96 </v>
  <v type="int" >      123 </v>
  <v type="int" >       83 </v>
  <v type="int" >       64 </v>
  <v type="int" >      179 </v>
  <v type="int" >       51 </v>
  <v type="int" >      160 </v>
  <v type="int" >       32 </v>
  <v type="int" >      147 </v>
  <v type="int" >       27 </v>
  <v type="int" >       24 </v>
  <v type="int" >       19 </v>
  <v type="int" >      152 </v>
  <v type="int" >      155 </v>
  <v type="int" >       56 </v>
  <v type="int" >      128 </v>
  <v type="int" >       88 </v>
  <v type="int" >       59 </v>
  <v type="int" >      184 </v>
  <v type="int" >      187 </v>
  <v type="int" >      115 </v>
  <v type="int" >       91 </v>
  <v type="int" >      168 </v>
  <v type="int" >       99 </v>
  <v type="int" >       75 </v>
  <v type="int" >       40 </v>
  <v type="int" >      112 </v>
  <v type="int" >       72 </v>
  <v type="int" >      171 </v>
  <v type="int" >       43 </v>
  <v type="int" >      136 </v>
  <v type="int" >        8 </v>
  <v type="int" >      139 </v>
  <v type="int" >        4 </v>
  <v type="int" >       15 </v>
  <v type="int" >       11 </v>
  <v type="int" >      143 </v>
  <v type="int" >      132 </v>
  <v type="int" >       47 </v>
  <v type="int" >      103 </v>
  <v type="int" >       79 </v>
  <v type="int" >       36 </v>
  <v type="int" >      175 </v>
  <v type="int" >      164 </v>
  <v type="int" >      108 </v>
  <v type="int" >       68 </v>
  <v type="int" >      191 </v>
  <v type="int" >      119 </v>
  <v type="int" >       95 </v>
  <v type="int" >      124 </v>
  <v type="int" >       84 </v>
  <v type="int" >       63 </v>
  <v type="int" >      180 </v>
  <v type="int" >       52 </v>
  <v type="int" >      159 </v>
  <v type="int" >       31 </v>
  <v type="int" >      148 </v>
  <v type="int" >       28 </v>
  <v type="int" >       23 </v>
  <v type="int" >       20 </v>
  <v type="int" >      151 </v>
  <v type="int" >      156 </v>
  <v type="int" >       55 </v>
  <v type="int" >      127 </v>
  <v type="int" >       87 </v>
  <v type="int" >       60 </v>
  <v type="int" >      183 </v>
  <v type="int" >      188 </v>
  <v type="int" >      116 </v>
  <v type="int" >       92 </v>
  <v type="int" >      167 </v>
  <v type="int" >      111 </v>
  <v type="int" >       71 </v>
  <v type="int" >       39 </v>
  <v type="int" >      100 </v>
  <v type="int" >       76 </v>
  <v type="int" >      172 </v>
  <v type="int" >       44 </v>
  <v type="int" >      135 </v>
  <v type="int" >      140 </v>
  <v type="int" >        7 </v>
  <v type="int" >        5 </v>
  <v type="int" >       14 </v>
  <v type="int" >       12 </v>
  <v type="int" >      142 </v>
  <v type="int" >      133 </v>
  <v type="int" >       46 </v>
  <v type="int" >      102 </v>
  <v type="int" >       78 </v>
  <v type="int" >       37 </v>
  <v type="int" >      174 </v>
  <v type="int" >      165 </v>
  <v type="int" >      109 </v>
  <v type="int" >       69 </v>
  <v type="int" >      190 </v>
  <v type="int" >      118 </v>
  <v type="int" >       94 </v>
  <v type="int" >       62 </v>
  <v type="int" >      125 </v>
  <v type="int" >       85 </v>
  <v type="int" >      181 </v>
  <v type="int" >       53 </v>
  <v type="int" >      158 </v>
  <v type="int" >       30 </v>
  <v type="int" >      149 </v>
  <v type="int" >       29 </v>
  <v type="int" >       22 </v>
  <v type="int" >       21 </v>
  <v type="int" >      150 </v>
  <v type="int" >      157 </v>
  <v type="int" >       54 </v>
  <v type="int" >      126 </v>
  <v type="int" >       86 </v>
  <v type="int" >      182 </v>
  <v type="int" >       61 </v>
  <v type="int" >      189 </v>
  <v type="int" >      117 </v>
  <v type="int" >       93 </v>
  <v type="int" >      166 </v>
  <v type="int" >      110 </v>
  <v type="int" >       70 </v>
  <v type="int" >       38 </v>
  <v type="int" >      101 </v>
  <v type="int" >       77 </v>
  <v type="int" >      173 </v>
  <v type="int" >       45 </v>
  <v type="int" >      134 </v>
  <v type="int" >      141 </v>
  <v type="int" >        6 </v>
  <v type="int" >       13 </v>
 </varray>
 <kpoints>
  <generation param="listgenerated">
   <i name="divisions" type="int">      20 </i>
   <v>       0.00000000       0.00000000       0.00000000 </v>
   <v>       0.00000000       0.50000000       0.00000000 </v>
   <v>       0.00000000       0.50000000       0.50000000 </v>
   <v>       0.00000000       0.00000000       0.50000000 </v>
   <v>       0.00000000       0.00000000       0.00000000 </v>
  </generation>
  <varray name="kpointlist" >
   <v>       0.00000000       0.00000000       0.00000000 </v>
   <v>       0.00000000       0.02631579       0.00000000 </v>
   <v>       0.00000000       0.05263158       0.00000000 </v>
   <v>       0.00000000       0.07894737       0.00000000 </v>
   <v>       0.00000000       0.10526316       0.00000000 </v>
   <v>       0.00000000       0.13157895       0.00000000 </v>
   <v>       0.00000000       0.15789474       0.00000000 </v>
   <v>       0.00000000       0.18421053       0.00000000 </v>
   <v>       0.00000000       0.21052632       0.00000000 </v>
   <v>       0.00000000       0.23684211       0.00000000 </v>
   <v>       0.00000000       0.26315789       0.00000000 </v>
   <v>       0.00000000       0.28947368       0.00000000 </v>
   <v>       0.00000000       0.31578947       0.00000000 </v>
   <v>       0.00000000       0.34210526       0.00000000 </v>
   <v>       0.00000000       0.36842105       0.00000000 </v>
   <v>       0.00000000       0.39473684       0.00000000 </v>
   <v>       0.00000000       0.42105263       0.00000000 </v>
   <v>       0.00000000       0.44736842       0.00000000 </v>
   <v>       0.00000000       0.47368421       0.00000000 </v>
   <v>       0.00000000       0.50000000       0.00000000 </v>
   <v>       0.00000000       0.50000000       0.00000000 </v>
   <v>       0.00000000       0.50000000       0.02631579 </v>
   <v>       0.00000000       0.50000000       0.05263158 </v>
   <v>       0.00000000       0.50000000       0.07894737 </v>
   <v>       0.00000000       0.50000000       0.10526316 </v>
   <v>       0.00000000       0.50000000       0.13157895 </v>
   <v>       0.00000000       0.50000000       0.15789474 </v>
   <v>       0.00000000       0.50000000       0.18421053 </v>
   <v>       0.00000000       0.50000000       0.21052632 </v>
   <v>       0.00000000       0.50000000       0.23684211 </v>
   <v>       0.00000000       0.50000000       0.26315789 </v>
   <v>       0.00000000       0.50000000       0.28947368 </v>
   <v>       0.00000000       0.50000000       0.31578947 </v>
   <v>       0.00000000       0.50000000       0.34210526 </v>
   <v>       0.00000000       0.50000000       0.36842105 </v>
   <v>       0.00000000       0.50000000       0.39473684 </v>
   <v>       0.00000000       0.50000000       0.42105263 </v>
   <v>       0.00000000       0.50000000       0.44736842 </v>
   <v>       0.00000000       0.50000000       0.47368421 </v>
   <v>       0.00000000       0.50000000       0.50000000 </v>
   <v>       0.00000000       0.50000000       0.50000000 </v>
   <v>       0.00000000       0.47368421       0.50000000 </v>
   <v>       0.00000000       0.44736842       0.50000000 </v>
   <v>       0.00000000       0.42105263       0.50000000 </v>
   <v>       0.00000000       0.39473684       0.50000000 </v>
   <v>       0.00000000       0.36842105       0.50000000 </v>
   <v>       0.00000000       0.34210526       0.50000000 </v>
   <v>       0.00000000       0.31578947       0.50000000 </v>
   <v>       0.00000000       0.28947368       0.50000000 </v>
   <v>       0.00000000       0.26315789       0.50000000 </v>
   <v>       0.00000000       0.23684211       0.50000000 </v>
   <v>       0.00000000       0.21052632       0.50000000 </v>
   <v>       0.00000000       0.18421053       0.50000000 </v>
   <v>       0.00000000       0.15789474       0.50000000 </v>
   <v>       0.00000000       0.13157895       0.50000000 </v>
   <v>       0.00000000       0.10526316       0.50000000 </v>
   <v>       0.00000000       0.07894737       0.50000000 </v>
   <v>       0.00000000       0.05263158       0.50000000 </v>
   <v>       0.00000000       0.02631579       0.50000000 </v>
   <v>       0.00000000       0.00000000       0.50000000 </v>
   <v>       0.00000000       0.00000000       0.50000000 </v>
   <v>       0.00000000       0.00000000       0.47368421 </v>
   <v>       0.00000000       0.00000000       0.44736842 </v>
   <v>       0.00000000       0.00000000       0.42105263 </v>
   <v>       0.00000000       0.00000000       0.39473684 </v>
   <v>       0.00000000       0.00000000       0.36842105 </v>
   <v>       0.00000000       0.00000000       0.34210526 </v>
   <v>       0.00000000       0.00000000       0.31578947 </v>
   <v>       0.00000000       0.00000000       0.28947368 </v>
   <v>       0.00000000       0.00000000       0.26315789 </v>
   <v>       0.00000000       0.00000000       0.23684211 </v>
   <v>       0.00000000       0.00000000       0.21052632 </v>
   <v>       0.00000000       0.00000000       0.18421053 </v>
   <v>       0.00000000       0.00000000       0.15789474 </v>
   <v>       0.00000000       0.00000000       0.13157895 </v>
   <v>       0.00000000       0.00000000       0.10526316 </v>
   <v>       0.00000000       0.00000000       0.07894737 </v>
   <v>       0.00000000       0.00000000       0.05263158 </v>
   <v>       0.00000000       0.00000000       0.02631579 </v>
   <v>       0.00000000       0.00000000       0.00000000 </v>
  </varray>
  <varray name="weights" >
   <v>       0.01250000 </v>
   <v>       0.01250000 </v>
   <v>       0.01250000 </v>
   <v>       0.01250000 </v>
   <v>       0.01250000 </v>
   <v>       0.01250000 </v>
   <v>       0.01250000 </v>
   <v>       0.01250000 </v>
   <v>       0.01250000 </v>
   <v>       0.01250000 </v>
   <v>       0.01250000 </v>
   <v>       0.01250000 </v>
   <v>       0.01250000 </v>
   <v>       0.01250000 </v>
   <v>       0.01250000 </v>
   <v>       0.01250000 </v>
   <v>       0.01250000 </v>
   <v>       0.01250000 </v>
   <v>       0.01250000 </v>
   <v>       0.01250000 </v>
   <v>       0.01250000 </v>
   <v>       0.01250000 </v>
   <v>       0.01250000 </v>
   <v>       0.01250000 </v>
   <v>       0.01250000 </v>
   <v>       0.01250000 </v>
   <v>       0.01250000 </v>
   <v>       0.01250000 </v>
   <v>       0.01250000 </v>
   <v>       0.01250000 </v>
   <v>       0.01250000 </v>
   <v>       0.01250000 </v>
   <v>       0.01250000 </v>
   <v>       0.01250000 </v>
   <v>       0.01250000 </v>
   <v>       0.01250000 </v>
   <v>       0.01250000 </v>
   <v>       0.01250000 </v>
   <v>       0.01250000 </v>
   <v>       0.01250000 </v>
   <v>       0.01250000 </v>
   <v>       0.01250000 </v>
   <v>       0.01250000 </v>
   <v>       0.01250000 </v>
   <v>       0.01250000 </v>
   <v>       0.01250000 </v>
   <v>       0.01250000 </v>
   <v>       0.01250000 </v>
   <v>       0.01250000 </v>
   <v>       0.01250000 </v>
   <v>       0.01250000 </v>
   <v>       0.01250000 </v>
   <v>       0.01250000 </v>
   <v>       0.01250000 </v>
   <v>       0.01250000 </v>
   <v>       0.01250000 </v>
   <v>       0.01250000 </v>
   <v>       0.01250000 </v>
   <v>       0.01250000 </v>
   <v>       0.01250000 </v>
   <v>       0.01250000 </v>
   <v>       0.01250000 </v>
   <v>       0.01250000 </v>
   <v>       0.01250000 </v>
   <v>       0.01250000 </v>
   <v>       0.01250000 </v>
   <v>       0.01250000 </v>
   <v>       0.01250000 </v>
   <v>       0.01250000 </v>
   <v>       0.01250000 </v>
   <v>       0.01250000 </v>
   <v>       0.01250000 </v>
   <v>       0.01250000 </v>
   <v>       0.01250000 </v>
   <v>       0.01250000 </v>
   <v>       0.01250000 </v>
   <v>       0.01250000 </v>
   <v>       0.01250000 </v>
   <v>       0.01250000 </v>
   <v>       0.01250000 </v>
  </varray>
 </kpoints>
 <parameters>
  <separator name="general" >
   <i type="string" name="SYSTEM">unknown system</i>
   <i type="logical" name="LCOMPAT"> F  </i>
  </separator>
  <separator name="electronic" >
   <i type="string" name="PREC">normal</i>
   <i name="ENMAX">    500.00000000</i>
   <i name="ENAUG">    351.16500000</i>
   <i name="EDIFF">      0.00000100</i>
   <i type="int" name="IALGO">    38</i>
   <i type="int" name="IWAVPR">    10</i>
   <i type="int" name="NBANDS">   696</i>
   <i name="NELECT">   1152.00000000</i>
   <i type="int" name="TURBO">     0</i>
   <i type="int" name="IRESTART">     0</i>
   <i type="int" name="NREBOOT">     0</i>
   <i type="int" name="NMIN">     0</i>
   <i name="EREF">      0.00000000</i>
   <separator name="electronic smearing" >
    <i type="int" name="ISMEAR">     0</i>
    <i name="SIGMA">      0.01000000</i>
    <i name="KSPACING">      0.50000000</i>
    <i type="logical" name="KGAMMA"> T  </i>
   </separator>
   <separator name="electronic projectors" >
    <i type="logical" name="LREAL"> T  </i>
    <v name="ROPT">     -0.00050000     -0.00050000</v>
    <i type="int" name="LMAXPAW">  -100</i>
    <i type="int" name="LMAXMIX">     2</i>
    <i type="logical" name="NLSPLINE"> F  </i>
   </separator>
   <separator name="electronic startup" >
    <i type="int" name="ISTART">     0</i>
    <i type="int" name="ICHARG">    11</i>
    <i type="int" name="INIWAV">     1</i>
   </separator>
   <separator name="electronic spin" >
    <i type="int" name="ISPIN">     1</i>
    <i type="logical" name="LNONCOLLINEAR"> F  </i>
    <v name="MAGMOM">      1.00000000      1.00000000      1.00000000      1.00000000      1.00000000      1.00000000      1.00000000      1.00000000      1.00000000      1.00000000      1.00000000      1.00000000      1.00000000      1.00000000      1.00000000      1.00000000      1.00000000      1.00000000      1.00000000      1.00000000
      1.00000000      1.00000000      1.00000000      1.00000000      1.00000000      1.00000000      1.00000000      1.00000000      1.00000000      1.00000000      1.00000000      1.00000000      1.00000000      1.00000000      1.00000000      1.00000000      1.00000000      1.00000000      1.00000000      1.00000000
      1.00000000      1.00000000      1.00000000      1.00000000      1.00000000      1.00000000      1.00000000      1.00000000      1.00000000      1.00000000      1.00000000      1.00000000      1.00000000      1.00000000      1.00000000      1.00000000      1.00000000      1.00000000      1.00000000      1.00000000
      1.00000000      1.00000000      1.00000000      1.00000000      1.00000000      1.00000000      1.00000000      1.00000000      1.00000000      1.00000000      1.00000000      1.00000000      1.00000000      1.00000000      1.00000000      1.00000000      1.00000000      1.00000000      1.00000000      1.00000000
      1.00000000      1.00000000      1.00000000      1.00000000      1.00000000      1.00000000      1.00000000      1.00000000      1.00000000      1.00000000      1.00000000      1.00000000      1.00000000      1.00000000      1.00000000      1.00000000      1.00000000      1.00000000      1.00000000      1.00000000
      1.00000000      1.00000000      1.00000000      1.00000000      1.00000000      1.00000000      1.00000000      1.00000000      1.00000000      1.00000000      1.00000000      1.00000000      1.00000000      1.00000000      1.00000000      1.00000000      1.00000000      1.00000000      1.00000000      1.00000000
      1.00000000      1.00000000      1.00000000      1.00000000      1.00000000      1.00000000      1.00000000      1.00000000      1.00000000      1.00000000      1.00000000      1.00000000      1.00000000      1.00000000      1.00000000      1.00000000      1.00000000      1.00000000      1.00000000      1.00000000
      1.00000000      1.00000000      1.00000000      1.00000000      1.00000000      1.00000000      1.00000000      1.00000000      1.00000000      1.00000000      1.00000000      1.00000000      1.00000000      1.00000000      1.00000000      1.00000000      1.00000000      1.00000000      1.00000000      1.00000000
      1.00000000      1.00000000      1.00000000      1.00000000      1.00000000      1.00000000      1.00000000      1.00000000      1.00000000      1.00000000      1.00000000      1.00000000      1.00000000      1.00000000      1.00000000      1.00000000      1.00000000      1.00000000      1.00000000      1.00000000
      1.00000000      1.00000000      1.00000000      1.00000000      1.00000000      1.00000000      1.00000000      1.00000000      1.00000000      1.00000000      1.00000000      1.00000000</v>
    <i name="NUPDOWN">     -1.00000000</i>
    <i type="logical" name="LSORBIT"> F  </i>
    <v name="SAXIS">      0.00000000      0.00000000      1.00000000</v>
    <i type="logical" name="LSPIRAL"> F  </i>
    <v name="QSPIRAL">      0.00000000      0.00000000      0.00000000</v>
    <i type="logical" name="LZEROZ"> F  </i>
   </separator>
   <separator name="electronic exchange-correlation" >
    <i type="logical" name="LASPH"> T  </i>
    <i type="logical" name="LMETAGGA"> F  </i>
   </separator>
   <separator name="electronic convergence" >
    <i type="int" name="NELM">   100</i>
    <i type="int" name="NELMDL">    -5</i>
    <i type="int" name="NELMIN">     2</i>
    <i name="ENINI">    500.00000000</i>
    <separator name="electronic convergence detail" >
     <i type="logical" name="LDIAG"> T  </i>
     <i type="logical" name="LSUBROT"> F  </i>
     <i name="WEIMIN">      0.00000000</i>
     <i name="EBREAK">      0.00000000</i>
     <i name="DEPER">      0.30000000</i>
     <i type="int" name="NRMM">     4</i>
     <i name="TIME">      0.40000000</i>
    </separator>
   </separator>
   <separator name="electronic mixer" >
    <i name="AMIX">      0.40000000</i>
    <i name="BMIX">      1.00000000</i>
    <i name="AMIN">      0.10000000</i>
    <i name="AMIX_MAG">      1.60000000</i>
    <i name="BMIX_MAG">      1.00000000</i>
    <separator name="electronic mixer details" >
     <i type="int" name="IMIX">     4</i>
     <i type="logical" name="MIXFIRST"> F  </i>
     <i type="int" name="MAXMIX">   -45</i>
     <i name="WC">    100.00000000</i>
     <i type="int" name="INIMIX">     1</i>
     <i type="int" name="MIXPRE">     1</i>
     <i type="int" name="MREMOVE">     5</i>
    </separator>
   </separator>
   <separator name="electronic dipolcorrection" >
    <i type="logical" name="LDIPOL"> F  </i>
    <i type="logical" name="LMONO"> F  </i>
    <i type="int" name="IDIPOL">     0</i>
    <i name="EPSILON">      1.00000000</i>
    <v name="DIPOL">   -100.00000000   -100.00000000   -100.00000000</v>
    <i name="EFIELD">      0.00000000</i>
   </separator>
  </separator>
  <separator name="grids" >
   <i type="int" name="NGX">   486</i>
   <i type="int" name="NGY">    40</i>
   <i type="int" name="NGZ">    64</i>
   <i type="int" name="NGXF">   972</i>
   <i type="int" name="NGYF">    80</i>
   <i type="int" name="NGZF">   128</i>
   <i type="logical" name="ADDGRID"> F  </i>
  </separator>
  <separator name="ionic" >
   <i type="int" name="NSW">     0</i>
   <i type="int" name="IBRION">    -1</i>
   <i type="int" name="MDALGO">     0</i>
   <i type="int" name="ISIF">     2</i>
   <i name="PSTRESS">      0.00000000</i>
   <i name="EDIFFG">     -0.01000000</i>
   <i type="int" name="NFREE">     0</i>
   <i name="POTIM">      0.30000000</i>
   <i name="SMASS">     -3.00000000</i>
   <i name="SCALEE">      1.00000000</i>
  </separator>
  <separator name="ionic md" >
   <i name="TEBEG">      0.00010000</i>
   <i name="TEEND">      0.00010000</i>
   <i type="int" name="NBLOCK">     1</i>
   <i type="int" name="KBLOCK">     1</i>
   <i type="int" name="NPACO">   256</i>
   <i name="APACO">     16.00000000</i>
  </separator>
  <separator name="symmetry" >
   <i type="int" name="ISYM">     2</i>
   <i name="SYMPREC">      0.00001000</i>
  </separator>
  <separator name="dos" >
   <i type="int" name="LORBIT">     0</i>
   <v name="RWIGS">     -1.00000000     -1.00000000</v>
   <i type="int" name="NEDOS">   301</i>
   <i name="EMIN">     10.00000000</i>
   <i name="EMAX">    -10.00000000</i>
   <i name="EFERMI">      0.00000000</i>
  </separator>
  <separator name="writing" >
   <i type="int" name="NWRITE">     2</i>
   <i type="logical" name="LWAVE"> T  </i>
   <i type="logical" name="LDOWNSAMPLE"> F  </i>
   <i type="logical" name="LCHARG"> T  </i>
   <i type="logical" name="LPARD"> F  </i>
   <i type="logical" name="LVTOT"> F  </i>
   <i type="logical" name="LVHAR"> F  </i>
   <i type="logical" name="LELF"> F  </i>
   <i type="logical" name="LOPTICS"> F  </i>
   <v name="STM">      0.00000000      0.00000000      0.00000000      0.00000000      0.00000000      0.00000000      0.00000000</v>
  </separator>
  <separator name="performance" >
   <i type="int" name="NPAR">     8</i>
   <i type="int" name="NSIM">     4</i>
   <i type="int" name="NBLK">    -1</i>
   <i type="logical" name="LPLANE"> T  </i>
   <i type="logical" name="LSCALAPACK"> T  </i>
   <i type="logical" name="LSCAAWARE"> F  </i>
   <i type="logical" name="LSCALU"> F  </i>
   <i type="logical" name="LASYNC"> F  </i>
   <i type="logical" name="LORBITALREAL"> F  </i>
  </separator>
  <separator name="miscellaneous" >
   <i type="int" name="IDIOT">     3</i>
   <i type="int" name="ISPECIAL">     0</i>
   <i type="logical" name="LMUSIC"> F  </i>
   <v name="POMASS">    137.32700000     28.08500000</v>
   <v name="DARWINR">      0.00000000      0.00000000</v>
   <v name="DARWINV">      1.00000000      1.00000000</v>
   <i type="logical" name="LCORR"> T  </i>
  </separator>
  <i type="logical" name="GGA_COMPAT"> T  </i>
  <i type="logical" name="LBERRY"> F  </i>
  <i type="int" name="ICORELEVEL">     0</i>
  <i type="logical" name="LDAU"> F  </i>
  <i type="int" name="I_CONSTRAINED_M">     0</i>
  <separator name="electronic exchange-correlation" >
   <i type="string" name="GGA">MK</i>
   <i type="int" name="VOSKOWN">     0</i>
   <i type="logical" name="LHFCALC"> F  </i>
   <i type="string" name="PRECFOCK"></i>
   <i type="logical" name="LSYMGRAD"> F  </i>
   <i type="logical" name="LHFONE"> F  </i>
   <i type="logical" name="LRHFCALC"> F  </i>
   <i type="logical" name="LTHOMAS"> F  </i>
   <i type="logical" name="LMODELHF"> F  </i>
   <i name="ENCUT4O">     -1.00000000</i>
   <i type="int" name="EXXOEP">     0</i>
   <i type="int" name="FOURORBIT">     0</i>
   <i name="AEXX">      0.00000000</i>
   <i name="HFALPHA">      0.00000000</i>
   <i name="MCALPHA">      0.00000000</i>
   <i name="ALDAX">      1.00000000</i>
   <i name="AGGAX">      1.00000000</i>
   <i name="ALDAC">      1.00000000</i>
   <i name="AGGAC">      0.00000000</i>
   <i type="int" name="NKREDX">     1</i>
   <i type="int" name="NKREDY">     1</i>
   <i type="int" name="NKREDZ">     1</i>
   <i type="logical" name="SHIFTRED"> F  </i>
   <i type="logical" name="ODDONLY"> F  </i>
   <i type="logical" name="EVENONLY"> F  </i>
   <i type="int" name="LMAXFOCK">     0</i>
   <i type="int" name="NMAXFOCKAE">     0</i>
   <i type="logical" name="LFOCKAEDFT"> F  </i>
   <i name="HFSCREEN">      0.00000000</i>
   <i name="HFSCREENC">      0.00000000</i>
   <i type="int" name="NBANDSGWLOW">     0</i>
  </separator>
  <separator name="vdW DFT" >
   <i type="logical" name="LUSE_VDW"> T  </i>
   <i name="Zab_VDW">     -1.88670000</i>
   <i name="PARAM1">      0.12340000</i>
   <i name="PARAM2">      0.71135700</i>
   <i name="PARAM3">      0.00000000</i>
  </separator>
  <separator name="model GW" >
   <i type="int" name="MODEL_GW">     0</i>
   <i name="MODEL_EPS0">     21.39820658</i>
   <i name="MODEL_ALPHA">      1.00000000</i>
  </separator>
  <separator name="linear response parameters" >
   <i type="logical" name="LEPSILON"> F  </i>
   <i type="logical" name="LRPA"> F  </i>
   <i type="logical" name="LNABLA"> F  </i>
   <i type="logical" name="LVEL"> F  </i>
   <i type="int" name="KINTER">     0</i>
   <i name="CSHIFT">      0.10000000</i>
   <i name="OMEGAMAX">     -1.00000000</i>
   <i name="DEG_THRESHOLD">      0.00200000</i>
   <i name="RTIME">     -0.10000000</i>
   <i name="WPLASMAI">      0.00000000</i>
   <v name="DFIELD">      0.00000000      0.00000000      0.00000000</v>
   <v name="WPLASMA">      0.00000000      0.00000000      0.00000000      0.00000000      0.00000000      0.00000000      0.00000000      0.00000000      0.00000000</v>
  </separator>
  <separator name="orbital magnetization" >
   <i type="logical" name="NUCIND"> F  </i>
   <v name="MAGPOS">      0.00000000      0.00000000      0.00000000</v>
   <i type="logical" name="LNICSALL"> T  </i>
   <i type="logical" name="ORBITALMAG"> F  </i>
   <i type="logical" name="LMAGBLOCH"> F  </i>
   <i type="logical" name="LCHIMAG"> F  </i>
   <i type="logical" name="LGAUGE"> T  </i>
   <i type="int" name="MAGATOM">     0</i>
   <v name="MAGDIPOL">      0.00000000      0.00000000      0.00000000</v>
   <v name="AVECCONST">      0.00000000      0.00000000      0.00000000</v>
  </separator>
  <separator name="response functions" >
   <i type="logical" name="LADDER"> F  </i>
   <i type="logical" name="LRPAFORCE"> F  </i>
   <i type="logical" name="LFXC"> F  </i>
   <i type="logical" name="LHARTREE"> T  </i>
   <i type="int" name="IBSE">     0</i>
   <v type="int" name="KPOINT">    -1     0     0     0</v>
   <i type="logical" name="LTCTE"> F  </i>
   <i type="logical" name="LTETE"> F  </i>
   <i type="logical" name="LTRIPLET"> F  </i>
   <i type="logical" name="LFXCEPS"> F  </i>
   <i type="logical" name="LFXHEG"> F  </i>
   <i type="int" name="NATURALO">     2</i>
   <i type="logical" name="L2ORDER"> F  </i>
   <i type="logical" name="LMP2LT"> F  </i>
   <i type="logical" name="LUSEW"> F  </i>
   <i name="ENCUTGW">     -2.00000000</i>
   <i name="ENCUTGWSOFT">     -2.00000000</i>
   <i name="ENCUTLF">     -1.00000000</i>
   <i type="int" name="LMAXMP2">    -1</i>
   <i name="SCISSOR">      0.00000000</i>
   <i type="int" name="NOMEGA">     0</i>
   <i type="int" name="NOMEGAR">     0</i>
   <i type="int" name="NBANDSGW">    -1</i>
   <i type="int" name="NBANDSO">    -1</i>
   <i type="int" name="NBANDSV">    -1</i>
   <i type="int" name="NELM">   100</i>
   <i type="int" name="NELMHF">     1</i>
   <i type="int" name="DIM">     3</i>
   <i type="int" name="ANTIRES">     0</i>
   <i name="OMEGAMAX">    -30.00000000</i>
   <i name="OMEGAMIN">    -30.00000000</i>
   <i name="OMEGATL">   -200.00000000</i>
   <i type="int" name="OMEGAGRID">   140</i>
   <i name="CSHIFT">     -0.10000000</i>
   <i type="logical" name="SELFENERGY"> F  </i>
   <i type="logical" name="LSPECTRAL"> F  </i>
   <i type="logical" name="LSPECTRALGW"> F  </i>
   <i type="logical" name="LSINGLES"> F  </i>
   <i type="logical" name="LFERMIGW"> F  </i>
   <i type="logical" name="ODDONLYGW"> F  </i>
   <i type="logical" name="EVENONLYGW"> F  </i>
   <i type="int" name="NKREDLFX">     1</i>
   <i type="int" name="NKREDLFY">     1</i>
   <i type="int" name="NKREDLFZ">     1</i>
   <i type="int" name="MAXMEM">  2800</i>
   <i type="int" name="TELESCOPE">     0</i>
   <i type="int" name="TAUPAR">     1</i>
   <i type="int" name="OMEGAPAR">    -1</i>
   <i name="LAMBDA">      1.00000000</i>
  </separator>
  <separator name="External order field" >
   <i name="OFIELD_KAPPA">      0.00000000</i>
   <v name="OFIELD_K">      0.00000000      0.00000000      0.00000000</v>
   <i name="OFIELD_Q6_NEAR">      0.00000000</i>
   <i name="OFIELD_Q6_FAR">      0.00000000</i>
   <i name="OFIELD_A">      0.00000000</i>
  </separator>
 </parameters>
 <atominfo>
  <atoms>     192 </atoms>
  <types>       2 </types>
  <array name="atoms" >
   <dimension dim="1">ion</dimension>
   <field type="string">element</field>
   <field type="int">atomtype</field>
   <set>
    <rc><c>Ba</c><c>   1</c></rc>
    <rc><c>Ba</c><c>   1</c></rc>
    <rc><c>Ba</c><c>   1</c></rc>
    <rc><c>Ba</c><c>   1</c></rc>
    <rc><c>Ba</c><c>   1</c></rc>
    <rc><c>Ba</c><c>   1</c></rc>
    <rc><c>Ba</c><c>   1</c></rc>
    <rc><c>Ba</c><c>   1</c></rc>
    <rc><c>Ba</c><c>   1</c></rc>
    <rc><c>Ba</c><c>   1</c></rc>
    <rc><c>Ba</c><c>   1</c></rc>
    <rc><c>Ba</c><c>   1</c></rc>
    <rc><c>Ba</c><c>   1</c></rc>
    <rc><c>Ba</c><c>   1</c></rc>
    <rc><c>Ba</c><c>   1</c></rc>
    <rc><c>Ba</c><c>   1</c></rc>
    <rc><c>Ba</c><c>   1</c></rc>
    <rc><c>Ba</c><c>   1</c></rc>
    <rc><c>Ba</c><c>   1</c></rc>
    <rc><c>Ba</c><c>   1</c></rc>
    <rc><c>Ba</c><c>   1</c></rc>
    <rc><c>Ba</c><c>   1</c></rc>
    <rc><c>Ba</c><c>   1</c></rc>
    <rc><c>Ba</c><c>   1</c></rc>
    <rc><c>Ba</c><c>   1</c></rc>
    <rc><c>Ba</c><c>   1</c></rc>
    <rc><c>Ba</c><c>   1</c></rc>
    <rc><c>Ba</c><c>   1</c></rc>
    <rc><c>Ba</c><c>   1</c></rc>
    <rc><c>Ba</c><c>   1</c></rc>
    <rc><c>Ba</c><c>   1</c></rc>
    <rc><c>Ba</c><c>   1</c></rc>
    <rc><c>Ba</c><c>   1</c></rc>
    <rc><c>Ba</c><c>   1</c></rc>
    <rc><c>Ba</c><c>   1</c></rc>
    <rc><c>Ba</c><c>   1</c></rc>
    <rc><c>Ba</c><c>   1</c></rc>
    <rc><c>Ba</c><c>   1</c></rc>
    <rc><c>Ba</c><c>   1</c></rc>
    <rc><c>Ba</c><c>   1</c></rc>
    <rc><c>Ba</c><c>   1</c></rc>
    <rc><c>Ba</c><c>   1</c></rc>
    <rc><c>Ba</c><c>   1</c></rc>
    <rc><c>Ba</c><c>   1</c></rc>
    <rc><c>Ba</c><c>   1</c></rc>
    <rc><c>Ba</c><c>   1</c></rc>
    <rc><c>Ba</c><c>   1</c></rc>
    <rc><c>Ba</c><c>   1</c></rc>
    <rc><c>Ba</c><c>   1</c></rc>
    <rc><c>Ba</c><c>   1</c></rc>
    <rc><c>Ba</c><c>   1</c></rc>
    <rc><c>Ba</c><c>   1</c></rc>
    <rc><c>Ba</c><c>   1</c></rc>
    <rc><c>Ba</c><c>   1</c></rc>
    <rc><c>Ba</c><c>   1</c></rc>
    <rc><c>Ba</c><c>   1</c></rc>
    <rc><c>Ba</c><c>   1</c></rc>
    <rc><c>Ba</c><c>   1</c></rc>
    <rc><c>Ba</c><c>   1</c></rc>
    <rc><c>Ba</c><c>   1</c></rc>
    <rc><c>Ba</c><c>   1</c></rc>
    <rc><c>Ba</c><c>   1</c></rc>
    <rc><c>Ba</c><c>   1</c></rc>
    <rc><c>Ba</c><c>   1</c></rc>
    <rc><c>Si</c><c>   2</c></rc>
    <rc><c>Si</c><c>   2</c></rc>
    <rc><c>Si</c><c>   2</c></rc>
    <rc><c>Si</c><c>   2</c></rc>
    <rc><c>Si</c><c>   2</c></rc>
    <rc><c>Si</c><c>   2</c></rc>
    <rc><c>Si</c><c>   2</c></rc>
    <rc><c>Si</c><c>   2</c></rc>
    <rc><c>Si</c><c>   2</c></rc>
    <rc><c>Si</c><c>   2</c></rc>
    <rc><c>Si</c><c>   2</c></rc>
    <rc><c>Si</c><c>   2</c></rc>
    <rc><c>Si</c><c>   2</c></rc>
    <rc><c>Si</c><c>   2</c></rc>
    <rc><c>Si</c><c>   2</c></rc>
    <rc><c>Si</c><c>   2</c></rc>
    <rc><c>Si</c><c>   2</c></rc>
    <rc><c>Si</c><c>   2</c></rc>
    <rc><c>Si</c><c>   2</c></rc>
    <rc><c>Si</c><c>   2</c></rc>
    <rc><c>Si</c><c>   2</c></rc>
    <rc><c>Si</c><c>   2</c></rc>
    <rc><c>Si</c><c>   2</c></rc>
    <rc><c>Si</c><c>   2</c></rc>
    <rc><c>Si</c><c>   2</c></rc>
    <rc><c>Si</c><c>   2</c></rc>
    <rc><c>Si</c><c>   2</c></rc>
    <rc><c>Si</c><c>   2</c></rc>
    <rc><c>Si</c><c>   2</c></rc>
    <rc><c>Si</c><c>   2</c></rc>
    <rc><c>Si</c><c>   2</c></rc>
    <rc><c>Si</c><c>   2</c></rc>
    <rc><c>Si</c><c>   2</c></rc>
    <rc><c>Si</c><c>   2</c></rc>
    <rc><c>Si</c><c>   2</c></rc>
    <rc><c>Si</c><c>   2</c></rc>
    <rc><c>Si</c><c>   2</c></rc>
    <rc><c>Si</c><c>   2</c></rc>
    <rc><c>Si</c><c>   2</c></rc>
    <rc><c>Si</c><c>   2</c></rc>
    <rc><c>Si</c><c>   2</c></rc>
    <rc><c>Si</c><c>   2</c></rc>
    <rc><c>Si</c><c>   2</c></rc>
    <rc><c>Si</c><c>   2</c></rc>
    <rc><c>Si</c><c>   2</c></rc>
    <rc><c>Si</c><c>   2</c></rc>
    <rc><c>Si</c><c>   2</c></rc>
    <rc><c>Si</c><c>   2</c></rc>
    <rc><c>Si</c><c>   2</c></rc>
    <rc><c>Si</c><c>   2</c></rc>
    <rc><c>Si</c><c>   2</c></rc>
    <rc><c>Si</c><c>   2</c></rc>
    <rc><c>Si</c><c>   2</c></rc>
    <rc><c>Si</c><c>   2</c></rc>
    <rc><c>Si</c><c>   2</c></rc>
    <rc><c>Si</c><c>   2</c></rc>
    <rc><c>Si</c><c>   2</c></rc>
    <rc><c>Si</c><c>   2</c></rc>
    <rc><c>Si</c><c>   2</c></rc>
    <rc><c>Si</c><c>   2</c></rc>
    <rc><c>Si</c><c>   2</c></rc>
    <rc><c>Si</c><c>   2</c></rc>
    <rc><c>Si</c><c>   2</c></rc>
    <rc><c>Si</c><c>   2</c></rc>
    <rc><c>Si</c><c>   2</c></rc>
    <rc><c>Si</c><c>   2</c></rc>
    <rc><c>Si</c><c>   2</c></rc>
    <rc><c>Si</c><c>   2</c></rc>
    <rc><c>Si</c><c>   2</c></rc>
    <rc><c>Si</c><c>   2</c></rc>
    <rc><c>Si</c><c>   2</c></rc>
    <rc><c>Si</c><c>   2</c></rc>
    <rc><c>Si</c><c>   2</c></rc>
    <rc><c>Si</c><c>   2</c></rc>
    <rc><c>Si</c><c>   2</c></rc>
    <rc><c>Si</c><c>   2</c></rc>
    <rc><c>Si</c><c>   2</c></rc>
    <rc><c>Si</c><c>   2</c></rc>
    <rc><c>Si</c><c>   2</c></rc>
    <rc><c>Si</c><c>   2</c></rc>
    <rc><c>Si</c><c>   2</c></rc>
    <rc><c>Si</c><c>   2</c></rc>
    <rc><c>Si</c><c>   2</c></rc>
    <rc><c>Si</c><c>   2</c></rc>
    <rc><c>Si</c><c>   2</c></rc>
    <rc><c>Si</c><c>   2</c></rc>
    <rc><c>Si</c><c>   2</c></rc>
    <rc><c>Si</c><c>   2</c></rc>
    <rc><c>Si</c><c>   2</c></rc>
    <rc><c>Si</c><c>   2</c></rc>
    <rc><c>Si</c><c>   2</c></rc>
    <rc><c>Si</c><c>   2</c></rc>
    <rc><c>Si</c><c>   2</c></rc>
    <rc><c>Si</c><c>   2</c></rc>
    <rc><c>Si</c><c>   2</c></rc>
    <rc><c>Si</c><c>   2</c></rc>
    <rc><c>Si</c><c>   2</c></rc>
    <rc><c>Si</c><c>   2</c></rc>
    <rc><c>Si</c><c>   2</c></rc>
    <rc><c>Si</c><c>   2</c></rc>
    <rc><c>Si</c><c>   2</c></rc>
    <rc><c>Si</c><c>   2</c></rc>
    <rc><c>Si</c><c>   2</c></rc>
    <rc><c>Si</c><c>   2</c></rc>
    <rc><c>Si</c><c>   2</c></rc>
    <rc><c>Si</c><c>   2</c></rc>
    <rc><c>Si</c><c>   2</c></rc>
    <rc><c>Si</c><c>   2</c></rc>
    <rc><c>Si</c><c>   2</c></rc>
    <rc><c>Si</c><c>   2</c></rc>
    <rc><c>Si</c><c>   2</c></rc>
    <rc><c>Si</c><c>   2</c></rc>
    <rc><c>Si</c><c>   2</c></rc>
    <rc><c>Si</c><c>   2</c></rc>
    <rc><c>Si</c><c>   2</c></rc>
    <rc><c>Si</c><c>   2</c></rc>
    <rc><c>Si</c><c>   2</c></rc>
    <rc><c>Si</c><c>   2</c></rc>
    <rc><c>Si</c><c>   2</c></rc>
    <rc><c>Si</c><c>   2</c></rc>
    <rc><c>Si</c><c>   2</c></rc>
    <rc><c>Si</c><c>   2</c></rc>
    <rc><c>Si</c><c>   2</c></rc>
    <rc><c>Si</c><c>   2</c></rc>
    <rc><c>Si</c><c>   2</c></rc>
    <rc><c>Si</c><c>   2</c></rc>
    <rc><c>Si</c><c>   2</c></rc>
    <rc><c>Si</c><c>   2</c></rc>
   </set>
  </array>
  <array name="atomtypes" >
   <dimension dim="1">type</dimension>
   <field type="int">atomspertype</field>
   <field type="string">element</field>
   <field>mass</field>
   <field>valence</field>
   <field type="string">pseudopotential</field>
   <set>
    <rc><c>  64</c><c>Ba</c><c>    137.32700000</c><c>     10.00000000</c><c> PAW_PBE Ba_sv 06Sep2000                </c></rc>
    <rc><c> 128</c><c>Si</c><c>     28.08500000</c><c>      4.00000000</c><c> PAW_PBE Si 05Jan2001                   </c></rc>
   </set>
  </array>
 </atominfo>
 <structure name="initialpos" >
  <crystal>
   <varray name="basis" >
    <v>      88.56409012       0.00000000       0.06420376 </v>
    <v>       0.00000000       6.71859000       0.00000000 </v>
    <v>       0.00850298       0.00000000      11.50778614 </v>
   </varray>
   <i name="volume">   6847.42610447 </i>
   <varray name="rec_basis" >
    <v>       0.01129126       0.00000000      -0.00000834 </v>
    <v>       0.00000000       0.14884075       0.00000000 </v>
    <v>      -0.00006300       0.00000000       0.08689773 </v>
   </varray>
  </crystal>
  <varray name="positions" >
   <v>       0.01285615       0.25000000       0.70559235 </v>
   <v>       0.11157727       0.25000000       0.69446506 </v>
   <v>       0.21267442       0.25000000       0.69445702 </v>
   <v>       0.31399904       0.25000000       0.69301640 </v>
   <v>       0.41545023       0.25000000       0.69129690 </v>
   <v>       0.51688238       0.25000000       0.69010420 </v>
   <v>       0.61824320       0.25000000       0.68895816 </v>
   <v>       0.71941555       0.25000000       0.68869316 </v>
   <v>       0.10832062       0.75000002       0.31130684 </v>
   <v>       0.20949299       0.75000002       0.31104184 </v>
   <v>       0.31085381       0.75000002       0.30989580 </v>
   <v>       0.41228595       0.75000002       0.30870310 </v>
   <v>       0.51373714       0.75000002       0.30698360 </v>
   <v>       0.61506177       0.75000002       0.30554298 </v>
   <v>       0.71615892       0.75000002       0.30553494 </v>
   <v>       0.81488001       0.75000002       0.29440765 </v>
   <v>       0.05665082       0.75000002       0.19670563 </v>
   <v>       0.15880146       0.75000002       0.19475610 </v>
   <v>       0.26014003       0.75000002       0.19382594 </v>
   <v>       0.36158118       0.75000002       0.19185149 </v>
   <v>       0.46302341       0.75000002       0.19100756 </v>
   <v>       0.56441435       0.75000002       0.18946415 </v>
   <v>       0.66572872       0.75000002       0.18857482 </v>
   <v>       0.76639106       0.75000002       0.18779924 </v>
   <v>       0.06134513       0.25000000       0.81220074 </v>
   <v>       0.16200748       0.25000000       0.81142516 </v>
   <v>       0.26332183       0.25000000       0.81053583 </v>
   <v>       0.36471277       0.25000000       0.80899242 </v>
   <v>       0.46615500       0.25000000       0.80814849 </v>
   <v>       0.56759615       0.25000000       0.80617404 </v>
   <v>       0.66893471       0.25000000       0.80524388 </v>
   <v>       0.77108535       0.25000000       0.80329435 </v>
   <v>       0.03058404       0.75000002       0.91577278 </v>
   <v>       0.12633633       0.75000002       0.90941733 </v>
   <v>       0.22722446       0.75000002       0.90828619 </v>
   <v>       0.32858523       0.75000002       0.90700404 </v>
   <v>       0.43003842       0.75000002       0.90587688 </v>
   <v>       0.53146552       0.75000002       0.90403160 </v>
   <v>       0.63288560       0.75000002       0.90272868 </v>
   <v>       0.73443883       0.75000002       0.90240667 </v>
   <v>       0.09329734       0.25000000       0.09759331 </v>
   <v>       0.19485056       0.25000000       0.09727130 </v>
   <v>       0.29627064       0.25000000       0.09596838 </v>
   <v>       0.39769776       0.25000000       0.09412309 </v>
   <v>       0.49915098       0.25000000       0.09299594 </v>
   <v>       0.60051175       0.25000000       0.09171379 </v>
   <v>       0.70139988       0.25000000       0.09058264 </v>
   <v>       0.79715217       0.25000000       0.08422720 </v>
   <v>       0.04382711       0.25000000       0.39896268 </v>
   <v>       0.14430739       0.25000000       0.40814066 </v>
   <v>       0.24554989       0.25000000       0.40814101 </v>
   <v>       0.34694315       0.25000000       0.40663167 </v>
   <v>       0.44844379       0.25000000       0.40559518 </v>
   <v>       0.54981514       0.25000000       0.40388353 </v>
   <v>       0.65109252       0.25000000       0.40282551 </v>
   <v>       0.75171528       0.25000000       0.40060261 </v>
   <v>       0.07602088       0.75000002       0.59939743 </v>
   <v>       0.17664369       0.75000002       0.59717453 </v>
   <v>       0.27792107       0.75000002       0.59611651 </v>
   <v>       0.37929240       0.75000002       0.59440486 </v>
   <v>       0.48079301       0.75000002       0.59336837 </v>
   <v>       0.58218627       0.75000002       0.59185903 </v>
   <v>       0.68342878       0.75000002       0.59185938 </v>
   <v>       0.78390909       0.75000002       0.60103736 </v>
   <v>       0.02735562       0.07207119       0.14827066 </v>
   <v>       0.12926230       0.07073462       0.14896626 </v>
   <v>       0.23057471       0.07052763       0.14830314 </v>
   <v>       0.33204151       0.07049238       0.14713896 </v>
   <v>       0.43340772       0.07048415       0.14607097 </v>
   <v>       0.53484948       0.07045782       0.14418382 </v>
   <v>       0.63620633       0.07044865       0.14293488 </v>
   <v>       0.73673431       0.07016019       0.14138279 </v>
   <v>       0.09100185       0.92983980       0.85861719 </v>
   <v>       0.19152987       0.92955134       0.85706510 </v>
   <v>       0.29288671       0.92954217       0.85581616 </v>
   <v>       0.39432846       0.92951584       0.85392901 </v>
   <v>       0.49569466       0.92950761       0.85286102 </v>
   <v>       0.59716146       0.92947236       0.85169684 </v>
   <v>       0.69847387       0.92926537       0.85103371 </v>
   <v>       0.80038059       0.92792880       0.85172932 </v>
   <v>       0.04042895       0.92809940       0.64634314 </v>
   <v>       0.14097956       0.92949387       0.64848802 </v>
   <v>       0.24221678       0.92937567       0.64828693 </v>
   <v>       0.34356098       0.92949461       0.64717476 </v>
   <v>       0.44506478       0.92941825       0.64596196 </v>
   <v>       0.54648940       0.92954496       0.64403854 </v>
   <v>       0.64779253       0.92958349       0.64294252 </v>
   <v>       0.74900929       0.93019992       0.64264106 </v>
   <v>       0.07872688       0.06980007       0.35735894 </v>
   <v>       0.17994364       0.07041650       0.35705748 </v>
   <v>       0.28124679       0.07045503       0.35596146 </v>
   <v>       0.38267141       0.07058174       0.35403804 </v>
   <v>       0.48417520       0.07050538       0.35282524 </v>
   <v>       0.58551941       0.07062432       0.35171307 </v>
   <v>       0.68675664       0.07050612       0.35151198 </v>
   <v>       0.78730725       0.07190059       0.35365686 </v>
   <v>       0.09100185       0.57016020       0.85861719 </v>
   <v>       0.19152987       0.57044866       0.85706510 </v>
   <v>       0.29288671       0.57045783       0.85581616 </v>
   <v>       0.39432846       0.57048416       0.85392901 </v>
   <v>       0.49569466       0.57049239       0.85286102 </v>
   <v>       0.59716146       0.57052764       0.85169684 </v>
   <v>       0.69847387       0.57073463       0.85103371 </v>
   <v>       0.80038059       0.57207120       0.85172932 </v>
   <v>       0.02735562       0.42792880       0.14827066 </v>
   <v>       0.12926230       0.42926537       0.14896626 </v>
   <v>       0.23057471       0.42947236       0.14830314 </v>
   <v>       0.33204151       0.42950761       0.14713896 </v>
   <v>       0.43340772       0.42951584       0.14607097 </v>
   <v>       0.53484948       0.42954217       0.14418382 </v>
   <v>       0.63620633       0.42955134       0.14293488 </v>
   <v>       0.73673431       0.42983980       0.14138279 </v>
   <v>       0.07872688       0.43019992       0.35735894 </v>
   <v>       0.17994364       0.42958349       0.35705748 </v>
   <v>       0.28124679       0.42954496       0.35596146 </v>
   <v>       0.38267141       0.42941825       0.35403804 </v>
   <v>       0.48417520       0.42949461       0.35282524 </v>
   <v>       0.58551941       0.42937567       0.35171307 </v>
   <v>       0.68675664       0.42949387       0.35151198 </v>
   <v>       0.78730725       0.42809940       0.35365686 </v>
   <v>       0.04042895       0.57190060       0.64634314 </v>
   <v>       0.14097956       0.57050613       0.64848802 </v>
   <v>       0.24221678       0.57062433       0.64828693 </v>
   <v>       0.34356098       0.57050539       0.64717476 </v>
   <v>       0.44506478       0.57058175       0.64596196 </v>
   <v>       0.54648940       0.57045504       0.64403854 </v>
   <v>       0.64779253       0.57041651       0.64294252 </v>
   <v>       0.74900929       0.56980008       0.64264106 </v>
   <v>       0.01651678       0.75000002       0.62479710 </v>
   <v>       0.11830619       0.75000002       0.59440454 </v>
   <v>       0.21952588       0.75000002       0.59390595 </v>
   <v>       0.32086927       0.75000002       0.59273583 </v>
   <v>       0.42238394       0.75000002       0.59121323 </v>
   <v>       0.52381539       0.75000002       0.58952959 </v>
   <v>       0.62511922       0.75000002       0.58812961 </v>
   <v>       0.72640712       0.75000002       0.58785940 </v>
   <v>       0.10132905       0.25000000       0.41214060 </v>
   <v>       0.20261694       0.25000000       0.41187039 </v>
   <v>       0.30392078       0.25000000       0.41047041 </v>
   <v>       0.40535224       0.25000000       0.40878677 </v>
   <v>       0.50686693       0.25000000       0.40726417 </v>
   <v>       0.60821033       0.25000000       0.40609405 </v>
   <v>       0.70943000       0.25000000       0.40559546 </v>
   <v>       0.81121946       0.25000000       0.37520290 </v>
   <v>       0.05050407       0.25000000       0.08618064 </v>
   <v>       0.15198690       0.25000000       0.09448279 </v>
   <v>       0.25325842       0.25000000       0.09320988 </v>
   <v>       0.35471348       0.25000000       0.09183490 </v>
   <v>       0.45607359       0.25000000       0.09076869 </v>
   <v>       0.55752904       0.25000000       0.08903717 </v>
   <v>       0.65887911       0.25000000       0.08804020 </v>
   <v>       0.75924305       0.25000000       0.08682345 </v>
   <v>       0.06849315       0.75000002       0.91317653 </v>
   <v>       0.16885708       0.75000002       0.91195978 </v>
   <v>       0.27020717       0.75000002       0.91096281 </v>
   <v>       0.37166259       0.75000002       0.90923129 </v>
   <v>       0.47302269       0.75000002       0.90816508 </v>
   <v>       0.57447774       0.75000002       0.90679010 </v>
   <v>       0.67574928       0.75000002       0.90551719 </v>
   <v>       0.77723211       0.75000002       0.91381934 </v>
   <v>       0.02764834       0.25000000       0.96620841 </v>
   <v>       0.12971449       0.25000000       0.96768888 </v>
   <v>       0.23093483       0.25000000       0.96686988 </v>
   <v>       0.33238842       0.25000000       0.96565908 </v>
   <v>       0.43376860       0.25000000       0.96452750 </v>
   <v>       0.53520660       0.25000000       0.96275528 </v>
   <v>       0.63661580       0.25000000       0.96154341 </v>
   <v>       0.73749902       0.25000000       0.95947766 </v>
   <v>       0.09023711       0.75000002       0.04052236 </v>
   <v>       0.19112036       0.75000002       0.03845661 </v>
   <v>       0.29252956       0.75000002       0.03724473 </v>
   <v>       0.39396758       0.75000002       0.03547251 </v>
   <v>       0.49534779       0.75000002       0.03434094 </v>
   <v>       0.59680138       0.75000002       0.03313014 </v>
   <v>       0.69802171       0.75000002       0.03231113 </v>
   <v>       0.80008790       0.75000002       0.03379160 </v>
   <v>       0.03497386       0.75000002       0.46713518 </v>
   <v>       0.14059244       0.75000002       0.46715981 </v>
   <v>       0.24180701       0.75000002       0.46690637 </v>
   <v>       0.34318426       0.75000002       0.46573376 </v>
   <v>       0.44470353       0.75000002       0.46445418 </v>
   <v>       0.54609631       0.75000002       0.46254668 </v>
   <v>       0.64742414       0.75000002       0.46153161 </v>
   <v>       0.74865933       0.75000002       0.46112590 </v>
   <v>       0.07907687       0.25000000       0.53887401 </v>
   <v>       0.18031206       0.25000000       0.53846830 </v>
   <v>       0.28163990       0.25000000       0.53745324 </v>
   <v>       0.38303266       0.25000000       0.53554574 </v>
   <v>       0.48455190       0.25000000       0.53426616 </v>
   <v>       0.58592915       0.25000000       0.53309355 </v>
   <v>       0.68714373       0.25000000       0.53284011 </v>
   <v>       0.79276231       0.25000000       0.53286474 </v>
  </varray>
 </structure>
 <calculation>
  <scstep>
   <time name="dav">  341.99  342.89</time>
   <time name="total">  347.55  348.53</time>
   <energy>
    <i name="alphaZ">   3008.02502797 </i>
    <i name="ewald"> 362383.67267079 </i>
    <i name="hartreedc">-418792.04711546 </i>
    <i name="XCdc">    389.06762481 </i>
    <i name="pawpsdc">  30892.36982074 </i>
    <i name="pawaedc"> -28537.04040787 </i>
    <i name="eentropy">     -0.00296844 </i>
    <i name="bandstr">    152.86549231 </i>
    <i name="atom">  58153.21163313 </i>
    <i name="e_fr_energy">   7650.12177797 </i>
    <i name="e_wo_entrp">   7650.12474641 </i>
    <i name="e_0_energy">   7650.12326219 </i>
   </energy>
  </scstep>
  <scstep>
   <time name="dav">  428.32  429.34</time>
   <time name="total">  428.34  429.37</time>
   <energy>
    <i name="e_fr_energy">    169.22843276 </i>
    <i name="e_wo_entrp">    169.22953616 </i>
    <i name="e_0_energy">    169.22898446 </i>
   </energy>
  </scstep>
  <scstep>
   <time name="dav">  396.89  397.83</time>
   <time name="total">  396.89  397.84</time>
   <energy>
    <i name="e_fr_energy">   -722.62439154 </i>
    <i name="e_wo_entrp">   -722.62439154 </i>
    <i name="e_0_energy">   -722.62439154 </i>
   </energy>
  </scstep>
  <scstep>
   <time name="dav">  450.67  451.74</time>
   <time name="total">  450.67  451.75</time>
   <energy>
    <i name="e_fr_energy">   -770.79632431 </i>
    <i name="e_wo_entrp">   -770.79632431 </i>
    <i name="e_0_energy">   -770.79632431 </i>
   </energy>
  </scstep>
  <scstep>
   <time name="dav">  480.92  482.07</time>
   <time name="total">  480.93  482.08</time>
   <energy>
    <i name="e_fr_energy">   -772.92231579 </i>
    <i name="e_wo_entrp">   -772.92231579 </i>
    <i name="e_0_energy">   -772.92231579 </i>
   </energy>
  </scstep>
  <scstep>
   <time name="dav">  449.06  450.13</time>
   <time name="total">  449.07  450.14</time>
   <energy>
    <i name="e_fr_energy">   -772.99207463 </i>
    <i name="e_wo_entrp">   -772.99207463 </i>
    <i name="e_0_energy">   -772.99207463 </i>
   </energy>
  </scstep>
  <scstep>
   <time name="dav">  470.87  471.99</time>
   <time name="total">  470.88  472.00</time>
   <energy>
    <i name="e_fr_energy">   -772.99467224 </i>
    <i name="e_wo_entrp">   -772.99467224 </i>
    <i name="e_0_energy">   -772.99467224 </i>
   </energy>
  </scstep>
  <scstep>
   <time name="dav">  437.03  438.06</time>
   <time name="total">  437.03  438.07</time>
   <energy>
    <i name="e_fr_energy">   -772.99478562 </i>
    <i name="e_wo_entrp">   -772.99478562 </i>
    <i name="e_0_energy">   -772.99478562 </i>
   </energy>
  </scstep>
  <scstep>
   <time name="dav">  399.82  400.78</time>
   <time name="total">  399.83  400.78</time>
   <energy>
    <i name="e_fr_energy">   -772.99479151 </i>
    <i name="e_wo_entrp">   -772.99479151 </i>
    <i name="e_0_energy">   -772.99479151 </i>
   </energy>
  </scstep>
  <scstep>
   <time name="dav">  294.73  295.44</time>
   <time name="total">  294.74  295.45</time>
   <energy>
    <i name="alphaZ">   3008.02502797 </i>
    <i name="ewald"> 362383.67267079 </i>
    <i name="hartreedc">-418792.04711546 </i>
    <i name="XCdc">    389.06762481 </i>
    <i name="pawpsdc">  30892.36982074 </i>
    <i name="pawaedc"> -28537.04040787 </i>
    <i name="eentropy">     -0.00000000 </i>
    <i name="bandstr">  -8270.25404591 </i>
    <i name="atom">  58153.21163313 </i>
    <i name="e_fr_energy">   -772.99479181 </i>
    <i name="e_wo_entrp">   -772.99479181 </i>
    <i name="e_0_energy">   -772.99479181 </i>
   </energy>
  </scstep>
  <structure>
   <crystal>
    <varray name="basis" >
     <v>      88.56409012       0.00000000       0.06420376 </v>
     <v>       0.00000000       6.71859000       0.00000000 </v>
     <v>       0.00850298       0.00000000      11.50778614 </v>
    </varray>
    <i name="volume">   6847.42610447 </i>
    <varray name="rec_basis" >
     <v>       0.01129126       0.00000000      -0.00000834 </v>
     <v>       0.00000000       0.14884075       0.00000000 </v>
     <v>      -0.00006300       0.00000000       0.08689773 </v>
    </varray>
   </crystal>
   <varray name="positions" >
    <v>       0.01285615       0.25000000       0.70559235 </v>
    <v>       0.11157727       0.25000000       0.69446506 </v>
    <v>       0.21267442       0.25000000       0.69445702 </v>
    <v>       0.31399904       0.25000000       0.69301640 </v>
    <v>       0.41545023       0.25000000       0.69129690 </v>
    <v>       0.51688238       0.25000000       0.69010420 </v>
    <v>       0.61824320       0.25000000       0.68895816 </v>
    <v>       0.71941555       0.25000000       0.68869316 </v>
    <v>       0.10832062       0.75000002       0.31130684 </v>
    <v>       0.20949299       0.75000002       0.31104184 </v>
    <v>       0.31085381       0.75000002       0.30989580 </v>
    <v>       0.41228595       0.75000002       0.30870310 </v>
    <v>       0.51373714       0.75000002       0.30698360 </v>
    <v>       0.61506177       0.75000002       0.30554298 </v>
    <v>       0.71615892       0.75000002       0.30553494 </v>
    <v>       0.81488001       0.75000002       0.29440765 </v>
    <v>       0.05665082       0.75000002       0.19670563 </v>
    <v>       0.15880146       0.75000002       0.19475610 </v>
    <v>       0.26014003       0.75000002       0.19382594 </v>
    <v>       0.36158118       0.75000002       0.19185149 </v>
    <v>       0.46302341       0.75000002       0.19100756 </v>
    <v>       0.56441435       0.75000002       0.18946415 </v>
    <v>       0.66572872       0.75000002       0.18857482 </v>
    <v>       0.76639106       0.75000002       0.18779924 </v>
    <v>       0.06134513       0.25000000       0.81220074 </v>
    <v>       0.16200748       0.25000000       0.81142516 </v>
    <v>       0.26332183       0.25000000       0.81053583 </v>
    <v>       0.36471277       0.25000000       0.80899242 </v>
    <v>       0.46615500       0.25000000       0.80814849 </v>
    <v>       0.56759615       0.25000000       0.80617404 </v>
    <v>       0.66893471       0.25000000       0.80524388 </v>
    <v>       0.77108535       0.25000000       0.80329435 </v>
    <v>       0.03058404       0.75000002       0.91577278 </v>
    <v>       0.12633633       0.75000002       0.90941733 </v>
    <v>       0.22722446       0.75000002       0.90828619 </v>
    <v>       0.32858523       0.75000002       0.90700404 </v>
    <v>       0.43003842       0.75000002       0.90587688 </v>
    <v>       0.53146552       0.75000002       0.90403160 </v>
    <v>       0.63288560       0.75000002       0.90272868 </v>
    <v>       0.73443883       0.75000002       0.90240667 </v>
    <v>       0.09329734       0.25000000       0.09759331 </v>
    <v>       0.19485056       0.25000000       0.09727130 </v>
    <v>       0.29627064       0.25000000       0.09596838 </v>
    <v>       0.39769776       0.25000000       0.09412309 </v>
    <v>       0.49915098       0.25000000       0.09299594 </v>
    <v>       0.60051175       0.25000000       0.09171379 </v>
    <v>       0.70139988       0.25000000       0.09058264 </v>
    <v>       0.79715217       0.25000000       0.08422720 </v>
    <v>       0.04382711       0.25000000       0.39896268 </v>
    <v>       0.14430739       0.25000000       0.40814066 </v>
    <v>       0.24554989       0.25000000       0.40814101 </v>
    <v>       0.34694315       0.25000000       0.40663167 </v>
    <v>       0.44844379       0.25000000       0.40559518 </v>
    <v>       0.54981514       0.25000000       0.40388353 </v>
    <v>       0.65109252       0.25000000       0.40282551 </v>
    <v>       0.75171528       0.25000000       0.40060261 </v>
    <v>       0.07602088       0.75000002       0.59939743 </v>
    <v>       0.17664369       0.75000002       0.59717453 </v>
    <v>       0.27792107       0.75000002       0.59611651 </v>
    <v>       0.37929240       0.75000002       0.59440486 </v>
    <v>       0.48079301       0.75000002       0.59336837 </v>
    <v>       0.58218627       0.75000002       0.59185903 </v>
    <v>       0.68342878       0.75000002       0.59185938 </v>
    <v>       0.78390909       0.75000002       0.60103736 </v>
    <v>       0.02735562       0.07207119       0.14827066 </v>
    <v>       0.12926230       0.07073462       0.14896626 </v>
    <v>       0.23057471       0.07052763       0.14830314 </v>
    <v>       0.33204151       0.07049238       0.14713896 </v>
    <v>       0.43340772       0.07048415       0.14607097 </v>
    <v>       0.53484948       0.07045782       0.14418382 </v>
    <v>       0.63620633       0.07044865       0.14293488 </v>
    <v>       0.73673431       0.07016019       0.14138279 </v>
    <v>       0.09100185       0.92983980       0.85861719 </v>
    <v>       0.19152987       0.92955134       0.85706510 </v>
    <v>       0.29288671       0.92954217       0.85581616 </v>
    <v>       0.39432846       0.92951584       0.85392901 </v>
    <v>       0.49569466       0.92950761       0.85286102 </v>
    <v>       0.59716146       0.92947236       0.85169684 </v>
    <v>       0.69847387       0.92926537       0.85103371 </v>
    <v>       0.80038059       0.92792880       0.85172932 </v>
    <v>       0.04042895       0.92809940       0.64634314 </v>
    <v>       0.14097956       0.92949387       0.64848802 </v>
    <v>       0.24221678       0.92937567       0.64828693 </v>
    <v>       0.34356098       0.92949461       0.64717476 </v>
    <v>       0.44506478       0.92941825       0.64596196 </v>
    <v>       0.54648940       0.92954496       0.64403854 </v>
    <v>       0.64779253       0.92958349       0.64294252 </v>
    <v>       0.74900929       0.93019992       0.64264106 </v>
    <v>       0.07872688       0.06980007       0.35735894 </v>
    <v>       0.17994364       0.07041650       0.35705748 </v>
    <v>       0.28124679       0.07045503       0.35596146 </v>
    <v>       0.38267141       0.07058174       0.35403804 </v>
    <v>       0.48417520       0.07050538       0.35282524 </v>
    <v>       0.58551941       0.07062432       0.35171307 </v>
    <v>       0.68675664       0.07050612       0.35151198 </v>
    <v>       0.78730725       0.07190059       0.35365686 </v>
    <v>       0.09100185       0.57016020       0.85861719 </v>
    <v>       0.19152987       0.57044866       0.85706510 </v>
    <v>       0.29288671       0.57045783       0.85581616 </v>
    <v>       0.39432846       0.57048416       0.85392901 </v>
    <v>       0.49569466       0.57049239       0.85286102 </v>
    <v>       0.59716146       0.57052764       0.85169684 </v>
    <v>       0.69847387       0.57073463       0.85103371 </v>
    <v>       0.80038059       0.57207120       0.85172932 </v>
    <v>       0.02735562       0.42792880       0.14827066 </v>
    <v>       0.12926230       0.42926537       0.14896626 </v>
    <v>       0.23057471       0.42947236       0.14830314 </v>
    <v>       0.33204151       0.42950761       0.14713896 </v>
    <v>       0.43340772       0.42951584       0.14607097 </v>
    <v>       0.53484948       0.42954217       0.14418382 </v>
    <v>       0.63620633       0.42955134       0.14293488 </v>
    <v>       0.73673431       0.42983980       0.14138279 </v>
    <v>       0.07872688       0.43019992       0.35735894 </v>
    <v>       0.17994364       0.42958349       0.35705748 </v>
    <v>       0.28124679       0.42954496       0.35596146 </v>
    <v>       0.38267141       0.42941825       0.35403804 </v>
    <v>       0.48417520       0.42949461       0.35282524 </v>
    <v>       0.58551941       0.42937567       0.35171307 </v>
    <v>       0.68675664       0.42949387       0.35151198 </v>
    <v>       0.78730725       0.42809940       0.35365686 </v>
    <v>       0.04042895       0.57190060       0.64634314 </v>
    <v>       0.14097956       0.57050613       0.64848802 </v>
    <v>       0.24221678       0.57062433       0.64828693 </v>
    <v>       0.34356098       0.57050539       0.64717476 </v>
    <v>       0.44506478       0.57058175       0.64596196 </v>
    <v>       0.54648940       0.57045504       0.64403854 </v>
    <v>       0.64779253       0.57041651       0.64294252 </v>
    <v>       0.74900929       0.56980008       0.64264106 </v>
    <v>       0.01651678       0.75000002       0.62479710 </v>
    <v>       0.11830619       0.75000002       0.59440454 </v>
    <v>       0.21952588       0.75000002       0.59390595 </v>
    <v>       0.32086927       0.75000002       0.59273583 </v>
    <v>       0.42238394       0.75000002       0.59121323 </v>
    <v>       0.52381539       0.75000002       0.58952959 </v>
    <v>       0.62511922       0.75000002       0.58812961 </v>
    <v>       0.72640712       0.75000002       0.58785940 </v>
    <v>       0.10132905       0.25000000       0.41214060 </v>
    <v>       0.20261694       0.25000000       0.41187039 </v>
    <v>       0.30392078       0.25000000       0.41047041 </v>
    <v>       0.40535224       0.25000000       0.40878677 </v>
    <v>       0.50686693       0.25000000       0.40726417 </v>
    <v>       0.60821033       0.25000000       0.40609405 </v>
    <v>       0.70943000       0.25000000       0.40559546 </v>
    <v>       0.81121946       0.25000000       0.37520290 </v>
    <v>       0.05050407       0.25000000       0.08618064 </v>
    <v>       0.15198690       0.25000000       0.09448279 </v>
    <v>       0.25325842       0.25000000       0.09320988 </v>
    <v>       0.35471348       0.25000000       0.09183490 </v>
    <v>       0.45607359       0.25000000       0.09076869 </v>
    <v>       0.55752904       0.25000000       0.08903717 </v>
    <v>       0.65887911       0.25000000       0.08804020 </v>
    <v>       0.75924305       0.25000000       0.08682345 </v>
    <v>       0.06849315       0.75000002       0.91317653 </v>
    <v>       0.16885708       0.75000002       0.91195978 </v>
    <v>       0.27020717       0.75000002       0.91096281 </v>
    <v>       0.37166259       0.75000002       0.90923129 </v>
    <v>       0.47302269       0.75000002       0.90816508 </v>
    <v>       0.57447774       0.75000002       0.90679010 </v>
    <v>       0.67574928       0.75000002       0.90551719 </v>
    <v>       0.77723211       0.75000002       0.91381934 </v>
    <v>       0.02764834       0.25000000       0.96620841 </v>
    <v>       0.12971449       0.25000000       0.96768888 </v>
    <v>       0.23093483       0.25000000       0.96686988 </v>
    <v>       0.33238842       0.25000000       0.96565908 </v>
    <v>       0.43376860       0.25000000       0.96452750 </v>
    <v>       0.53520660       0.25000000       0.96275528 </v>
    <v>       0.63661580       0.25000000       0.96154341 </v>
    <v>       0.73749902       0.25000000       0.95947766 </v>
    <v>       0.09023711       0.75000002       0.04052236 </v>
    <v>       0.19112036       0.75000002       0.03845661 </v>
    <v>       0.29252956       0.75000002       0.03724473 </v>
    <v>       0.39396758       0.75000002       0.03547251 </v>
    <v>       0.49534779       0.75000002       0.03434094 </v>
    <v>       0.59680138       0.75000002       0.03313014 </v>
    <v>       0.69802171       0.75000002       0.03231113 </v>
    <v>       0.80008790       0.75000002       0.03379160 </v>
    <v>       0.03497386       0.75000002       0.46713518 </v>
    <v>       0.14059244       0.75000002       0.46715981 </v>
    <v>       0.24180701       0.75000002       0.46690637 </v>
    <v>       0.34318426       0.75000002       0.46573376 </v>
    <v>       0.44470353       0.75000002       0.46445418 </v>
    <v>       0.54609631       0.75000002       0.46254668 </v>
    <v>       0.64742414       0.75000002       0.46153161 </v>
    <v>       0.74865933       0.75000002       0.46112590 </v>
    <v>       0.07907687       0.25000000       0.53887401 </v>
    <v>       0.18031206       0.25000000       0.53846830 </v>
[...]
       <r>   -10.0061     0.0000   512.0000 </r>
       <r>    -9.8903     0.0000   512.0000 </r>
       <r>    -9.7744     0.0000   512.0000 </r>
       <r>    -9.6586     0.0000   512.0000 </r>
       <r>    -9.5427     0.0000   512.0000 </r>
       <r>    -9.4268     0.0000   512.0000 </r>
       <r>    -9.3110     0.0000   512.0000 </r>
       <r>    -9.1951     0.0000   512.0000 </r>
       <r>    -9.0793     0.0000   512.0000 </r>
       <r>    -8.9634     0.0000   512.0000 </r>
       <r>    -8.8475     0.0000   512.0000 </r>
       <r>    -8.7317     0.0000   512.0000 </r>
       <r>    -8.6158     0.0000   512.0000 </r>
       <r>    -8.5000    15.9464   513.8475 </r>
       <r>    -8.3841    42.5739   519.7825 </r>
       <r>    -8.2683   343.3926   563.3348 </r>
       <r>    -8.1524     0.0000   572.0000 </r>
       <r>    -8.0365     0.0000   572.0000 </r>
       <r>    -7.9207    10.0016   573.1588 </r>
       <r>    -7.8048    15.9678   576.0000 </r>
       <r>    -7.6890     0.0000   576.0000 </r>
       <r>    -7.5731     0.0000   576.0000 </r>
       <r>    -7.4572     0.0000   576.0000 </r>
       <r>    -7.3414     0.0000   576.0000 </r>
       <r>    -7.2255     0.0000   576.0000 </r>
       <r>    -7.1097     0.0000   576.0000 </r>
       <r>    -6.9938     0.0000   576.0000 </r>
       <r>    -6.8780     0.0000   576.0000 </r>
       <r>    -6.7621     0.0000   576.0000 </r>
       <r>    -6.6462     0.0000   576.0000 </r>
       <r>    -6.5304     0.0000   576.0000 </r>
       <r>    -6.4145     0.0000   576.0000 </r>
       <r>    -6.2987     0.0000   576.0000 </r>
       <r>    -6.1828     0.0000   576.0000 </r>
       <r>    -6.0670     0.0000   576.0000 </r>
       <r>    -5.9511     0.0000   576.0000 </r>
       <r>    -5.8352     0.0000   576.0000 </r>
       <r>    -5.7194     0.0000   576.0000 </r>
       <r>    -5.6035     0.0000   576.0000 </r>
       <r>    -5.4877     0.0000   576.0000 </r>
       <r>    -5.3718     0.0000   576.0000 </r>
       <r>    -5.2559     0.0000   576.0000 </r>
       <r>    -5.1401     0.0000   576.0000 </r>
       <r>    -5.0242     0.0000   576.0000 </r>
       <r>    -4.9084     0.0000   576.0000 </r>
       <r>    -4.7925     0.0000   576.0000 </r>
       <r>    -4.6767     0.0000   576.0000 </r>
       <r>    -4.5608     0.0000   576.0000 </r>
       <r>    -4.4449     0.0000   576.0000 </r>
       <r>    -4.3291     0.0000   576.0000 </r>
       <r>    -4.2132     0.0000   576.0000 </r>
       <r>    -4.0974     0.0000   576.0000 </r>
       <r>    -3.9815     0.0556   576.0064 </r>
       <r>    -3.8656   138.5551   594.8027 </r>
       <r>    -3.7498   117.1857   616.9519 </r>
       <r>    -3.6339    75.9984   630.3050 </r>
       <r>    -3.5181   195.9577   658.5283 </r>
       <r>    -3.4022   255.5769   708.5857 </r>
       <r>    -3.2864   155.7578   744.1458 </r>
       <r>    -3.1705    53.7633   757.4789 </r>
       <r>    -3.0546    43.0474   763.2374 </r>
       <r>    -2.9388     6.3395   766.3345 </r>
       <r>    -2.8229    11.4364   768.0000 </r>
       <r>    -2.7071     0.0000   768.0000 </r>
       <r>    -2.5912     0.0000   768.0000 </r>
       <r>    -2.4753     0.0000   768.0000 </r>
       <r>    -2.3595     0.0000   768.0000 </r>
       <r>    -2.2436     0.0000   768.0000 </r>
       <r>    -2.1278     0.0000   768.0000 </r>
       <r>    -2.0119     0.0000   768.0000 </r>
       <r>    -1.8961     0.0000   768.0000 </r>
       <r>    -1.7802     0.0000   768.0000 </r>
       <r>    -1.6643     0.0000   768.0000 </r>
       <r>    -1.5485     0.0000   768.0000 </r>
       <r>    -1.4326     0.0000   768.0000 </r>
       <r>    -1.3168     1.4373   768.1665 </r>
       <r>    -1.2009     3.7634   768.8360 </r>
       <r>    -1.0851     4.6097   769.5591 </r>
       <r>    -0.9692     5.7380   770.3898 </r>
       <r>    -0.8533     5.9143   771.4102 </r>
       <r>    -0.7375     9.2015   772.8661 </r>
       <r>    -0.6216    14.8434   775.3697 </r>
       <r>    -0.5058    17.9037   778.4493 </r>
       <r>    -0.3899    19.2366   781.8787 </r>
       <r>    -0.2740    72.9313   791.7997 </r>
       <r>    -0.1582    89.9395   806.1702 </r>
       <r>    -0.0423    90.0616   822.1094 </r>
       <r>     0.0735    81.3716   835.8526 </r>
       <r>     0.1894    89.7787   850.6016 </r>
       <r>     0.3052    87.6457   864.4795 </r>
       <r>     0.4211   105.1262   880.5547 </r>
       <r>     0.5370   114.3014   897.9427 </r>
       <r>     0.6528   172.4017   926.0491 </r>
       <r>     0.7687   175.2728   952.4818 </r>
       <r>     0.8845   155.1441   977.5997 </r>
       <r>     1.0004   148.5922  1002.3156 </r>
       <r>     1.1163    92.8738  1020.0102 </r>
       <r>     1.2321   159.0934  1044.9323 </r>
       <r>     1.3480   150.3583  1072.2452 </r>
       <r>     1.4638    69.2184  1083.3195 </r>
       <r>     1.5797   103.7146  1098.6912 </r>
       <r>     1.6955    81.5582  1113.7992 </r>
       <r>     1.8114    92.5182  1129.0440 </r>
       <r>     1.9273    81.5988  1142.3039 </r>
       <r>     2.0431    32.3721  1151.3506 </r>
       <r>     2.1590     3.5152  1151.9573 </r>
       <r>     2.2748     0.0000  1152.0000 </r>
       <r>     2.3907     0.0000  1152.0000 </r>
       <r>     2.5066     0.0000  1152.0000 </r>
       <r>     2.6224     0.0000  1152.0000 </r>
       <r>     2.7383     0.0000  1152.0000 </r>
       <r>     2.8541     0.0000  1152.0000 </r>
       <r>     2.9700    21.4894  1154.6397 </r>
       <r>     3.0858    58.2449  1163.7481 </r>
       <r>     3.2017    70.2704  1174.6914 </r>
       <r>     3.3176    68.3200  1186.5654 </r>
       <r>     3.4334    89.3221  1200.1237 </r>
       <r>     3.5493    86.5919  1215.8324 </r>
       <r>     3.6651    86.0074  1229.6397 </r>
       <r>     3.7810    82.8576  1243.6747 </r>
       <r>     3.8968    98.0489  1259.7098 </r>
       <r>     4.0127    74.1251  1272.1130 </r>
       <r>     4.1286    89.0700  1286.7695 </r>
       <r>     4.2444    96.6759  1302.3507 </r>
       <r>     4.3603    80.0892  1317.0790 </r>
       <r>     4.4761    70.6602  1329.0366 </r>
       <r>     4.5920   105.0998  1346.8767 </r>
       <r>     4.7079    99.4376  1363.4457 </r>
       <r>     4.8237    83.5520  1379.0802 </r>
       <r>     4.9396    41.3880  1386.6201 </r>
       <r>     5.0554    17.8760  1390.2961 </r>
       <r>     5.1713     6.8463  1391.5682 </r>
       <r>     5.2871     0.4316  1392.0000 </r>
       <r>     5.4030     0.0000  1392.0000 </r>
       <r>     5.5189     0.0000  1392.0000 </r>
       <r>     5.6347     0.0000  1392.0000 </r>
       <r>     5.7506     0.0000  1392.0000 </r>
       <r>     5.8664     0.0000  1392.0000 </r>
       <r>     5.9823     0.0000  1392.0000 </r>
       <r>     6.0982     0.0000  1392.0000 </r>
       <r>     6.2140     0.0000  1392.0000 </r>
       <r>     6.3299     0.0000  1392.0000 </r>
       <r>     6.4457     0.0000  1392.0000 </r>
       <r>     6.5616     0.0000  1392.0000 </r>
       <r>     6.6774     0.0000  1392.0000 </r>
       <r>     6.7933     0.0000  1392.0000 </r>
      </set>
     </set>
    </array>
   </total>
  </dos>
 </calculation>
 <structure name="finalpos" >
  <crystal>
   <varray name="basis" >
    <v>      88.56409012       0.00000000       0.06420376 </v>
    <v>       0.00000000       6.71859000       0.00000000 </v>
    <v>       0.00850298       0.00000000      11.50778614 </v>
   </varray>
   <i name="volume">   6847.42610447 </i>
   <varray name="rec_basis" >
    <v>       0.01129126       0.00000000      -0.00000834 </v>
    <v>       0.00000000       0.14884075       0.00000000 </v>
    <v>      -0.00006300       0.00000000       0.08689773 </v>
   </varray>
  </crystal>
  <varray name="positions" >
   <v>       0.01285615       0.25000000       0.70559235 </v>
   <v>       0.11157727       0.25000000       0.69446506 </v>
   <v>       0.21267442       0.25000000       0.69445702 </v>
   <v>       0.31399904       0.25000000       0.69301640 </v>
   <v>       0.41545023       0.25000000       0.69129690 </v>
   <v>       0.51688238       0.25000000       0.69010420 </v>
   <v>       0.61824320       0.25000000       0.68895816 </v>
   <v>       0.71941555       0.25000000       0.68869316 </v>
   <v>       0.10832062       0.75000002       0.31130684 </v>
   <v>       0.20949299       0.75000002       0.31104184 </v>
   <v>       0.31085381       0.75000002       0.30989580 </v>
   <v>       0.41228595       0.75000002       0.30870310 </v>
   <v>       0.51373714       0.75000002       0.30698360 </v>
   <v>       0.61506177       0.75000002       0.30554298 </v>
   <v>       0.71615892       0.75000002       0.30553494 </v>
   <v>       0.81488001       0.75000002       0.29440765 </v>
   <v>       0.05665082       0.75000002       0.19670563 </v>
   <v>       0.15880146       0.75000002       0.19475610 </v>
   <v>       0.26014003       0.75000002       0.19382594 </v>
   <v>       0.36158118       0.75000002       0.19185149 </v>
   <v>       0.46302341       0.75000002       0.19100756 </v>
   <v>       0.56441435       0.75000002       0.18946415 </v>
   <v>       0.66572872       0.75000002       0.18857482 </v>
   <v>       0.76639106       0.75000002       0.18779924 </v>
   <v>       0.06134513       0.25000000       0.81220074 </v>
   <v>       0.16200748       0.25000000       0.81142516 </v>
   <v>       0.26332183       0.25000000       0.81053583 </v>
   <v>       0.36471277       0.25000000       0.80899242 </v>
   <v>       0.46615500       0.25000000       0.80814849 </v>
   <v>       0.56759615       0.25000000       0.80617404 </v>
   <v>       0.66893471       0.25000000       0.80524388 </v>
   <v>       0.77108535       0.25000000       0.80329435 </v>
   <v>       0.03058404       0.75000002       0.91577278 </v>
   <v>       0.12633633       0.75000002       0.90941733 </v>
   <v>       0.22722446       0.75000002       0.90828619 </v>
   <v>       0.32858523       0.75000002       0.90700404 </v>
   <v>       0.43003842       0.75000002       0.90587688 </v>
   <v>       0.53146552       0.75000002       0.90403160 </v>
   <v>       0.63288560       0.75000002       0.90272868 </v>
   <v>       0.73443883       0.75000002       0.90240667 </v>
   <v>       0.09329734       0.25000000       0.09759331 </v>
   <v>       0.19485056       0.25000000       0.09727130 </v>
   <v>       0.29627064       0.25000000       0.09596838 </v>
   <v>       0.39769776       0.25000000       0.09412309 </v>
   <v>       0.49915098       0.25000000       0.09299594 </v>
   <v>       0.60051175       0.25000000       0.09171379 </v>
   <v>       0.70139988       0.25000000       0.09058264 </v>
   <v>       0.79715217       0.25000000       0.08422720 </v>
   <v>       0.04382711       0.25000000       0.39896268 </v>
   <v>       0.14430739       0.25000000       0.40814066 </v>
   <v>       0.24554989       0.25000000       0.40814101 </v>
   <v>       0.34694315       0.25000000       0.40663167 </v>
   <v>       0.44844379       0.25000000       0.40559518 </v>
   <v>       0.54981514       0.25000000       0.40388353 </v>
   <v>       0.65109252       0.25000000       0.40282551 </v>
   <v>       0.75171528       0.25000000       0.40060261 </v>
   <v>       0.07602088       0.75000002       0.59939743 </v>
   <v>       0.17664369       0.75000002       0.59717453 </v>
   <v>       0.27792107       0.75000002       0.59611651 </v>
   <v>       0.37929240       0.75000002       0.59440486 </v>
   <v>       0.48079301       0.75000002       0.59336837 </v>
   <v>       0.58218627       0.75000002       0.59185903 </v>
   <v>       0.68342878       0.75000002       0.59185938 </v>
   <v>       0.78390909       0.75000002       0.60103736 </v>
   <v>       0.02735562       0.07207119       0.14827066 </v>
   <v>       0.12926230       0.07073462       0.14896626 </v>
   <v>       0.23057471       0.07052763       0.14830314 </v>
   <v>       0.33204151       0.07049238       0.14713896 </v>
   <v>       0.43340772       0.07048415       0.14607097 </v>
   <v>       0.53484948       0.07045782       0.14418382 </v>
   <v>       0.63620633       0.07044865       0.14293488 </v>
   <v>       0.73673431       0.07016019       0.14138279 </v>
   <v>       0.09100185       0.92983980       0.85861719 </v>
   <v>       0.19152987       0.92955134       0.85706510 </v>
   <v>       0.29288671       0.92954217       0.85581616 </v>
   <v>       0.39432846       0.92951584       0.85392901 </v>
   <v>       0.49569466       0.92950761       0.85286102 </v>
   <v>       0.59716146       0.92947236       0.85169684 </v>
   <v>       0.69847387       0.92926537       0.85103371 </v>
   <v>       0.80038059       0.92792880       0.85172932 </v>
   <v>       0.04042895       0.92809940       0.64634314 </v>
   <v>       0.14097956       0.92949387       0.64848802 </v>
   <v>       0.24221678       0.92937567       0.64828693 </v>
   <v>       0.34356098       0.92949461       0.64717476 </v>
   <v>       0.44506478       0.92941825       0.64596196 </v>
   <v>       0.54648940       0.92954496       0.64403854 </v>
   <v>       0.64779253       0.92958349       0.64294252 </v>
   <v>       0.74900929       0.93019992       0.64264106 </v>
   <v>       0.07872688       0.06980007       0.35735894 </v>
   <v>       0.17994364       0.07041650       0.35705748 </v>
   <v>       0.28124679       0.07045503       0.35596146 </v>
   <v>       0.38267141       0.07058174       0.35403804 </v>
   <v>       0.48417520       0.07050538       0.35282524 </v>
   <v>       0.58551941       0.07062432       0.35171307 </v>
   <v>       0.68675664       0.07050612       0.35151198 </v>
   <v>       0.78730725       0.07190059       0.35365686 </v>
   <v>       0.09100185       0.57016020       0.85861719 </v>
   <v>       0.19152987       0.57044866       0.85706510 </v>
   <v>       0.29288671       0.57045783       0.85581616 </v>
   <v>       0.39432846       0.57048416       0.85392901 </v>
   <v>       0.49569466       0.57049239       0.85286102 </v>
   <v>       0.59716146       0.57052764       0.85169684 </v>
   <v>       0.69847387       0.57073463       0.85103371 </v>
   <v>       0.80038059       0.57207120       0.85172932 </v>
   <v>       0.02735562       0.42792880       0.14827066 </v>
   <v>       0.12926230       0.42926537       0.14896626 </v>
   <v>       0.23057471       0.42947236       0.14830314 </v>
   <v>       0.33204151       0.42950761       0.14713896 </v>
   <v>       0.43340772       0.42951584       0.14607097 </v>
   <v>       0.53484948       0.42954217       0.14418382 </v>
   <v>       0.63620633       0.42955134       0.14293488 </v>
   <v>       0.73673431       0.42983980       0.14138279 </v>
   <v>       0.07872688       0.43019992       0.35735894 </v>
   <v>       0.17994364       0.42958349       0.35705748 </v>
   <v>       0.28124679       0.42954496       0.35596146 </v>
   <v>       0.38267141       0.42941825       0.35403804 </v>
   <v>       0.48417520       0.42949461       0.35282524 </v>
   <v>       0.58551941       0.42937567       0.35171307 </v>
   <v>       0.68675664       0.42949387       0.35151198 </v>
   <v>       0.78730725       0.42809940       0.35365686 </v>
   <v>       0.04042895       0.57190060       0.64634314 </v>
   <v>       0.14097956       0.57050613       0.64848802 </v>
   <v>       0.24221678       0.57062433       0.64828693 </v>
   <v>       0.34356098       0.57050539       0.64717476 </v>
   <v>       0.44506478       0.57058175       0.64596196 </v>
   <v>       0.54648940       0.57045504       0.64403854 </v>
   <v>       0.64779253       0.57041651       0.64294252 </v>
   <v>       0.74900929       0.56980008       0.64264106 </v>
   <v>       0.01651678       0.75000002       0.62479710 </v>
   <v>       0.11830619       0.75000002       0.59440454 </v>
   <v>       0.21952588       0.75000002       0.59390595 </v>
   <v>       0.32086927       0.75000002       0.59273583 </v>
   <v>       0.42238394       0.75000002       0.59121323 </v>
   <v>       0.52381539       0.75000002       0.58952959 </v>
   <v>       0.62511922       0.75000002       0.58812961 </v>
   <v>       0.72640712       0.75000002       0.58785940 </v>
   <v>       0.10132905       0.25000000       0.41214060 </v>
   <v>       0.20261694       0.25000000       0.41187039 </v>
   <v>       0.30392078       0.25000000       0.41047041 </v>
   <v>       0.40535224       0.25000000       0.40878677 </v>
   <v>       0.50686693       0.25000000       0.40726417 </v>
   <v>       0.60821033       0.25000000       0.40609405 </v>
   <v>       0.70943000       0.25000000       0.40559546 </v>
   <v>       0.81121946       0.25000000       0.37520290 </v>
   <v>       0.05050407       0.25000000       0.08618064 </v>
   <v>       0.15198690       0.25000000       0.09448279 </v>
   <v>       0.25325842       0.25000000       0.09320988 </v>
   <v>       0.35471348       0.25000000       0.09183490 </v>
   <v>       0.45607359       0.25000000       0.09076869 </v>
   <v>       0.55752904       0.25000000       0.08903717 </v>
   <v>       0.65887911       0.25000000       0.08804020 </v>
   <v>       0.75924305       0.25000000       0.08682345 </v>
   <v>       0.06849315       0.75000002       0.91317653 </v>
   <v>       0.16885708       0.75000002       0.91195978 </v>
   <v>       0.27020717       0.75000002       0.91096281 </v>
   <v>       0.37166259       0.75000002       0.90923129 </v>
   <v>       0.47302269       0.75000002       0.90816508 </v>
   <v>       0.57447774       0.75000002       0.90679010 </v>
   <v>       0.67574928       0.75000002       0.90551719 </v>
   <v>       0.77723211       0.75000002       0.91381934 </v>
   <v>       0.02764834       0.25000000       0.96620841 </v>
   <v>       0.12971449       0.25000000       0.96768888 </v>
   <v>       0.23093483       0.25000000       0.96686988 </v>
   <v>       0.33238842       0.25000000       0.96565908 </v>
   <v>       0.43376860       0.25000000       0.96452750 </v>
   <v>       0.53520660       0.25000000       0.96275528 </v>
   <v>       0.63661580       0.25000000       0.96154341 </v>
   <v>       0.73749902       0.25000000       0.95947766 </v>
   <v>       0.09023711       0.75000002       0.04052236 </v>
   <v>       0.19112036       0.75000002       0.03845661 </v>
   <v>       0.29252956       0.75000002       0.03724473 </v>
   <v>       0.39396758       0.75000002       0.03547251 </v>
   <v>       0.49534779       0.75000002       0.03434094 </v>
   <v>       0.59680138       0.75000002       0.03313014 </v>
   <v>       0.69802171       0.75000002       0.03231113 </v>
   <v>       0.80008790       0.75000002       0.03379160 </v>
   <v>       0.03497386       0.75000002       0.46713518 </v>
   <v>       0.14059244       0.75000002       0.46715981 </v>
   <v>       0.24180701       0.75000002       0.46690637 </v>
   <v>       0.34318426       0.75000002       0.46573376 </v>
   <v>       0.44470353       0.75000002       0.46445418 </v>
   <v>       0.54609631       0.75000002       0.46254668 </v>
   <v>       0.64742414       0.75000002       0.46153161 </v>
   <v>       0.74865933       0.75000002       0.46112590 </v>
   <v>       0.07907687       0.25000000       0.53887401 </v>
   <v>       0.18031206       0.25000000       0.53846830 </v>
   <v>       0.28163990       0.25000000       0.53745324 </v>
   <v>       0.38303266       0.25000000       0.53554574 </v>
   <v>       0.48455190       0.25000000       0.53426616 </v>
   <v>       0.58592915       0.25000000       0.53309355 </v>
   <v>       0.68714373       0.25000000       0.53284011 </v>
   <v>       0.79276231       0.25000000       0.53286474 </v>
  </varray>
 </structure>
</modeling>
