<?xml version="1.0" encoding="ISO-8859-1"?>
<modeling>
 <generator>
  <i name="program" type="string">vasp </i>
  <i name="version" type="string">5.4.4.18Apr17-6-g9f103f2a35  </i>
  <i name="subversion" type="string">(build Nov 21 2017 15:30:27) complex            parallel </i>
  <i name="platform" type="string">LinuxIFC </i>
  <i name="date" type="string">2021 03 17 </i>
  <i name="time" type="string">17:19:14 </i>
 </generator>
 <incar>
  <i type="string" name="PREC">normal</i>
  <i type="int" name="ICHARG">    11</i>
  <i type="int" name="NELM">   100</i>
  <i name="EDIFF">      0.00000100</i>
  <i name="EDIFFG">     -0.01000000</i>
  <i name="ENCUT">    500.00000000</i>
  <i name="POTIM">      0.30000000</i>
  <i type="string" name="LREAL"> Auto       ! Projection in reciprocal s</i>
  <i type="int" name="ISMEAR">     0</i>
  <i name="SIGMA">      0.01000000</i>
  <i type="logical" name="LWAVE"> T  </i>
  <i type="logical" name="LCHARG"> T  </i>
  <i type="logical" name="LASPH"> T  </i>
  <v type="int" name="KPOINT_BSE">    -1     0     0     0</v>
  <i type="int" name="NELM">   100</i>
  <i type="string" name="GGA"> MK</i>
  <i name="PARAM1">      0.12340000</i>
  <i name="PARAM2">      0.71135700</i>
  <i type="logical" name="LUSE_VDW"> T  </i>
  <i name="Zab_VDW">     -1.88670000</i>
  <i name="AGGAC">      0.00000000</i>
  <i type="logical" name="LASPH"> T  </i>
 </incar>
 <structure name="primitive_cell" >
  <crystal>
   <varray name="basis" >
    <v>      72.94425835       0.00000000       0.00000000 </v>
    <v>       0.00000000       6.69794483       0.00000000 </v>
    <v>       0.00000000       0.00000000      11.46638321 </v>
   </varray>
   <i name="volume">   5602.20673100 </i>
   <varray name="rec_basis" >
    <v>       0.01370910       0.00000000       0.00000000 </v>
    <v>       0.00000000       0.14929953       0.00000000 </v>
    <v>       0.00000000       0.00000000       0.08721146 </v>
   </varray>
  </crystal>
  <varray name="positions" >
   <v>       0.00449150       0.25000000      -0.29907668 </v>
   <v>       0.02238106       0.25000000      -0.03742330 </v>
   <v>       0.03807777      -0.42870653      -0.35819071 </v>
   <v>       0.03807777      -0.07129347      -0.35819071 </v>
   <v>       0.00908857      -0.24999998      -0.38149772 </v>
   <v>       0.02622375      -0.24999998      -0.08803374 </v>
   <v>       0.04230084       0.25000000       0.39536120 </v>
   <v>       0.06350341       0.25000000      -0.19154137 </v>
   <v>       0.03167985      -0.24999998       0.46176829 </v>
   <v>       0.02212854       0.42857761       0.14528046 </v>
   <v>       0.02212854       0.07142238       0.14528046 </v>
   <v>       0.05020937       0.25000000       0.08268537 </v>
   <v>       0.08511889       0.25000000      -0.46464368 </v>
   <v>       0.07226999      -0.24999998      -0.09084753 </v>
   <v>       0.08124929      -0.24999998      -0.40463966 </v>
   <v>       0.08466625       0.43045785       0.35318631 </v>
   <v>       0.08466625       0.06954214       0.35318631 </v>
   <v>       0.09959577      -0.43017876      -0.14550636 </v>
   <v>       0.09959577      -0.06982124      -0.14550636 </v>
   <v>       0.05785738      -0.24999998       0.19306155 </v>
   <v>       0.10228872       0.25000000       0.09314165 </v>
   <v>       0.11210498       0.25000000       0.40813674 </v>
   <v>       0.09864003      -0.24999998       0.03715778 </v>
   <v>       0.12457155       0.25000000      -0.30936237 </v>
   <v>       0.13271857      -0.24999998      -0.40880463 </v>
   <v>       0.12051017      -0.24999998       0.30821079 </v>
   <v>       0.14639113       0.25000000      -0.03583047 </v>
   <v>       0.14242898      -0.24999998      -0.09403666 </v>
   <v>       0.14585395       0.42971846       0.14589567 </v>
   <v>       0.14585395       0.07028154       0.14589567 </v>
   <v>       0.16024495      -0.42983064      -0.35452127 </v>
   <v>       0.16024495      -0.07016936      -0.35452127 </v>
   <v>       0.15975448      -0.24999998       0.46359474 </v>
   <v>       0.16409687       0.25000000       0.40501461 </v>
   <v>       0.17342895       0.25000000       0.09165565 </v>
   <v>       0.18565157       0.25000000      -0.19136829 </v>
   <v>       0.19395261      -0.24999998      -0.09188726 </v>
   <v>       0.18173832      -0.24999998       0.19099275 </v>
   <v>       0.20345278      -0.24999998      -0.40630823 </v>
   <v>       0.20771738       0.25000000      -0.46462662 </v>
   <v>       0.20727104       0.42980958       0.35343680 </v>
   <v>       0.20727104       0.07019041       0.35343680 </v>
   <v>       0.22148378      -0.42980078      -0.14650041 </v>
   <v>       0.22148378      -0.07019922      -0.14650041 </v>
   <v>      -0.21299945       0.25000000       0.11850222 </v>
   <v>       0.22099060      -0.24999998       0.03543701 </v>
   <v>       0.22529778       0.25000000       0.09381131 </v>
   <v>      -0.20840238      -0.24999998       0.20092325 </v>
   <v>      -0.22603940      -0.42857761      -0.35471952 </v>
   <v>      -0.22603940      -0.07142239      -0.35471952 </v>
   <v>       0.23479394       0.25000000       0.40818233 </v>
   <v>      -0.22629199      -0.24999998       0.46257662 </v>
   <v>      -0.23013467       0.25000000       0.41196634 </v>
   <v>       0.24691030       0.25000000      -0.30874793 </v>
   <v>      -0.23559077       0.25000000      -0.03823163 </v>
   <v>       0.24301244      -0.24999998       0.30839143 </v>
   <v>       0.25514028      -0.24999998      -0.40869768 </v>
   <v>      -0.24198864       0.42870653       0.14180927 </v>
   <v>      -0.24198864       0.07129346       0.14180927 </v>
   <v>      -0.24621171      -0.24999998      -0.10463888 </v>
   <v>      -0.25412028      -0.24999998      -0.41731457 </v>
   <v>       0.26468771      -0.24999998      -0.09407264 </v>
   <v>      -0.26176824       0.25000000      -0.30693839 </v>
   <v>       0.26898804       0.25000000      -0.03575485 </v>
   <v>       0.26850086       0.42982473       0.14608628 </v>
   <v>       0.26850086       0.07017526       0.14608628 </v>
   <v>       0.28265532      -0.42981770      -0.35380241 </v>
   <v>       0.28265532      -0.07018230      -0.35380241 </v>
   <v>      -0.26741429      -0.24999998       0.30845859 </v>
   <v>       0.28221140      -0.24999998       0.46432525 </v>
   <v>      -0.27618088       0.25000000       0.40915243 </v>
   <v>       0.28647418       0.25000000       0.40596657 </v>
   <v>      -0.28857716      -0.43045785      -0.14681369 </v>
   <v>      -0.28857716      -0.06954215      -0.14681369 </v>
   <v>      -0.28516015       0.25000000       0.09536036 </v>
   <v>       0.29603481       0.25000000       0.09164175 </v>
   <v>      -0.28902977      -0.24999998       0.03535633 </v>
   <v>       0.30816027       0.25000000      -0.19147996 </v>
   <v>      -0.30255089       0.25000000      -0.46284223 </v>
   <v>       0.30424462      -0.24999998       0.19150591 </v>
   <v>      -0.30350665       0.43017876       0.35449364 </v>
   <v>      -0.30350665       0.06982123       0.35449364 </v>
   <v>      -0.30619959      -0.24999998      -0.40685837 </v>
   <v>       0.31636478      -0.24999998      -0.09148919 </v>
   <v>       0.32585750      -0.24999998      -0.40580525 </v>
   <v>      -0.31601583      -0.24999998      -0.09186322 </v>
   <v>       0.33019886       0.25000000      -0.46414996 </v>
   <v>      -0.32442108       0.25000000      -0.19178916 </v>
   <v>       0.32968587       0.42982100       0.35399567 </v>
   <v>       0.32968587       0.07017899       0.35399567 </v>
   <v>       0.34390281      -0.42979784      -0.14609054 </v>
   <v>       0.34390281      -0.07020216      -0.14609054 </v>
   <v>      -0.32848243      -0.24999998       0.19063757 </v>
   <v>       0.34341160      -0.24999998       0.03578026 </v>
   <v>      -0.33662944       0.25000000       0.09119530 </v>
   <v>       0.34771765       0.25000000       0.09417946 </v>
   <v>      -0.34633985       0.25000000       0.40596342 </v>
   <v>      -0.34976481      -0.42971846      -0.35410431 </v>
   <v>      -0.34976481      -0.07028154      -0.35410431 </v>
   <v>       0.35723857       0.25000000       0.40834538 </v>
   <v>      -0.35030199      -0.24999998       0.46416945 </v>
   <v>       0.36940071       0.25000000      -0.30862116 </v>
   <v>       0.36546787      -0.24999998       0.30885690 </v>
   <v>      -0.36366539       0.25000000      -0.03640518 </v>
   <v>      -0.36415583       0.42983064       0.14547871 </v>
   <v>      -0.36415583       0.07016935       0.14547871 </v>
   <v>       0.37763268      -0.24999998      -0.40815860 </v>
   <v>      -0.36800774      -0.24999998      -0.09498547 </v>
   <v>      -0.37733984      -0.24999998      -0.40834429 </v>
   <v>       0.38710608      -0.24999998      -0.09385409 </v>
   <v>       0.39139258       0.25000000      -0.03545821 </v>
   <v>      -0.38564918       0.25000000      -0.30900719 </v>
   <v>       0.39091861       0.42977007       0.14643132 </v>
   <v>       0.39091861       0.07022992       0.14643132 </v>
   <v>      -0.38956245      -0.24999998       0.30863167 </v>
   <v>       0.40517049      -0.42977007      -0.35356866 </v>
   <v>       0.40517049      -0.07022993      -0.35356866 </v>
   <v>       0.40469655      -0.24999998       0.46454171 </v>
   <v>      -0.39786349       0.25000000       0.40811269 </v>
   <v>       0.40898302       0.25000000       0.40614599 </v>
   <v>      -0.40736363       0.25000000       0.09369179 </v>
   <v>      -0.41118195      -0.42980958      -0.14656320 </v>
   <v>      -0.41118195      -0.07019042      -0.14656320 </v>
   <v>       0.41845642       0.25000000       0.09184134 </v>
   <v>      -0.41162825      -0.24999998       0.03537340 </v>
   <v>       0.43062126       0.25000000      -0.19114306 </v>
   <v>      -0.42490147       0.25000000      -0.46456300 </v>
   <v>       0.42668839      -0.24999998       0.19137878 </v>
   <v>      -0.42539465       0.42980078       0.35349959 </v>
   <v>      -0.42539465       0.07019921       0.35349959 </v>
   <v>      -0.42920865      -0.24999998      -0.40618871 </v>
   <v>       0.43885054      -0.24999998      -0.09165457 </v>
   <v>       0.44837143      -0.24999998      -0.40582056 </v>
   <v>      -0.43870481      -0.24999998      -0.09181763 </v>
   <v>       0.45267750       0.25000000      -0.46421975 </v>
   <v>       0.45218632       0.42979784       0.35390946 </v>
   <v>       0.45218632       0.07020215       0.35390946 </v>
   <v>      -0.44692333       0.25000000      -0.19160853 </v>
   <v>       0.46640324      -0.42982100      -0.14600433 </v>
   <v>       0.46640324      -0.07017900      -0.14600433 </v>
   <v>      -0.45082117      -0.24999998       0.19125201 </v>
   <v>       0.46589022      -0.24999998       0.03585006 </v>
   <v>      -0.45905115       0.25000000       0.09130226 </v>
   <v>       0.47023163       0.25000000       0.09419477 </v>
   <v>      -0.46859863       0.25000000       0.40592745 </v>
   <v>       0.47972427       0.25000000       0.40851076 </v>
   <v>      -0.47241173      -0.42982473      -0.35391370 </v>
   <v>      -0.47241173      -0.07017527      -0.35391370 </v>
   <v>      -0.47289891      -0.24999998       0.46424507 </v>
   <v>       0.49184451       0.25000000      -0.30849402 </v>
   <v>       0.48792886      -0.24999998       0.30852000 </v>
   <v>      -0.48612224       0.25000000      -0.03567466 </v>
   <v>      -0.48656619       0.42981770       0.14619757 </v>
   <v>      -0.48656619       0.07018229       0.14619757 </v>
   <v>      -0.49994571      -0.24999998      -0.40835819 </v>
   <v>      -0.49038505      -0.24999998      -0.09403351 </v>
  </varray>
 </structure>
 <varray name="primitive_index" >
  <v type="int" >        1 </v>
  <v type="int" >      131 </v>
  <v type="int" >       98 </v>
  <v type="int" >       66 </v>
  <v type="int" >      105 </v>
  <v type="int" >       27 </v>
  <v type="int" >       40 </v>
  <v type="int" >       21 </v>
  <v type="int" >      144 </v>
  <v type="int" >       85 </v>
  <v type="int" >       53 </v>
  <v type="int" >      118 </v>
  <v type="int" >      151 </v>
  <v type="int" >      125 </v>
  <v type="int" >       47 </v>
  <v type="int" >       92 </v>
  <v type="int" >       73 </v>
  <v type="int" >       79 </v>
  <v type="int" >       60 </v>
  <v type="int" >       14 </v>
  <v type="int" >       34 </v>
  <v type="int" >      112 </v>
  <v type="int" >      138 </v>
  <v type="int" >        2 </v>
  <v type="int" >      106 </v>
  <v type="int" >        8 </v>
  <v type="int" >      132 </v>
  <v type="int" >       28 </v>
  <v type="int" >       86 </v>
  <v type="int" >       54 </v>
  <v type="int" >       99 </v>
  <v type="int" >       67 </v>
  <v type="int" >      145 </v>
  <v type="int" >       41 </v>
  <v type="int" >      119 </v>
  <v type="int" >       22 </v>
  <v type="int" >      126 </v>
  <v type="int" >       15 </v>
  <v type="int" >       48 </v>
  <v type="int" >      152 </v>
  <v type="int" >       93 </v>
  <v type="int" >       74 </v>
  <v type="int" >       80 </v>
  <v type="int" >       61 </v>
  <v type="int" >      124 </v>
  <v type="int" >      139 </v>
  <v type="int" >       35 </v>
  <v type="int" >       20 </v>
  <v type="int" >      104 </v>
  <v type="int" >       72 </v>
  <v type="int" >      113 </v>
  <v type="int" >      150 </v>
  <v type="int" >       46 </v>
  <v type="int" >        3 </v>
  <v type="int" >      137 </v>
  <v type="int" >        9 </v>
  <v type="int" >      107 </v>
  <v type="int" >       91 </v>
  <v type="int" >       59 </v>
  <v type="int" >       33 </v>
  <v type="int" >      111 </v>
  <v type="int" >       29 </v>
  <v type="int" >        7 </v>
  <v type="int" >      133 </v>
  <v type="int" >       87 </v>
  <v type="int" >       55 </v>
  <v type="int" >      100 </v>
  <v type="int" >       68 </v>
  <v type="int" >       13 </v>
  <v type="int" >      146 </v>
  <v type="int" >      117 </v>
  <v type="int" >       42 </v>
  <v type="int" >       84 </v>
  <v type="int" >       65 </v>
  <v type="int" >       39 </v>
  <v type="int" >      120 </v>
  <v type="int" >      143 </v>
  <v type="int" >       23 </v>
  <v type="int" >      156 </v>
  <v type="int" >       16 </v>
  <v type="int" >       97 </v>
  <v type="int" >       78 </v>
  <v type="int" >       52 </v>
  <v type="int" >      127 </v>
  <v type="int" >       49 </v>
  <v type="int" >      130 </v>
  <v type="int" >      153 </v>
  <v type="int" >       26 </v>
  <v type="int" >       94 </v>
  <v type="int" >       75 </v>
  <v type="int" >       81 </v>
  <v type="int" >       62 </v>
  <v type="int" >       19 </v>
  <v type="int" >      140 </v>
  <v type="int" >      123 </v>
  <v type="int" >       36 </v>
  <v type="int" >       45 </v>
  <v type="int" >      103 </v>
  <v type="int" >       71 </v>
  <v type="int" >      114 </v>
  <v type="int" >      149 </v>
  <v type="int" >        4 </v>
  <v type="int" >       10 </v>
  <v type="int" >      136 </v>
  <v type="int" >       90 </v>
  <v type="int" >       58 </v>
  <v type="int" >      108 </v>
  <v type="int" >       32 </v>
  <v type="int" >      110 </v>
  <v type="int" >       30 </v>
  <v type="int" >      134 </v>
  <v type="int" >        6 </v>
  <v type="int" >       88 </v>
  <v type="int" >       56 </v>
  <v type="int" >       12 </v>
  <v type="int" >      101 </v>
  <v type="int" >       69 </v>
  <v type="int" >      147 </v>
  <v type="int" >      116 </v>
  <v type="int" >       43 </v>
  <v type="int" >       38 </v>
  <v type="int" >       83 </v>
  <v type="int" >       64 </v>
  <v type="int" >      121 </v>
  <v type="int" >      142 </v>
  <v type="int" >       24 </v>
  <v type="int" >      155 </v>
  <v type="int" >       17 </v>
  <v type="int" >       96 </v>
  <v type="int" >       77 </v>
  <v type="int" >       51 </v>
  <v type="int" >      128 </v>
  <v type="int" >       50 </v>
  <v type="int" >      129 </v>
  <v type="int" >      154 </v>
  <v type="int" >       95 </v>
  <v type="int" >       76 </v>
  <v type="int" >       25 </v>
  <v type="int" >       82 </v>
  <v type="int" >       63 </v>
  <v type="int" >       18 </v>
  <v type="int" >      141 </v>
  <v type="int" >      122 </v>
  <v type="int" >       37 </v>
  <v type="int" >       44 </v>
  <v type="int" >      115 </v>
  <v type="int" >      102 </v>
  <v type="int" >       70 </v>
  <v type="int" >      148 </v>
  <v type="int" >        5 </v>
  <v type="int" >       11 </v>
  <v type="int" >      135 </v>
  <v type="int" >       89 </v>
  <v type="int" >       57 </v>
  <v type="int" >      109 </v>
  <v type="int" >       31 </v>
 </varray>
 <kpoints>
  <generation param="listgenerated">
   <i name="divisions" type="int">      20 </i>
   <v>       0.00000000       0.00000000       0.00000000 </v>
   <v>       0.00000000       0.50000000       0.00000000 </v>
   <v>       0.00000000       0.50000000       0.50000000 </v>
   <v>       0.00000000       0.00000000       0.50000000 </v>
   <v>       0.00000000       0.00000000       0.00000000 </v>
  </generation>
  <varray name="kpointlist" >
   <v>       0.00000000       0.00000000       0.00000000 </v>
   <v>       0.00000000       0.02631579       0.00000000 </v>
   <v>       0.00000000       0.05263158       0.00000000 </v>
   <v>       0.00000000       0.07894737       0.00000000 </v>
   <v>       0.00000000       0.10526316       0.00000000 </v>
   <v>       0.00000000       0.13157895       0.00000000 </v>
   <v>       0.00000000       0.15789474       0.00000000 </v>
   <v>       0.00000000       0.18421053       0.00000000 </v>
   <v>       0.00000000       0.21052632       0.00000000 </v>
   <v>       0.00000000       0.23684211       0.00000000 </v>
   <v>       0.00000000       0.26315789       0.00000000 </v>
   <v>       0.00000000       0.28947368       0.00000000 </v>
   <v>       0.00000000       0.31578947       0.00000000 </v>
   <v>       0.00000000       0.34210526       0.00000000 </v>
   <v>       0.00000000       0.36842105       0.00000000 </v>
   <v>       0.00000000       0.39473684       0.00000000 </v>
   <v>       0.00000000       0.42105263       0.00000000 </v>
   <v>       0.00000000       0.44736842       0.00000000 </v>
   <v>       0.00000000       0.47368421       0.00000000 </v>
   <v>       0.00000000       0.50000000       0.00000000 </v>
   <v>       0.00000000       0.50000000       0.00000000 </v>
   <v>       0.00000000       0.50000000       0.02631579 </v>
   <v>       0.00000000       0.50000000       0.05263158 </v>
   <v>       0.00000000       0.50000000       0.07894737 </v>
   <v>       0.00000000       0.50000000       0.10526316 </v>
   <v>       0.00000000       0.50000000       0.13157895 </v>
   <v>       0.00000000       0.50000000       0.15789474 </v>
   <v>       0.00000000       0.50000000       0.18421053 </v>
   <v>       0.00000000       0.50000000       0.21052632 </v>
   <v>       0.00000000       0.50000000       0.23684211 </v>
   <v>       0.00000000       0.50000000       0.26315789 </v>
   <v>       0.00000000       0.50000000       0.28947368 </v>
   <v>       0.00000000       0.50000000       0.31578947 </v>
   <v>       0.00000000       0.50000000       0.34210526 </v>
   <v>       0.00000000       0.50000000       0.36842105 </v>
   <v>       0.00000000       0.50000000       0.39473684 </v>
   <v>       0.00000000       0.50000000       0.42105263 </v>
   <v>       0.00000000       0.50000000       0.44736842 </v>
   <v>       0.00000000       0.50000000       0.47368421 </v>
   <v>       0.00000000       0.50000000       0.50000000 </v>
   <v>       0.00000000       0.50000000       0.50000000 </v>
   <v>       0.00000000       0.47368421       0.50000000 </v>
   <v>       0.00000000       0.44736842       0.50000000 </v>
   <v>       0.00000000       0.42105263       0.50000000 </v>
   <v>       0.00000000       0.39473684       0.50000000 </v>
   <v>       0.00000000       0.36842105       0.50000000 </v>
   <v>       0.00000000       0.34210526       0.50000000 </v>
   <v>       0.00000000       0.31578947       0.50000000 </v>
   <v>       0.00000000       0.28947368       0.50000000 </v>
   <v>       0.00000000       0.26315789       0.50000000 </v>
   <v>       0.00000000       0.23684211       0.50000000 </v>
   <v>       0.00000000       0.21052632       0.50000000 </v>
   <v>       0.00000000       0.18421053       0.50000000 </v>
   <v>       0.00000000       0.15789474       0.50000000 </v>
   <v>       0.00000000       0.13157895       0.50000000 </v>
   <v>       0.00000000       0.10526316       0.50000000 </v>
   <v>       0.00000000       0.07894737       0.50000000 </v>
   <v>       0.00000000       0.05263158       0.50000000 </v>
   <v>       0.00000000       0.02631579       0.50000000 </v>
   <v>       0.00000000       0.00000000       0.50000000 </v>
   <v>       0.00000000       0.00000000       0.50000000 </v>
   <v>       0.00000000       0.00000000       0.47368421 </v>
   <v>       0.00000000       0.00000000       0.44736842 </v>
   <v>       0.00000000       0.00000000       0.42105263 </v>
   <v>       0.00000000       0.00000000       0.39473684 </v>
   <v>       0.00000000       0.00000000       0.36842105 </v>
   <v>       0.00000000       0.00000000       0.34210526 </v>
   <v>       0.00000000       0.00000000       0.31578947 </v>
   <v>       0.00000000       0.00000000       0.28947368 </v>
   <v>       0.00000000       0.00000000       0.26315789 </v>
   <v>       0.00000000       0.00000000       0.23684211 </v>
   <v>       0.00000000       0.00000000       0.21052632 </v>
   <v>       0.00000000       0.00000000       0.18421053 </v>
   <v>       0.00000000       0.00000000       0.15789474 </v>
   <v>       0.00000000       0.00000000       0.13157895 </v>
   <v>       0.00000000       0.00000000       0.10526316 </v>
   <v>       0.00000000       0.00000000       0.07894737 </v>
   <v>       0.00000000       0.00000000       0.05263158 </v>
   <v>       0.00000000       0.00000000       0.02631579 </v>
   <v>       0.00000000       0.00000000       0.00000000 </v>
  </varray>
  <varray name="weights" >
   <v>       0.01250000 </v>
   <v>       0.01250000 </v>
   <v>       0.01250000 </v>
   <v>       0.01250000 </v>
   <v>       0.01250000 </v>
   <v>       0.01250000 </v>
   <v>       0.01250000 </v>
   <v>       0.01250000 </v>
   <v>       0.01250000 </v>
   <v>       0.01250000 </v>
   <v>       0.01250000 </v>
   <v>       0.01250000 </v>
   <v>       0.01250000 </v>
   <v>       0.01250000 </v>
   <v>       0.01250000 </v>
   <v>       0.01250000 </v>
   <v>       0.01250000 </v>
   <v>       0.01250000 </v>
   <v>       0.01250000 </v>
   <v>       0.01250000 </v>
   <v>       0.01250000 </v>
   <v>       0.01250000 </v>
   <v>       0.01250000 </v>
   <v>       0.01250000 </v>
   <v>       0.01250000 </v>
   <v>       0.01250000 </v>
   <v>       0.01250000 </v>
   <v>       0.01250000 </v>
   <v>       0.01250000 </v>
   <v>       0.01250000 </v>
   <v>       0.01250000 </v>
   <v>       0.01250000 </v>
   <v>       0.01250000 </v>
   <v>       0.01250000 </v>
   <v>       0.01250000 </v>
   <v>       0.01250000 </v>
   <v>       0.01250000 </v>
   <v>       0.01250000 </v>
   <v>       0.01250000 </v>
   <v>       0.01250000 </v>
   <v>       0.01250000 </v>
   <v>       0.01250000 </v>
   <v>       0.01250000 </v>
   <v>       0.01250000 </v>
   <v>       0.01250000 </v>
   <v>       0.01250000 </v>
   <v>       0.01250000 </v>
   <v>       0.01250000 </v>
   <v>       0.01250000 </v>
   <v>       0.01250000 </v>
   <v>       0.01250000 </v>
   <v>       0.01250000 </v>
   <v>       0.01250000 </v>
   <v>       0.01250000 </v>
   <v>       0.01250000 </v>
   <v>       0.01250000 </v>
   <v>       0.01250000 </v>
   <v>       0.01250000 </v>
   <v>       0.01250000 </v>
   <v>       0.01250000 </v>
   <v>       0.01250000 </v>
   <v>       0.01250000 </v>
   <v>       0.01250000 </v>
   <v>       0.01250000 </v>
   <v>       0.01250000 </v>
   <v>       0.01250000 </v>
   <v>       0.01250000 </v>
   <v>       0.01250000 </v>
   <v>       0.01250000 </v>
   <v>       0.01250000 </v>
   <v>       0.01250000 </v>
   <v>       0.01250000 </v>
   <v>       0.01250000 </v>
   <v>       0.01250000 </v>
   <v>       0.01250000 </v>
   <v>       0.01250000 </v>
   <v>       0.01250000 </v>
   <v>       0.01250000 </v>
   <v>       0.01250000 </v>
   <v>       0.01250000 </v>
  </varray>
 </kpoints>
 <parameters>
  <separator name="general" >
   <i type="string" name="SYSTEM">unknown system</i>
   <i type="logical" name="LCOMPAT"> F  </i>
  </separator>
  <separator name="electronic" >
   <i type="string" name="PREC">normal</i>
   <i name="ENMAX">    500.00000000</i>
   <i name="ENAUG">    351.16500000</i>
   <i name="EDIFF">      0.00000100</i>
   <i type="int" name="IALGO">    38</i>
   <i type="int" name="IWAVPR">    10</i>
   <i type="int" name="NBANDS">   568</i>
   <i name="NELECT">    936.00000000</i>
   <i type="int" name="TURBO">     0</i>
   <i type="int" name="IRESTART">     0</i>
   <i type="int" name="NREBOOT">     0</i>
   <i type="int" name="NMIN">     0</i>
   <i name="EREF">      0.00000000</i>
   <separator name="electronic smearing" >
    <i type="int" name="ISMEAR">     0</i>
    <i name="SIGMA">      0.01000000</i>
    <i name="KSPACING">      0.50000000</i>
    <i type="logical" name="KGAMMA"> T  </i>
   </separator>
   <separator name="electronic projectors" >
    <i type="logical" name="LREAL"> T  </i>
    <v name="ROPT">     -0.00050000     -0.00050000</v>
    <i type="int" name="LMAXPAW">  -100</i>
    <i type="int" name="LMAXMIX">     2</i>
    <i type="logical" name="NLSPLINE"> F  </i>
   </separator>
   <separator name="electronic startup" >
    <i type="int" name="ISTART">     0</i>
    <i type="int" name="ICHARG">    11</i>
    <i type="int" name="INIWAV">     1</i>
   </separator>
   <separator name="electronic spin" >
    <i type="int" name="ISPIN">     1</i>
    <i type="logical" name="LNONCOLLINEAR"> F  </i>
    <v name="MAGMOM">      1.00000000      1.00000000      1.00000000      1.00000000      1.00000000      1.00000000      1.00000000      1.00000000      1.00000000      1.00000000      1.00000000      1.00000000      1.00000000      1.00000000      1.00000000      1.00000000      1.00000000      1.00000000      1.00000000      1.00000000
      1.00000000      1.00000000      1.00000000      1.00000000      1.00000000      1.00000000      1.00000000      1.00000000      1.00000000      1.00000000      1.00000000      1.00000000      1.00000000      1.00000000      1.00000000      1.00000000      1.00000000      1.00000000      1.00000000      1.00000000
      1.00000000      1.00000000      1.00000000      1.00000000      1.00000000      1.00000000      1.00000000      1.00000000      1.00000000      1.00000000      1.00000000      1.00000000      1.00000000      1.00000000      1.00000000      1.00000000      1.00000000      1.00000000      1.00000000      1.00000000
      1.00000000      1.00000000      1.00000000      1.00000000      1.00000000      1.00000000      1.00000000      1.00000000      1.00000000      1.00000000      1.00000000      1.00000000      1.00000000      1.00000000      1.00000000      1.00000000      1.00000000      1.00000000      1.00000000      1.00000000
      1.00000000      1.00000000      1.00000000      1.00000000      1.00000000      1.00000000      1.00000000      1.00000000      1.00000000      1.00000000      1.00000000      1.00000000      1.00000000      1.00000000      1.00000000      1.00000000      1.00000000      1.00000000      1.00000000      1.00000000
      1.00000000      1.00000000      1.00000000      1.00000000      1.00000000      1.00000000      1.00000000      1.00000000      1.00000000      1.00000000      1.00000000      1.00000000      1.00000000      1.00000000      1.00000000      1.00000000      1.00000000      1.00000000      1.00000000      1.00000000
      1.00000000      1.00000000      1.00000000      1.00000000      1.00000000      1.00000000      1.00000000      1.00000000      1.00000000      1.00000000      1.00000000      1.00000000      1.00000000      1.00000000      1.00000000      1.00000000      1.00000000      1.00000000      1.00000000      1.00000000
      1.00000000      1.00000000      1.00000000      1.00000000      1.00000000      1.00000000      1.00000000      1.00000000      1.00000000      1.00000000      1.00000000      1.00000000      1.00000000      1.00000000      1.00000000      1.00000000</v>
    <i name="NUPDOWN">     -1.00000000</i>
    <i type="logical" name="LSORBIT"> F  </i>
    <v name="SAXIS">      0.00000000      0.00000000      1.00000000</v>
    <i type="logical" name="LSPIRAL"> F  </i>
    <v name="QSPIRAL">      0.00000000      0.00000000      0.00000000</v>
    <i type="logical" name="LZEROZ"> F  </i>
   </separator>
   <separator name="electronic exchange-correlation" >
    <i type="logical" name="LASPH"> T  </i>
    <i type="logical" name="LMETAGGA"> F  </i>
   </separator>
   <separator name="electronic convergence" >
    <i type="int" name="NELM">   100</i>
    <i type="int" name="NELMDL">    -5</i>
    <i type="int" name="NELMIN">     2</i>
    <i name="ENINI">    500.00000000</i>
    <separator name="electronic convergence detail" >
     <i type="logical" name="LDIAG"> T  </i>
     <i type="logical" name="LSUBROT"> F  </i>
     <i name="WEIMIN">      0.00000000</i>
     <i name="EBREAK">      0.00000000</i>
     <i name="DEPER">      0.30000000</i>
     <i type="int" name="NRMM">     4</i>
     <i name="TIME">      0.40000000</i>
    </separator>
   </separator>
   <separator name="electronic mixer" >
    <i name="AMIX">      0.40000000</i>
    <i name="BMIX">      1.00000000</i>
    <i name="AMIN">      0.10000000</i>
    <i name="AMIX_MAG">      1.60000000</i>
    <i name="BMIX_MAG">      1.00000000</i>
    <separator name="electronic mixer details" >
     <i type="int" name="IMIX">     4</i>
     <i type="logical" name="MIXFIRST"> F  </i>
     <i type="int" name="MAXMIX">   -45</i>
     <i name="WC">    100.00000000</i>
     <i type="int" name="INIMIX">     1</i>
     <i type="int" name="MIXPRE">     1</i>
     <i type="int" name="MREMOVE">     5</i>
    </separator>
   </separator>
   <separator name="electronic dipolcorrection" >
    <i type="logical" name="LDIPOL"> F  </i>
    <i type="logical" name="LMONO"> F  </i>
    <i type="int" name="IDIPOL">     0</i>
    <i name="EPSILON">      1.00000000</i>
    <v name="DIPOL">   -100.00000000   -100.00000000   -100.00000000</v>
    <i name="EFIELD">      0.00000000</i>
   </separator>
  </separator>
  <separator name="grids" >
   <i type="int" name="NGX">   400</i>
   <i type="int" name="NGY">    40</i>
   <i type="int" name="NGZ">    64</i>
   <i type="int" name="NGXF">   800</i>
   <i type="int" name="NGYF">    80</i>
   <i type="int" name="NGZF">   128</i>
   <i type="logical" name="ADDGRID"> F  </i>
  </separator>
  <separator name="ionic" >
   <i type="int" name="NSW">     0</i>
   <i type="int" name="IBRION">    -1</i>
   <i type="int" name="MDALGO">     0</i>
   <i type="int" name="ISIF">     2</i>
   <i name="PSTRESS">      0.00000000</i>
   <i name="EDIFFG">     -0.01000000</i>
   <i type="int" name="NFREE">     0</i>
   <i name="POTIM">      0.30000000</i>
   <i name="SMASS">     -3.00000000</i>
   <i name="SCALEE">      1.00000000</i>
  </separator>
  <separator name="ionic md" >
   <i name="TEBEG">      0.00010000</i>
   <i name="TEEND">      0.00010000</i>
   <i type="int" name="NBLOCK">     1</i>
   <i type="int" name="KBLOCK">     1</i>
   <i type="int" name="NPACO">   256</i>
   <i name="APACO">     16.00000000</i>
  </separator>
  <separator name="symmetry" >
   <i type="int" name="ISYM">     2</i>
   <i name="SYMPREC">      0.00001000</i>
  </separator>
  <separator name="dos" >
   <i type="int" name="LORBIT">     0</i>
   <v name="RWIGS">     -1.00000000     -1.00000000</v>
   <i type="int" name="NEDOS">   301</i>
   <i name="EMIN">     10.00000000</i>
   <i name="EMAX">    -10.00000000</i>
   <i name="EFERMI">      0.00000000</i>
  </separator>
  <separator name="writing" >
   <i type="int" name="NWRITE">     2</i>
   <i type="logical" name="LWAVE"> T  </i>
   <i type="logical" name="LDOWNSAMPLE"> F  </i>
   <i type="logical" name="LCHARG"> T  </i>
   <i type="logical" name="LPARD"> F  </i>
   <i type="logical" name="LVTOT"> F  </i>
   <i type="logical" name="LVHAR"> F  </i>
   <i type="logical" name="LELF"> F  </i>
   <i type="logical" name="LOPTICS"> F  </i>
   <v name="STM">      0.00000000      0.00000000      0.00000000      0.00000000      0.00000000      0.00000000      0.00000000</v>
  </separator>
  <separator name="performance" >
   <i type="int" name="NPAR">     8</i>
   <i type="int" name="NSIM">     4</i>
   <i type="int" name="NBLK">    -1</i>
   <i type="logical" name="LPLANE"> T  </i>
   <i type="logical" name="LSCALAPACK"> T  </i>
   <i type="logical" name="LSCAAWARE"> F  </i>
   <i type="logical" name="LSCALU"> F  </i>
   <i type="logical" name="LASYNC"> F  </i>
   <i type="logical" name="LORBITALREAL"> F  </i>
  </separator>
  <separator name="miscellaneous" >
   <i type="int" name="IDIOT">     3</i>
   <i type="int" name="ISPECIAL">     0</i>
   <i type="logical" name="LMUSIC"> F  </i>
   <v name="POMASS">    137.32700000     28.08500000</v>
   <v name="DARWINR">      0.00000000      0.00000000</v>
   <v name="DARWINV">      1.00000000      1.00000000</v>
   <i type="logical" name="LCORR"> T  </i>
  </separator>
  <i type="logical" name="GGA_COMPAT"> T  </i>
  <i type="logical" name="LBERRY"> F  </i>
  <i type="int" name="ICORELEVEL">     0</i>
  <i type="logical" name="LDAU"> F  </i>
  <i type="int" name="I_CONSTRAINED_M">     0</i>
  <separator name="electronic exchange-correlation" >
   <i type="string" name="GGA">MK</i>
   <i type="int" name="VOSKOWN">     0</i>
   <i type="logical" name="LHFCALC"> F  </i>
   <i type="string" name="PRECFOCK"></i>
   <i type="logical" name="LSYMGRAD"> F  </i>
   <i type="logical" name="LHFONE"> F  </i>
   <i type="logical" name="LRHFCALC"> F  </i>
   <i type="logical" name="LTHOMAS"> F  </i>
   <i type="logical" name="LMODELHF"> F  </i>
   <i name="ENCUT4O">     -1.00000000</i>
   <i type="int" name="EXXOEP">     0</i>
   <i type="int" name="FOURORBIT">     0</i>
   <i name="AEXX">      0.00000000</i>
   <i name="HFALPHA">      0.00000000</i>
   <i name="MCALPHA">      0.00000000</i>
   <i name="ALDAX">      1.00000000</i>
   <i name="AGGAX">      1.00000000</i>
   <i name="ALDAC">      1.00000000</i>
   <i name="AGGAC">      0.00000000</i>
   <i type="int" name="NKREDX">     1</i>
   <i type="int" name="NKREDY">     1</i>
   <i type="int" name="NKREDZ">     1</i>
   <i type="logical" name="SHIFTRED"> F  </i>
   <i type="logical" name="ODDONLY"> F  </i>
   <i type="logical" name="EVENONLY"> F  </i>
   <i type="int" name="LMAXFOCK">     0</i>
   <i type="int" name="NMAXFOCKAE">     0</i>
   <i type="logical" name="LFOCKAEDFT"> F  </i>
   <i name="HFSCREEN">      0.00000000</i>
   <i name="HFSCREENC">      0.00000000</i>
   <i type="int" name="NBANDSGWLOW">     0</i>
  </separator>
  <separator name="vdW DFT" >
   <i type="logical" name="LUSE_VDW"> T  </i>
   <i name="Zab_VDW">     -1.88670000</i>
   <i name="PARAM1">      0.12340000</i>
   <i name="PARAM2">      0.71135700</i>
   <i name="PARAM3">      0.00000000</i>
  </separator>
  <separator name="model GW" >
   <i type="int" name="MODEL_GW">     0</i>
   <i name="MODEL_EPS0">     21.54694897</i>
   <i name="MODEL_ALPHA">      1.00000000</i>
  </separator>
  <separator name="linear response parameters" >
   <i type="logical" name="LEPSILON"> F  </i>
   <i type="logical" name="LRPA"> F  </i>
   <i type="logical" name="LNABLA"> F  </i>
   <i type="logical" name="LVEL"> F  </i>
   <i type="int" name="KINTER">     0</i>
   <i name="CSHIFT">      0.10000000</i>
   <i name="OMEGAMAX">     -1.00000000</i>
   <i name="DEG_THRESHOLD">      0.00200000</i>
   <i name="RTIME">     -0.10000000</i>
   <i name="WPLASMAI">      0.00000000</i>
   <v name="DFIELD">      0.00000000      0.00000000      0.00000000</v>
   <v name="WPLASMA">      0.00000000      0.00000000      0.00000000      0.00000000      0.00000000      0.00000000      0.00000000      0.00000000      0.00000000</v>
  </separator>
  <separator name="orbital magnetization" >
   <i type="logical" name="NUCIND"> F  </i>
   <v name="MAGPOS">      0.00000000      0.00000000      0.00000000</v>
   <i type="logical" name="LNICSALL"> T  </i>
   <i type="logical" name="ORBITALMAG"> F  </i>
   <i type="logical" name="LMAGBLOCH"> F  </i>
   <i type="logical" name="LCHIMAG"> F  </i>
   <i type="logical" name="LGAUGE"> T  </i>
   <i type="int" name="MAGATOM">     0</i>
   <v name="MAGDIPOL">      0.00000000      0.00000000      0.00000000</v>
   <v name="AVECCONST">      0.00000000      0.00000000      0.00000000</v>
  </separator>
  <separator name="response functions" >
   <i type="logical" name="LADDER"> F  </i>
   <i type="logical" name="LRPAFORCE"> F  </i>
   <i type="logical" name="LFXC"> F  </i>
   <i type="logical" name="LHARTREE"> T  </i>
   <i type="int" name="IBSE">     0</i>
   <v type="int" name="KPOINT">    -1     0     0     0</v>
   <i type="logical" name="LTCTE"> F  </i>
   <i type="logical" name="LTETE"> F  </i>
   <i type="logical" name="LTRIPLET"> F  </i>
   <i type="logical" name="LFXCEPS"> F  </i>
   <i type="logical" name="LFXHEG"> F  </i>
   <i type="int" name="NATURALO">     2</i>
   <i type="logical" name="L2ORDER"> F  </i>
   <i type="logical" name="LMP2LT"> F  </i>
   <i type="logical" name="LUSEW"> F  </i>
   <i name="ENCUTGW">     -2.00000000</i>
   <i name="ENCUTGWSOFT">     -2.00000000</i>
   <i name="ENCUTLF">     -1.00000000</i>
   <i type="int" name="LMAXMP2">    -1</i>
   <i name="SCISSOR">      0.00000000</i>
   <i type="int" name="NOMEGA">     0</i>
   <i type="int" name="NOMEGAR">     0</i>
   <i type="int" name="NBANDSGW">    -1</i>
   <i type="int" name="NBANDSO">    -1</i>
   <i type="int" name="NBANDSV">    -1</i>
   <i type="int" name="NELM">   100</i>
   <i type="int" name="NELMHF">     1</i>
   <i type="int" name="DIM">     3</i>
   <i type="int" name="ANTIRES">     0</i>
   <i name="OMEGAMAX">    -30.00000000</i>
   <i name="OMEGAMIN">    -30.00000000</i>
   <i name="OMEGATL">   -200.00000000</i>
   <i type="int" name="OMEGAGRID">   140</i>
   <i name="CSHIFT">     -0.10000000</i>
   <i type="logical" name="SELFENERGY"> F  </i>
   <i type="logical" name="LSPECTRAL"> F  </i>
   <i type="logical" name="LSPECTRALGW"> F  </i>
   <i type="logical" name="LSINGLES"> F  </i>
   <i type="logical" name="LFERMIGW"> F  </i>
   <i type="logical" name="ODDONLYGW"> F  </i>
   <i type="logical" name="EVENONLYGW"> F  </i>
   <i type="int" name="NKREDLFX">     1</i>
   <i type="int" name="NKREDLFY">     1</i>
   <i type="int" name="NKREDLFZ">     1</i>
   <i type="int" name="MAXMEM">  2800</i>
   <i type="int" name="TELESCOPE">     0</i>
   <i type="int" name="TAUPAR">     1</i>
   <i type="int" name="OMEGAPAR">    -1</i>
   <i name="LAMBDA">      1.00000000</i>
  </separator>
  <separator name="External order field" >
   <i name="OFIELD_KAPPA">      0.00000000</i>
   <v name="OFIELD_K">      0.00000000      0.00000000      0.00000000</v>
   <i name="OFIELD_Q6_NEAR">      0.00000000</i>
   <i name="OFIELD_Q6_FAR">      0.00000000</i>
   <i name="OFIELD_A">      0.00000000</i>
  </separator>
 </parameters>
 <atominfo>
  <atoms>     156 </atoms>
  <types>       2 </types>
  <array name="atoms" >
   <dimension dim="1">ion</dimension>
   <field type="string">element</field>
   <field type="int">atomtype</field>
   <set>
    <rc><c>Ba</c><c>   1</c></rc>
    <rc><c>Ba</c><c>   1</c></rc>
    <rc><c>Ba</c><c>   1</c></rc>
    <rc><c>Ba</c><c>   1</c></rc>
    <rc><c>Ba</c><c>   1</c></rc>
    <rc><c>Ba</c><c>   1</c></rc>
    <rc><c>Ba</c><c>   1</c></rc>
    <rc><c>Ba</c><c>   1</c></rc>
    <rc><c>Ba</c><c>   1</c></rc>
    <rc><c>Ba</c><c>   1</c></rc>
    <rc><c>Ba</c><c>   1</c></rc>
    <rc><c>Ba</c><c>   1</c></rc>
    <rc><c>Ba</c><c>   1</c></rc>
    <rc><c>Ba</c><c>   1</c></rc>
    <rc><c>Ba</c><c>   1</c></rc>
    <rc><c>Ba</c><c>   1</c></rc>
    <rc><c>Ba</c><c>   1</c></rc>
    <rc><c>Ba</c><c>   1</c></rc>
    <rc><c>Ba</c><c>   1</c></rc>
    <rc><c>Ba</c><c>   1</c></rc>
    <rc><c>Ba</c><c>   1</c></rc>
    <rc><c>Ba</c><c>   1</c></rc>
    <rc><c>Ba</c><c>   1</c></rc>
    <rc><c>Ba</c><c>   1</c></rc>
    <rc><c>Ba</c><c>   1</c></rc>
    <rc><c>Ba</c><c>   1</c></rc>
    <rc><c>Ba</c><c>   1</c></rc>
    <rc><c>Ba</c><c>   1</c></rc>
    <rc><c>Ba</c><c>   1</c></rc>
    <rc><c>Ba</c><c>   1</c></rc>
    <rc><c>Ba</c><c>   1</c></rc>
    <rc><c>Ba</c><c>   1</c></rc>
    <rc><c>Ba</c><c>   1</c></rc>
    <rc><c>Ba</c><c>   1</c></rc>
    <rc><c>Ba</c><c>   1</c></rc>
    <rc><c>Ba</c><c>   1</c></rc>
    <rc><c>Ba</c><c>   1</c></rc>
    <rc><c>Ba</c><c>   1</c></rc>
    <rc><c>Ba</c><c>   1</c></rc>
    <rc><c>Ba</c><c>   1</c></rc>
    <rc><c>Ba</c><c>   1</c></rc>
    <rc><c>Ba</c><c>   1</c></rc>
    <rc><c>Ba</c><c>   1</c></rc>
    <rc><c>Ba</c><c>   1</c></rc>
    <rc><c>Ba</c><c>   1</c></rc>
    <rc><c>Ba</c><c>   1</c></rc>
    <rc><c>Ba</c><c>   1</c></rc>
    <rc><c>Ba</c><c>   1</c></rc>
    <rc><c>Ba</c><c>   1</c></rc>
    <rc><c>Ba</c><c>   1</c></rc>
    <rc><c>Ba</c><c>   1</c></rc>
    <rc><c>Ba</c><c>   1</c></rc>
    <rc><c>Si</c><c>   2</c></rc>
    <rc><c>Si</c><c>   2</c></rc>
    <rc><c>Si</c><c>   2</c></rc>
    <rc><c>Si</c><c>   2</c></rc>
    <rc><c>Si</c><c>   2</c></rc>
    <rc><c>Si</c><c>   2</c></rc>
    <rc><c>Si</c><c>   2</c></rc>
    <rc><c>Si</c><c>   2</c></rc>
    <rc><c>Si</c><c>   2</c></rc>
    <rc><c>Si</c><c>   2</c></rc>
    <rc><c>Si</c><c>   2</c></rc>
    <rc><c>Si</c><c>   2</c></rc>
    <rc><c>Si</c><c>   2</c></rc>
    <rc><c>Si</c><c>   2</c></rc>
    <rc><c>Si</c><c>   2</c></rc>
    <rc><c>Si</c><c>   2</c></rc>
    <rc><c>Si</c><c>   2</c></rc>
    <rc><c>Si</c><c>   2</c></rc>
    <rc><c>Si</c><c>   2</c></rc>
    <rc><c>Si</c><c>   2</c></rc>
    <rc><c>Si</c><c>   2</c></rc>
    <rc><c>Si</c><c>   2</c></rc>
    <rc><c>Si</c><c>   2</c></rc>
    <rc><c>Si</c><c>   2</c></rc>
    <rc><c>Si</c><c>   2</c></rc>
    <rc><c>Si</c><c>   2</c></rc>
    <rc><c>Si</c><c>   2</c></rc>
    <rc><c>Si</c><c>   2</c></rc>
    <rc><c>Si</c><c>   2</c></rc>
    <rc><c>Si</c><c>   2</c></rc>
    <rc><c>Si</c><c>   2</c></rc>
    <rc><c>Si</c><c>   2</c></rc>
    <rc><c>Si</c><c>   2</c></rc>
    <rc><c>Si</c><c>   2</c></rc>
    <rc><c>Si</c><c>   2</c></rc>
    <rc><c>Si</c><c>   2</c></rc>
    <rc><c>Si</c><c>   2</c></rc>
    <rc><c>Si</c><c>   2</c></rc>
    <rc><c>Si</c><c>   2</c></rc>
    <rc><c>Si</c><c>   2</c></rc>
    <rc><c>Si</c><c>   2</c></rc>
    <rc><c>Si</c><c>   2</c></rc>
    <rc><c>Si</c><c>   2</c></rc>
    <rc><c>Si</c><c>   2</c></rc>
    <rc><c>Si</c><c>   2</c></rc>
    <rc><c>Si</c><c>   2</c></rc>
    <rc><c>Si</c><c>   2</c></rc>
    <rc><c>Si</c><c>   2</c></rc>
    <rc><c>Si</c><c>   2</c></rc>
    <rc><c>Si</c><c>   2</c></rc>
    <rc><c>Si</c><c>   2</c></rc>
    <rc><c>Si</c><c>   2</c></rc>
    <rc><c>Si</c><c>   2</c></rc>
    <rc><c>Si</c><c>   2</c></rc>
    <rc><c>Si</c><c>   2</c></rc>
    <rc><c>Si</c><c>   2</c></rc>
    <rc><c>Si</c><c>   2</c></rc>
    <rc><c>Si</c><c>   2</c></rc>
    <rc><c>Si</c><c>   2</c></rc>
    <rc><c>Si</c><c>   2</c></rc>
    <rc><c>Si</c><c>   2</c></rc>
    <rc><c>Si</c><c>   2</c></rc>
    <rc><c>Si</c><c>   2</c></rc>
    <rc><c>Si</c><c>   2</c></rc>
    <rc><c>Si</c><c>   2</c></rc>
    <rc><c>Si</c><c>   2</c></rc>
    <rc><c>Si</c><c>   2</c></rc>
    <rc><c>Si</c><c>   2</c></rc>
    <rc><c>Si</c><c>   2</c></rc>
    <rc><c>Si</c><c>   2</c></rc>
    <rc><c>Si</c><c>   2</c></rc>
    <rc><c>Si</c><c>   2</c></rc>
    <rc><c>Si</c><c>   2</c></rc>
    <rc><c>Si</c><c>   2</c></rc>
    <rc><c>Si</c><c>   2</c></rc>
    <rc><c>Si</c><c>   2</c></rc>
    <rc><c>Si</c><c>   2</c></rc>
    <rc><c>Si</c><c>   2</c></rc>
    <rc><c>Si</c><c>   2</c></rc>
    <rc><c>Si</c><c>   2</c></rc>
    <rc><c>Si</c><c>   2</c></rc>
    <rc><c>Si</c><c>   2</c></rc>
    <rc><c>Si</c><c>   2</c></rc>
    <rc><c>Si</c><c>   2</c></rc>
    <rc><c>Si</c><c>   2</c></rc>
    <rc><c>Si</c><c>   2</c></rc>
    <rc><c>Si</c><c>   2</c></rc>
    <rc><c>Si</c><c>   2</c></rc>
    <rc><c>Si</c><c>   2</c></rc>
    <rc><c>Si</c><c>   2</c></rc>
    <rc><c>Si</c><c>   2</c></rc>
    <rc><c>Si</c><c>   2</c></rc>
    <rc><c>Si</c><c>   2</c></rc>
    <rc><c>Si</c><c>   2</c></rc>
    <rc><c>Si</c><c>   2</c></rc>
    <rc><c>Si</c><c>   2</c></rc>
    <rc><c>Si</c><c>   2</c></rc>
    <rc><c>Si</c><c>   2</c></rc>
    <rc><c>Si</c><c>   2</c></rc>
    <rc><c>Si</c><c>   2</c></rc>
    <rc><c>Si</c><c>   2</c></rc>
    <rc><c>Si</c><c>   2</c></rc>
    <rc><c>Si</c><c>   2</c></rc>
    <rc><c>Si</c><c>   2</c></rc>
   </set>
  </array>
  <array name="atomtypes" >
   <dimension dim="1">type</dimension>
   <field type="int">atomspertype</field>
   <field type="string">element</field>
   <field>mass</field>
   <field>valence</field>
   <field type="string">pseudopotential</field>
   <set>
    <rc><c>  52</c><c>Ba</c><c>    137.32700000</c><c>     10.00000000</c><c> PAW_PBE Ba_sv 06Sep2000                </c></rc>
    <rc><c> 104</c><c>Si</c><c>     28.08500000</c><c>      4.00000000</c><c> PAW_PBE Si 05Jan2001                   </c></rc>
   </set>
  </array>
 </atominfo>
 <structure name="initialpos" >
  <crystal>
   <varray name="basis" >
    <v>      72.94425835       0.00000000       0.00000000 </v>
    <v>       0.00000000       6.69794483       0.00000000 </v>
    <v>       0.00000000       0.00000000      11.46638321 </v>
   </varray>
   <i name="volume">   5602.20673100 </i>
   <varray name="rec_basis" >
    <v>       0.01370910       0.00000000       0.00000000 </v>
    <v>       0.00000000       0.14929953       0.00000000 </v>
    <v>       0.00000000       0.00000000       0.08721146 </v>
   </varray>
  </crystal>
  <varray name="positions" >
   <v>       0.00449150       0.25000000       0.70092332 </v>
   <v>       0.12457155       0.25000000       0.69063763 </v>
   <v>       0.24691030       0.25000000       0.69125207 </v>
   <v>       0.36940071       0.25000000       0.69137884 </v>
   <v>       0.49184451       0.25000000       0.69150598 </v>
   <v>       0.61435082       0.25000000       0.69099281 </v>
   <v>       0.73823176       0.25000000       0.69306161 </v>
   <v>       0.12051017       0.75000002       0.30821079 </v>
   <v>       0.24301244       0.75000002       0.30839143 </v>
   <v>       0.36546787       0.75000002       0.30885690 </v>
   <v>       0.48792886       0.75000002       0.30852000 </v>
   <v>       0.61043755       0.75000002       0.30863167 </v>
   <v>       0.73258571       0.75000002       0.30845859 </v>
   <v>       0.05785738       0.75000002       0.19306155 </v>
   <v>       0.18173832       0.75000002       0.19099275 </v>
   <v>       0.30424462       0.75000002       0.19150591 </v>
   <v>       0.42668839       0.75000002       0.19137878 </v>
   <v>       0.54917883       0.75000002       0.19125201 </v>
   <v>       0.67151757       0.75000002       0.19063757 </v>
   <v>       0.79159762       0.75000002       0.20092325 </v>
   <v>       0.06350341       0.25000000       0.80845863 </v>
   <v>       0.18565157       0.25000000       0.80863171 </v>
   <v>       0.30816027       0.25000000       0.80852004 </v>
   <v>       0.43062126       0.25000000       0.80885694 </v>
   <v>       0.55307667       0.25000000       0.80839147 </v>
   <v>       0.67557892       0.25000000       0.80821084 </v>
   <v>       0.02622375       0.75000002       0.91196626 </v>
   <v>       0.14242898       0.75000002       0.90596334 </v>
   <v>       0.26468771       0.75000002       0.90592736 </v>
   <v>       0.38710608       0.75000002       0.90614591 </v>
   <v>       0.50961495       0.75000002       0.90596649 </v>
   <v>       0.63199226       0.75000002       0.90501453 </v>
   <v>       0.75378829       0.75000002       0.89536112 </v>
   <v>       0.10228872       0.25000000       0.09314165 </v>
   <v>       0.22529778       0.25000000       0.09381131 </v>
   <v>       0.34771765       0.25000000       0.09417946 </v>
   <v>       0.47023163       0.25000000       0.09419477 </v>
   <v>       0.59263637       0.25000000       0.09369179 </v>
   <v>       0.71483985       0.25000000       0.09536036 </v>
   <v>       0.04230084       0.25000000       0.39536120 </v>
   <v>       0.16409687       0.25000000       0.40501461 </v>
   <v>       0.28647418       0.25000000       0.40596657 </v>
   <v>       0.40898302       0.25000000       0.40614599 </v>
   <v>       0.53140137       0.25000000       0.40592745 </v>
   <v>       0.65366015       0.25000000       0.40596342 </v>
   <v>       0.76986533       0.25000000       0.41196634 </v>
   <v>       0.08124929       0.75000002       0.59536034 </v>
   <v>       0.20345278       0.75000002       0.59369177 </v>
   <v>       0.32585750       0.75000002       0.59419475 </v>
   <v>       0.44837143       0.75000002       0.59417944 </v>
   <v>       0.57079135       0.75000002       0.59381129 </v>
   <v>       0.69380041       0.75000002       0.59314163 </v>
   <v>       0.02212854       0.07142238       0.14528046 </v>
   <v>       0.14585395       0.07028154       0.14589567 </v>
   <v>       0.26850086       0.07017526       0.14608628 </v>
   <v>       0.39091861       0.07022992       0.14643132 </v>
   <v>       0.51343381       0.07018229       0.14619757 </v>
   <v>       0.63584417       0.07016935       0.14547871 </v>
   <v>       0.75801136       0.07129346       0.14180927 </v>
   <v>       0.09959577       0.93017876       0.85449364 </v>
   <v>       0.22148378       0.92980078       0.85349959 </v>
   <v>       0.34390281       0.92979784       0.85390946 </v>
   <v>       0.46640324       0.92982100       0.85399567 </v>
   <v>       0.58881805       0.92980958       0.85343680 </v>
   <v>       0.71142284       0.93045785       0.85318631 </v>
   <v>       0.03807777       0.92870653       0.64180929 </v>
   <v>       0.16024495       0.92983064       0.64547873 </v>
   <v>       0.28265532       0.92981770       0.64619759 </v>
   <v>       0.40517049       0.92977007       0.64643134 </v>
   <v>       0.52758827       0.92982473       0.64608630 </v>
   <v>       0.65023519       0.92971846       0.64589569 </v>
   <v>       0.77396060       0.92857761       0.64528048 </v>
   <v>       0.08466625       0.06954214       0.35318631 </v>
   <v>       0.20727104       0.07019041       0.35343680 </v>
   <v>       0.32968587       0.07017899       0.35399567 </v>
   <v>       0.45218632       0.07020215       0.35390946 </v>
   <v>       0.57460535       0.07019921       0.35349959 </v>
   <v>       0.69649335       0.06982123       0.35449364 </v>
   <v>       0.09959577       0.56982124       0.85449364 </v>
   <v>       0.22148378       0.57019922       0.85349959 </v>
   <v>       0.34390281       0.57020216       0.85390946 </v>
   <v>       0.46640324       0.57017900       0.85399567 </v>
   <v>       0.58881805       0.57019042       0.85343680 </v>
   <v>       0.71142284       0.56954215       0.85318631 </v>
   <v>       0.02212854       0.42857761       0.14528046 </v>
   <v>       0.14585395       0.42971846       0.14589567 </v>
   <v>       0.26850086       0.42982473       0.14608628 </v>
   <v>       0.39091861       0.42977007       0.14643132 </v>
   <v>       0.51343381       0.42981770       0.14619757 </v>
   <v>       0.63584417       0.42983064       0.14547871 </v>
   <v>       0.75801136       0.42870653       0.14180927 </v>
   <v>       0.08466625       0.43045785       0.35318631 </v>
   <v>       0.20727104       0.42980958       0.35343680 </v>
   <v>       0.32968587       0.42982100       0.35399567 </v>
   <v>       0.45218632       0.42979784       0.35390946 </v>
   <v>       0.57460535       0.42980078       0.35349959 </v>
   <v>       0.69649335       0.43017876       0.35449364 </v>
   <v>       0.03807777       0.57129347       0.64180929 </v>
   <v>       0.16024495       0.57016936       0.64547873 </v>
   <v>       0.28265532       0.57018230       0.64619759 </v>
   <v>       0.40517049       0.57022993       0.64643134 </v>
   <v>       0.52758827       0.57017527       0.64608630 </v>
   <v>       0.65023519       0.57028154       0.64589569 </v>
   <v>       0.77396060       0.57142239       0.64528048 </v>
   <v>       0.00908857       0.75000002       0.61850228 </v>
   <v>       0.13271857       0.75000002       0.59119537 </v>
   <v>       0.25514028       0.75000002       0.59130232 </v>
   <v>       0.37763268       0.75000002       0.59184140 </v>
   <v>       0.50005429       0.75000002       0.59164181 </v>
   <v>       0.62266016       0.75000002       0.59165571 </v>
   <v>       0.74587972       0.75000002       0.58268543 </v>
   <v>       0.11210498       0.25000000       0.40813674 </v>
   <v>       0.23479394       0.25000000       0.40818233 </v>
   <v>       0.35723857       0.25000000       0.40834538 </v>
   <v>       0.47972427       0.25000000       0.40851076 </v>
   <v>       0.60213651       0.25000000       0.40811269 </v>
   <v>       0.72381912       0.25000000       0.40915243 </v>
   <v>       0.05020937       0.25000000       0.08268537 </v>
   <v>       0.17342895       0.25000000       0.09165565 </v>
   <v>       0.29603481       0.25000000       0.09164175 </v>
   <v>       0.41845642       0.25000000       0.09184134 </v>
   <v>       0.54094885       0.25000000       0.09130226 </v>
   <v>       0.66337056       0.25000000       0.09119530 </v>
   <v>       0.78700055       0.25000000       0.11850222 </v>
   <v>       0.07226999       0.75000002       0.90915247 </v>
   <v>       0.19395261       0.75000002       0.90811274 </v>
   <v>       0.31636478       0.75000002       0.90851081 </v>
   <v>       0.43885054       0.75000002       0.90834543 </v>
   <v>       0.56129519       0.75000002       0.90818237 </v>
   <v>       0.68398417       0.75000002       0.90813678 </v>
   <v>       0.02238106       0.25000000       0.96257670 </v>
   <v>       0.14639113       0.25000000       0.96416953 </v>
   <v>       0.26898804       0.25000000       0.96424515 </v>
   <v>       0.39139258       0.25000000       0.96454179 </v>
   <v>       0.51387776       0.25000000       0.96432534 </v>
   <v>       0.63633461       0.25000000       0.96359482 </v>
   <v>       0.76440923       0.25000000       0.96176837 </v>
   <v>       0.09864003       0.75000002       0.03715778 </v>
   <v>       0.22099060       0.75000002       0.03543701 </v>
   <v>       0.34341160       0.75000002       0.03578026 </v>
   <v>       0.46589022       0.75000002       0.03585006 </v>
   <v>       0.58837175       0.75000002       0.03537340 </v>
   <v>       0.71097023       0.75000002       0.03535633 </v>
   <v>       0.03167985       0.75000002       0.46176829 </v>
   <v>       0.15975448       0.75000002       0.46359474 </v>
   <v>       0.28221140       0.75000002       0.46432525 </v>
   <v>       0.40469655       0.75000002       0.46454171 </v>
   <v>       0.52710109       0.75000002       0.46424507 </v>
   <v>       0.64969801       0.75000002       0.46416945 </v>
   <v>       0.77370801       0.75000002       0.46257662 </v>
   <v>       0.08511889       0.25000000       0.53535632 </v>
   <v>       0.20771738       0.25000000       0.53537338 </v>
   <v>       0.33019886       0.25000000       0.53585004 </v>
   <v>       0.45267750       0.25000000       0.53578025 </v>
   <v>       0.57509853       0.25000000       0.53543700 </v>
   <v>       0.69744911       0.25000000       0.53715777 </v>
  </varray>
 </structure>
 <calculation>
  <scstep>
   <time name="dav">  206.17  206.70</time>
   <time name="total">  210.82  211.44</time>
   <energy>
    <i name="alphaZ">   2427.14883180 </i>
    <i name="ewald"> 220753.88544137 </i>
    <i name="hartreedc">-266532.25194238 </i>
    <i name="XCdc">    318.15021940 </i>
    <i name="pawpsdc">  25130.64155028 </i>
    <i name="pawaedc"> -23217.17502461 </i>
    <i name="eentropy">     -0.00273546 </i>
    <i name="bandstr">     92.68061670 </i>
    <i name="atom">  47249.48445191 </i>
    <i name="e_fr_energy">   6222.56140901 </i>
    <i name="e_wo_entrp">   6222.56414447 </i>
    <i name="e_0_energy">   6222.56277674 </i>
   </energy>
  </scstep>
  <scstep>
   <time name="dav">  258.90  259.56</time>
   <time name="total">  258.92  259.57</time>
   <energy>
    <i name="e_fr_energy">    138.69124584 </i>
    <i name="e_wo_entrp">    138.69199395 </i>
    <i name="e_0_energy">    138.69161989 </i>
   </energy>
  </scstep>
  <scstep>
   <time name="dav">  242.50  243.11</time>
   <time name="total">  242.51  243.12</time>
   <energy>
    <i name="e_fr_energy">   -586.37259489 </i>
    <i name="e_wo_entrp">   -586.37259489 </i>
    <i name="e_0_energy">   -586.37259489 </i>
   </energy>
  </scstep>
  <scstep>
   <time name="dav">  279.22  279.93</time>
   <time name="total">  279.23  279.93</time>
   <energy>
    <i name="e_fr_energy">   -625.20856681 </i>
    <i name="e_wo_entrp">   -625.20856681 </i>
    <i name="e_0_energy">   -625.20856681 </i>
   </energy>
  </scstep>
  <scstep>
   <time name="dav">  292.73  293.46</time>
   <time name="total">  292.74  293.47</time>
   <energy>
    <i name="e_fr_energy">   -626.87235944 </i>
    <i name="e_wo_entrp">   -626.87235944 </i>
    <i name="e_0_energy">   -626.87235944 </i>
   </energy>
  </scstep>
  <scstep>
   <time name="dav">  276.53  277.21</time>
   <time name="total">  276.54  277.22</time>
   <energy>
    <i name="e_fr_energy">   -626.92799341 </i>
    <i name="e_wo_entrp">   -626.92799341 </i>
    <i name="e_0_energy">   -626.92799341 </i>
   </energy>
  </scstep>
  <scstep>
   <time name="dav">  291.74  292.47</time>
   <time name="total">  291.75  292.48</time>
   <energy>
    <i name="e_fr_energy">   -626.92998148 </i>
    <i name="e_wo_entrp">   -626.92998148 </i>
    <i name="e_0_energy">   -626.92998148 </i>
   </energy>
  </scstep>
  <scstep>
   <time name="dav">  267.72  268.39</time>
   <time name="total">  267.73  268.40</time>
   <energy>
    <i name="e_fr_energy">   -626.93006274 </i>
    <i name="e_wo_entrp">   -626.93006274 </i>
    <i name="e_0_energy">   -626.93006274 </i>
   </energy>
  </scstep>
  <scstep>
   <time name="dav">  250.97  251.59</time>
   <time name="total">  250.98  251.60</time>
   <energy>
    <i name="e_fr_energy">   -626.93006679 </i>
    <i name="e_wo_entrp">   -626.93006679 </i>
    <i name="e_0_energy">   -626.93006679 </i>
   </energy>
  </scstep>
  <scstep>
   <time name="dav">  172.72  173.15</time>
   <time name="total">  172.74  173.17</time>
   <energy>
    <i name="alphaZ">   2427.14883180 </i>
    <i name="ewald"> 220753.88544137 </i>
    <i name="hartreedc">-266532.25194238 </i>
    <i name="XCdc">    318.15021940 </i>
    <i name="pawpsdc">  25130.64155028 </i>
    <i name="pawaedc"> -23217.17502461 </i>
    <i name="eentropy">     -0.00000000 </i>
    <i name="bandstr">  -6756.81359474 </i>
    <i name="atom">  47249.48445191 </i>
    <i name="e_fr_energy">   -626.93006697 </i>
    <i name="e_wo_entrp">   -626.93006697 </i>
    <i name="e_0_energy">   -626.93006697 </i>
   </energy>
  </scstep>
  <structure>
   <crystal>
    <varray name="basis" >
     <v>      72.94425835       0.00000000       0.00000000 </v>
     <v>       0.00000000       6.69794483       0.00000000 </v>
     <v>       0.00000000       0.00000000      11.46638321 </v>
    </varray>
    <i name="volume">   5602.20673100 </i>
    <varray name="rec_basis" >
     <v>       0.01370910       0.00000000       0.00000000 </v>
     <v>       0.00000000       0.14929953       0.00000000 </v>
     <v>       0.00000000       0.00000000       0.08721146 </v>
    </varray>
   </crystal>
   <varray name="positions" >
    <v>       0.00449150       0.25000000       0.70092332 </v>
    <v>       0.12457155       0.25000000       0.69063763 </v>
    <v>       0.24691030       0.25000000       0.69125207 </v>
    <v>       0.36940071       0.25000000       0.69137884 </v>
    <v>       0.49184451       0.25000000       0.69150598 </v>
    <v>       0.61435082       0.25000000       0.69099281 </v>
    <v>       0.73823176       0.25000000       0.69306161 </v>
    <v>       0.12051017       0.75000002       0.30821079 </v>
    <v>       0.24301244       0.75000002       0.30839143 </v>
    <v>       0.36546787       0.75000002       0.30885690 </v>
    <v>       0.48792886       0.75000002       0.30852000 </v>
    <v>       0.61043755       0.75000002       0.30863167 </v>
    <v>       0.73258571       0.75000002       0.30845859 </v>
    <v>       0.05785738       0.75000002       0.19306155 </v>
    <v>       0.18173832       0.75000002       0.19099275 </v>
    <v>       0.30424462       0.75000002       0.19150591 </v>
    <v>       0.42668839       0.75000002       0.19137878 </v>
    <v>       0.54917883       0.75000002       0.19125201 </v>
    <v>       0.67151757       0.75000002       0.19063757 </v>
    <v>       0.79159762       0.75000002       0.20092325 </v>
    <v>       0.06350341       0.25000000       0.80845863 </v>
    <v>       0.18565157       0.25000000       0.80863171 </v>
    <v>       0.30816027       0.25000000       0.80852004 </v>
    <v>       0.43062126       0.25000000       0.80885694 </v>
    <v>       0.55307667       0.25000000       0.80839147 </v>
    <v>       0.67557892       0.25000000       0.80821084 </v>
    <v>       0.02622375       0.75000002       0.91196626 </v>
    <v>       0.14242898       0.75000002       0.90596334 </v>
    <v>       0.26468771       0.75000002       0.90592736 </v>
    <v>       0.38710608       0.75000002       0.90614591 </v>
    <v>       0.50961495       0.75000002       0.90596649 </v>
    <v>       0.63199226       0.75000002       0.90501453 </v>
    <v>       0.75378829       0.75000002       0.89536112 </v>
    <v>       0.10228872       0.25000000       0.09314165 </v>
    <v>       0.22529778       0.25000000       0.09381131 </v>
    <v>       0.34771765       0.25000000       0.09417946 </v>
    <v>       0.47023163       0.25000000       0.09419477 </v>
    <v>       0.59263637       0.25000000       0.09369179 </v>
    <v>       0.71483985       0.25000000       0.09536036 </v>
    <v>       0.04230084       0.25000000       0.39536120 </v>
    <v>       0.16409687       0.25000000       0.40501461 </v>
    <v>       0.28647418       0.25000000       0.40596657 </v>
    <v>       0.40898302       0.25000000       0.40614599 </v>
    <v>       0.53140137       0.25000000       0.40592745 </v>
    <v>       0.65366015       0.25000000       0.40596342 </v>
    <v>       0.76986533       0.25000000       0.41196634 </v>
    <v>       0.08124929       0.75000002       0.59536034 </v>
    <v>       0.20345278       0.75000002       0.59369177 </v>
    <v>       0.32585750       0.75000002       0.59419475 </v>
    <v>       0.44837143       0.75000002       0.59417944 </v>
    <v>       0.57079135       0.75000002       0.59381129 </v>
    <v>       0.69380041       0.75000002       0.59314163 </v>
    <v>       0.02212854       0.07142238       0.14528046 </v>
    <v>       0.14585395       0.07028154       0.14589567 </v>
    <v>       0.26850086       0.07017526       0.14608628 </v>
    <v>       0.39091861       0.07022992       0.14643132 </v>
    <v>       0.51343381       0.07018229       0.14619757 </v>
    <v>       0.63584417       0.07016935       0.14547871 </v>
    <v>       0.75801136       0.07129346       0.14180927 </v>
    <v>       0.09959577       0.93017876       0.85449364 </v>
    <v>       0.22148378       0.92980078       0.85349959 </v>
    <v>       0.34390281       0.92979784       0.85390946 </v>
    <v>       0.46640324       0.92982100       0.85399567 </v>
    <v>       0.58881805       0.92980958       0.85343680 </v>
    <v>       0.71142284       0.93045785       0.85318631 </v>
    <v>       0.03807777       0.92870653       0.64180929 </v>
    <v>       0.16024495       0.92983064       0.64547873 </v>
    <v>       0.28265532       0.92981770       0.64619759 </v>
    <v>       0.40517049       0.92977007       0.64643134 </v>
    <v>       0.52758827       0.92982473       0.64608630 </v>
    <v>       0.65023519       0.92971846       0.64589569 </v>
    <v>       0.77396060       0.92857761       0.64528048 </v>
    <v>       0.08466625       0.06954214       0.35318631 </v>
    <v>       0.20727104       0.07019041       0.35343680 </v>
    <v>       0.32968587       0.07017899       0.35399567 </v>
    <v>       0.45218632       0.07020215       0.35390946 </v>
    <v>       0.57460535       0.07019921       0.35349959 </v>
    <v>       0.69649335       0.06982123       0.35449364 </v>
    <v>       0.09959577       0.56982124       0.85449364 </v>
    <v>       0.22148378       0.57019922       0.85349959 </v>
    <v>       0.34390281       0.57020216       0.85390946 </v>
    <v>       0.46640324       0.57017900       0.85399567 </v>
    <v>       0.58881805       0.57019042       0.85343680 </v>
    <v>       0.71142284       0.56954215       0.85318631 </v>
    <v>       0.02212854       0.42857761       0.14528046 </v>
    <v>       0.14585395       0.42971846       0.14589567 </v>
    <v>       0.26850086       0.42982473       0.14608628 </v>
    <v>       0.39091861       0.42977007       0.14643132 </v>
    <v>       0.51343381       0.42981770       0.14619757 </v>
    <v>       0.63584417       0.42983064       0.14547871 </v>
    <v>       0.75801136       0.42870653       0.14180927 </v>
    <v>       0.08466625       0.43045785       0.35318631 </v>
    <v>       0.20727104       0.42980958       0.35343680 </v>
    <v>       0.32968587       0.42982100       0.35399567 </v>
    <v>       0.45218632       0.42979784       0.35390946 </v>
    <v>       0.57460535       0.42980078       0.35349959 </v>
    <v>       0.69649335       0.43017876       0.35449364 </v>
    <v>       0.03807777       0.57129347       0.64180929 </v>
    <v>       0.16024495       0.57016936       0.64547873 </v>
    <v>       0.28265532       0.57018230       0.64619759 </v>
    <v>       0.40517049       0.57022993       0.64643134 </v>
    <v>       0.52758827       0.57017527       0.64608630 </v>
    <v>       0.65023519       0.57028154       0.64589569 </v>
    <v>       0.77396060       0.57142239       0.64528048 </v>
    <v>       0.00908857       0.75000002       0.61850228 </v>
    <v>       0.13271857       0.75000002       0.59119537 </v>
    <v>       0.25514028       0.75000002       0.59130232 </v>
    <v>       0.37763268       0.75000002       0.59184140 </v>
    <v>       0.50005429       0.75000002       0.59164181 </v>
    <v>       0.62266016       0.75000002       0.59165571 </v>
    <v>       0.74587972       0.75000002       0.58268543 </v>
    <v>       0.11210498       0.25000000       0.40813674 </v>
    <v>       0.23479394       0.25000000       0.40818233 </v>
    <v>       0.35723857       0.25000000       0.40834538 </v>
    <v>       0.47972427       0.25000000       0.40851076 </v>
    <v>       0.60213651       0.25000000       0.40811269 </v>
    <v>       0.72381912       0.25000000       0.40915243 </v>
    <v>       0.05020937       0.25000000       0.08268537 </v>
    <v>       0.17342895       0.25000000       0.09165565 </v>
    <v>       0.29603481       0.25000000       0.09164175 </v>
    <v>       0.41845642       0.25000000       0.09184134 </v>
    <v>       0.54094885       0.25000000       0.09130226 </v>
    <v>       0.66337056       0.25000000       0.09119530 </v>
    <v>       0.78700055       0.25000000       0.11850222 </v>
    <v>       0.07226999       0.75000002       0.90915247 </v>
    <v>       0.19395261       0.75000002       0.90811274 </v>
    <v>       0.31636478       0.75000002       0.90851081 </v>
    <v>       0.43885054       0.75000002       0.90834543 </v>
    <v>       0.56129519       0.75000002       0.90818237 </v>
    <v>       0.68398417       0.75000002       0.90813678 </v>
    <v>       0.02238106       0.25000000       0.96257670 </v>
    <v>       0.14639113       0.25000000       0.96416953 </v>
    <v>       0.26898804       0.25000000       0.96424515 </v>
    <v>       0.39139258       0.25000000       0.96454179 </v>
    <v>       0.51387776       0.25000000       0.96432534 </v>
    <v>       0.63633461       0.25000000       0.96359482 </v>
    <v>       0.76440923       0.25000000       0.96176837 </v>
    <v>       0.09864003       0.75000002       0.03715778 </v>
    <v>       0.22099060       0.75000002       0.03543701 </v>
    <v>       0.34341160       0.75000002       0.03578026 </v>
    <v>       0.46589022       0.75000002       0.03585006 </v>
    <v>       0.58837175       0.75000002       0.03537340 </v>
    <v>       0.71097023       0.75000002       0.03535633 </v>
    <v>       0.03167985       0.75000002       0.46176829 </v>
    <v>       0.15975448       0.75000002       0.46359474 </v>
    <v>       0.28221140       0.75000002       0.46432525 </v>
    <v>       0.40469655       0.75000002       0.46454171 </v>
    <v>       0.52710109       0.75000002       0.46424507 </v>
    <v>       0.64969801       0.75000002       0.46416945 </v>
    <v>       0.77370801       0.75000002       0.46257662 </v>
    <v>       0.08511889       0.25000000       0.53535632 </v>
    <v>       0.20771738       0.25000000       0.53537338 </v>
    <v>       0.33019886       0.25000000       0.53585004 </v>
    <v>       0.45267750       0.25000000       0.53578025 </v>
    <v>       0.57509853       0.25000000       0.53543700 </v>
    <v>       0.69744911       0.25000000       0.53715777 </v>
   </varray>
  </structure>
  <varray name="forces" >
   <v>       0.02360553       0.00000000      -0.03547447 </v>
   <v>       0.03634423       0.00000000      -0.01903768 </v>
   <v>       0.04088642       0.00000000      -0.02213402 </v>
   <v>       0.03401856       0.00000000      -0.01562214 </v>
   <v>       0.03708331       0.00000000      -0.01932055 </v>
   <v>       0.03710744       0.00000000      -0.01963961 </v>
   <v>       0.06394502       0.00000000      -0.02773796 </v>
   <v>      -0.03989618       0.00000000       0.02443576 </v>
   <v>      -0.03318267       0.00000000       0.02334737 </v>
   <v>      -0.03929250       0.00000000       0.02347866 </v>
   <v>      -0.03783151       0.00000000       0.02728801 </v>
   <v>      -0.04107024       0.00000000       0.02280295 </v>
   <v>      -0.03452619       0.00000000       0.01586472 </v>
   <v>      -0.06394502       0.00000000      -0.02773796 </v>
   <v>      -0.03710744       0.00000000      -0.01963961 </v>
   <v>      -0.03708331       0.00000000      -0.01932055 </v>
   <v>      -0.03401856       0.00000000      -0.01562214 </v>
   <v>      -0.04088642       0.00000000      -0.02213402 </v>
   <v>      -0.03634423       0.00000000      -0.01903768 </v>
   <v>      -0.02360553       0.00000000      -0.03547447 </v>
   <v>       0.03452619       0.00000000       0.01586472 </v>
   <v>       0.04107024       0.00000000       0.02280295 </v>
   <v>       0.03783151       0.00000000       0.02728801 </v>
   <v>       0.03929250       0.00000000       0.02347866 </v>
   <v>       0.03318267       0.00000000       0.02334737 </v>
   <v>       0.03989618       0.00000000       0.02443576 </v>
   <v>       0.00463555       0.00000000      -0.00526297 </v>
   <v>       0.01543251       0.00000000       0.03031870 </v>
   <v>       0.01681379       0.00000000       0.02895728 </v>
   <v>       0.01930492       0.00000000       0.02676216 </v>
   <v>       0.01849646       0.00000000       0.02671616 </v>
   <v>       0.02079093       0.00000000       0.02729715 </v>
   <v>       0.01880101       0.00000000       0.03336222 </v>
   <v>      -0.00868464       0.00000000      -0.01876883 </v>
   <v>      -0.01994889       0.00000000      -0.02650590 </v>
   <v>      -0.02015734       0.00000000      -0.02864854 </v>
   <v>      -0.02074955       0.00000000      -0.02870391 </v>
   <v>      -0.01570963       0.00000000      -0.02814836 </v>
   <v>      -0.00604272       0.00000000      -0.02689160 </v>
   <v>      -0.01880101       0.00000000       0.03336222 </v>
   <v>      -0.02079093       0.00000000       0.02729715 </v>
   <v>      -0.01849646       0.00000000       0.02671616 </v>
   <v>      -0.01930492       0.00000000       0.02676216 </v>
   <v>      -0.01681379       0.00000000       0.02895728 </v>
   <v>      -0.01543251       0.00000000       0.03031870 </v>
   <v>      -0.00463555       0.00000000      -0.00526297 </v>
   <v>       0.00604272       0.00000000      -0.02689160 </v>
   <v>       0.01570963       0.00000000      -0.02814836 </v>
   <v>       0.02074955       0.00000000      -0.02870391 </v>
   <v>       0.02015734       0.00000000      -0.02864854 </v>
   <v>       0.01994889       0.00000000      -0.02650590 </v>
   <v>       0.00868464       0.00000000      -0.01876883 </v>
   <v>       0.02356915       0.00517701       0.00191741 </v>
   <v>       0.02711368       0.01854733      -0.00552343 </v>
   <v>       0.02331074       0.02157330      -0.00534144 </v>
   <v>       0.02861967       0.02072220      -0.00786267 </v>
   <v>       0.02679863       0.02183001      -0.00870241 </v>
   <v>       0.02233043       0.02044782      -0.00900843 </v>
   <v>       0.01766193       0.03131718      -0.00049757 </v>
   <v>      -0.02757570      -0.02570522       0.00952638 </v>
   <v>      -0.03033352      -0.02175259       0.01001715 </v>
   <v>      -0.02142943      -0.01964037       0.00530589 </v>
   <v>      -0.02602750      -0.02439646       0.00568012 </v>
   <v>      -0.02205749      -0.02287414       0.00497161 </v>
   <v>      -0.02662632      -0.02301563       0.01222392 </v>
   <v>      -0.01766193      -0.03131718      -0.00049757 </v>
   <v>      -0.02233043      -0.02044782      -0.00900843 </v>
   <v>      -0.02679863      -0.02183001      -0.00870241 </v>
   <v>      -0.02861967      -0.02072220      -0.00786267 </v>
   <v>      -0.02331074      -0.02157330      -0.00534144 </v>
   <v>      -0.02711368      -0.01854733      -0.00552343 </v>
   <v>      -0.02356915      -0.00517701       0.00191741 </v>
   <v>       0.02662632       0.02301563       0.01222392 </v>
   <v>       0.02205749       0.02287414       0.00497161 </v>
   <v>       0.02602750       0.02439646       0.00568012 </v>
   <v>       0.02142943       0.01964037       0.00530589 </v>
   <v>       0.03033352       0.02175259       0.01001715 </v>
   <v>       0.02757570       0.02570522       0.00952638 </v>
   <v>      -0.02757570       0.02570522       0.00952638 </v>
   <v>      -0.03033352       0.02175259       0.01001715 </v>
   <v>      -0.02142943       0.01964037       0.00530589 </v>
   <v>      -0.02602750       0.02439646       0.00568012 </v>
   <v>      -0.02205749       0.02287414       0.00497161 </v>
   <v>      -0.02662632       0.02301563       0.01222392 </v>
   <v>       0.02356915      -0.00517701       0.00191741 </v>
   <v>       0.02711368      -0.01854733      -0.00552343 </v>
   <v>       0.02331074      -0.02157330      -0.00534144 </v>
   <v>       0.02861967      -0.02072220      -0.00786267 </v>
   <v>       0.02679863      -0.02183001      -0.00870241 </v>
   <v>       0.02233043      -0.02044782      -0.00900843 </v>
   <v>       0.01766193      -0.03131718      -0.00049757 </v>
   <v>       0.02662632      -0.02301563       0.01222392 </v>
   <v>       0.02205749      -0.02287414       0.00497161 </v>
   <v>       0.02602750      -0.02439646       0.00568012 </v>
   <v>       0.02142943      -0.01964037       0.00530589 </v>
   <v>       0.03033352      -0.02175259       0.01001715 </v>
   <v>       0.02757570      -0.02570522       0.00952638 </v>
   <v>      -0.01766193       0.03131718      -0.00049757 </v>
   <v>      -0.02233043       0.02044782      -0.00900843 </v>
   <v>      -0.02679863       0.02183001      -0.00870241 </v>
   <v>      -0.02861967       0.02072220      -0.00786267 </v>
   <v>      -0.02331074       0.02157330      -0.00534144 </v>
   <v>      -0.02711368       0.01854733      -0.00552343 </v>
   <v>      -0.02356915       0.00517701       0.00191741 </v>
   <v>       0.02147706       0.00000000       0.01638240 </v>
   <v>      -0.00356743       0.00000000       0.01057095 </v>
   <v>      -0.00446782       0.00000000       0.01461538 </v>
   <v>      -0.00241497       0.00000000       0.01006943 </v>
   <v>      -0.00453272       0.00000000       0.00958076 </v>
   <v>      -0.00615136       0.00000000       0.01217335 </v>
   <v>      -0.00830470       0.00000000       0.00041150 </v>
   <v>      -0.00163013       0.00000000      -0.01624327 </v>
   <v>      -0.00585513       0.00000000      -0.01078772 </v>
   <v>      -0.00693172       0.00000000      -0.01227552 </v>
   <v>      -0.00249729       0.00000000      -0.01584831 </v>
   <v>      -0.00164863       0.00000000      -0.01522610 </v>
   <v>       0.01661101       0.00000000      -0.00982146 </v>
   <v>       0.00830470       0.00000000       0.00041150 </v>
   <v>       0.00615136       0.00000000       0.01217335 </v>
   <v>       0.00453272       0.00000000       0.00958076 </v>
   <v>       0.00241497       0.00000000       0.01006943 </v>
   <v>       0.00446782       0.00000000       0.01461538 </v>
   <v>       0.00356743       0.00000000       0.01057095 </v>
   <v>      -0.02147706       0.00000000       0.01638240 </v>
   <v>      -0.01661101       0.00000000      -0.00982146 </v>
   <v>       0.00164863       0.00000000      -0.01522610 </v>
   <v>       0.00249729       0.00000000      -0.01584831 </v>
   <v>       0.00693172       0.00000000      -0.01227552 </v>
   <v>       0.00585513       0.00000000      -0.01078772 </v>
   <v>       0.00163013       0.00000000      -0.01624327 </v>
   <v>       0.00559856       0.00000000       0.01713442 </v>
   <v>      -0.01386767       0.00000000      -0.00917454 </v>
   <v>      -0.01349573       0.00000000      -0.00625584 </v>
   <v>      -0.00906972       0.00000000      -0.00139899 </v>
   <v>      -0.01178441       0.00000000      -0.00668058 </v>
   <v>      -0.01282634       0.00000000       0.00496462 </v>
   <v>      -0.00871475       0.00000000      -0.00488394 </v>
   <v>       0.01708551       0.00000000      -0.00827026 </v>
   <v>       0.01082830       0.00000000       0.00008273 </v>
   <v>       0.01667329       0.00000000       0.00539015 </v>
   <v>       0.01442621       0.00000000       0.00226472 </v>
   <v>       0.00250509       0.00000000      -0.00377838 </v>
   <v>       0.01986643       0.00000000       0.00285686 </v>
   <v>       0.00871475       0.00000000      -0.00488394 </v>
   <v>       0.01282634       0.00000000       0.00496462 </v>
   <v>       0.01178441       0.00000000      -0.00668058 </v>
   <v>       0.00906972       0.00000000      -0.00139899 </v>
   <v>       0.01349573       0.00000000      -0.00625584 </v>
[...]
       <r>   -15.4716     0.0000   104.0000 </r>
       <r>   -15.3556     0.0000   104.0000 </r>
       <r>   -15.2395     0.0000   104.0000 </r>
       <r>   -15.1234     0.0000   104.0000 </r>
       <r>   -15.0074     0.0000   104.0000 </r>
       <r>   -14.8913     0.0000   104.0000 </r>
       <r>   -14.7753     0.0000   104.0000 </r>
       <r>   -14.6592     0.0000   104.0000 </r>
       <r>   -14.5432     0.0000   104.0000 </r>
       <r>   -14.4271     0.0000   104.0000 </r>
       <r>   -14.3111     0.0000   104.0000 </r>
       <r>   -14.1950     0.0000   104.0000 </r>
       <r>   -14.0790     0.0000   104.0000 </r>
       <r>   -13.9629     0.0000   104.0000 </r>
       <r>   -13.8469     0.0000   104.0000 </r>
       <r>   -13.7308     0.0000   104.0000 </r>
       <r>   -13.6148     0.0000   104.0000 </r>
       <r>   -13.4987     0.0000   104.0000 </r>
       <r>   -13.3827     0.0000   104.0000 </r>
       <r>   -13.2666     0.0000   104.0000 </r>
       <r>   -13.1506     0.0000   104.0000 </r>
       <r>   -13.0345     0.0000   104.0000 </r>
       <r>   -12.9185     0.0000   104.0000 </r>
       <r>   -12.8024     0.0000   104.0000 </r>
       <r>   -12.6864     0.0000   104.0000 </r>
       <r>   -12.5703     0.0000   104.0000 </r>
       <r>   -12.4543     0.0000   104.0000 </r>
       <r>   -12.3382     0.0000   104.0000 </r>
       <r>   -12.2222     0.0000   104.0000 </r>
       <r>   -12.1061     0.0000   104.0000 </r>
       <r>   -11.9901     0.0000   104.0000 </r>
       <r>   -11.8740     0.0000   104.0000 </r>
       <r>   -11.7580    34.4681   108.0001 </r>
       <r>   -11.6419    19.0250   114.2079 </r>
       <r>   -11.5258     0.0000   116.0000 </r>
       <r>   -11.4098     0.0000   116.0000 </r>
       <r>   -11.2937     0.0000   116.0000 </r>
       <r>   -11.1777     0.0000   116.0000 </r>
       <r>   -11.0616     0.0018   116.0002 </r>
       <r>   -10.9456   209.6879   142.5096 </r>
       <r>   -10.8295   371.4062   197.4773 </r>
       <r>   -10.7135   364.2332   262.0198 </r>
       <r>   -10.5974   389.8354   323.6410 </r>
       <r>   -10.4814   487.4966   415.9998 </r>
       <r>   -10.3653     0.0000   416.0000 </r>
       <r>   -10.2493     0.0000   416.0000 </r>
       <r>   -10.1332     0.0000   416.0000 </r>
       <r>   -10.0172     0.0000   416.0000 </r>
       <r>    -9.9011     0.0000   416.0000 </r>
       <r>    -9.7851     0.0000   416.0000 </r>
       <r>    -9.6690     0.0000   416.0000 </r>
       <r>    -9.5530     0.0000   416.0000 </r>
       <r>    -9.4369     0.0000   416.0000 </r>
       <r>    -9.3209     0.0000   416.0000 </r>
       <r>    -9.2048     0.0000   416.0000 </r>
       <r>    -9.0888     0.0000   416.0000 </r>
       <r>    -8.9727     0.0000   416.0000 </r>
       <r>    -8.8567     0.0000   416.0000 </r>
       <r>    -8.7406     0.0000   416.0000 </r>
       <r>    -8.6246     2.9954   416.3476 </r>
       <r>    -8.5085    14.7033   418.7313 </r>
       <r>    -8.3925    54.9861   426.6062 </r>
       <r>    -8.2764   243.9946   463.9410 </r>
       <r>    -8.1604     0.0000   464.0000 </r>
       <r>    -8.0443     0.0000   464.0000 </r>
       <r>    -7.9282    18.3841   466.1335 </r>
       <r>    -7.8122     0.0000   468.0000 </r>
       <r>    -7.6961     0.0000   468.0000 </r>
       <r>    -7.5801     0.0000   468.0000 </r>
       <r>    -7.4640     0.0000   468.0000 </r>
       <r>    -7.3480     0.0000   468.0000 </r>
       <r>    -7.2319     0.0000   468.0000 </r>
       <r>    -7.1159     0.0000   468.0000 </r>
       <r>    -6.9998     0.0000   468.0000 </r>
       <r>    -6.8838     0.0000   468.0000 </r>
       <r>    -6.7677     0.0000   468.0000 </r>
       <r>    -6.6517     0.0000   468.0000 </r>
       <r>    -6.5356     0.0000   468.0000 </r>
       <r>    -6.4196     0.0000   468.0000 </r>
       <r>    -6.3035     0.0000   468.0000 </r>
       <r>    -6.1875     0.0000   468.0000 </r>
       <r>    -6.0714     0.0000   468.0000 </r>
       <r>    -5.9554     0.0000   468.0000 </r>
       <r>    -5.8393     0.0000   468.0000 </r>
       <r>    -5.7233     0.0000   468.0000 </r>
       <r>    -5.6072     0.0000   468.0000 </r>
       <r>    -5.4912     0.0000   468.0000 </r>
       <r>    -5.3751     0.0000   468.0000 </r>
       <r>    -5.2591     0.0000   468.0000 </r>
       <r>    -5.1430     0.0000   468.0000 </r>
       <r>    -5.0270     0.0000   468.0000 </r>
       <r>    -4.9109     0.0000   468.0000 </r>
       <r>    -4.7949     0.0000   468.0000 </r>
       <r>    -4.6788     0.0000   468.0000 </r>
       <r>    -4.5628     0.0000   468.0000 </r>
       <r>    -4.4467     0.0000   468.0000 </r>
       <r>    -4.3306     0.0000   468.0000 </r>
       <r>    -4.2146     0.0000   468.0000 </r>
       <r>    -4.0985     0.0000   468.0000 </r>
       <r>    -3.9825    45.6991   473.3035 </r>
       <r>    -3.8664   128.6981   493.5356 </r>
       <r>    -3.7504    65.4601   505.8968 </r>
       <r>    -3.6343    78.0574   518.5087 </r>
       <r>    -3.5183   258.9232   556.2734 </r>
       <r>    -3.4022   220.7412   592.0424 </r>
       <r>    -3.2862    92.3552   609.6180 </r>
       <r>    -3.1701    19.6799   614.4839 </r>
       <r>    -3.0541    36.1310   621.7681 </r>
       <r>    -2.9380    11.5482   623.4402 </r>
       <r>    -2.8220     0.0000   624.0000 </r>
       <r>    -2.7059     0.0000   624.0000 </r>
       <r>    -2.5899     0.0000   624.0000 </r>
       <r>    -2.4738     0.0000   624.0000 </r>
       <r>    -2.3578     0.0000   624.0000 </r>
       <r>    -2.2417     0.0000   624.0000 </r>
       <r>    -2.1257     0.0000   624.0000 </r>
       <r>    -2.0096     0.0000   624.0000 </r>
       <r>    -1.8936     0.0000   624.0000 </r>
       <r>    -1.7775     0.0000   624.0000 </r>
       <r>    -1.6615     0.0000   624.0000 </r>
       <r>    -1.5454     0.0000   624.0000 </r>
       <r>    -1.4294     0.0000   624.0000 </r>
       <r>    -1.3133     2.5632   624.4225 </r>
       <r>    -1.1973     3.6490   624.9735 </r>
       <r>    -1.0812     4.1854   625.6357 </r>
       <r>    -0.9652     4.4864   626.3457 </r>
       <r>    -0.8491     4.2407   627.1171 </r>
       <r>    -0.7330    10.6909   628.8657 </r>
       <r>    -0.6170    13.5693   631.0997 </r>
       <r>    -0.5009    17.3997   633.7443 </r>
       <r>    -0.3849    30.2440   637.8849 </r>
       <r>    -0.2688    63.3009   649.0962 </r>
       <r>    -0.1528    76.7236   661.6539 </r>
       <r>    -0.0367    72.3629   673.6228 </r>
       <r>     0.0793    66.2791   684.5918 </r>
       <r>     0.1954    64.2448   696.2807 </r>
       <r>     0.3114    69.6304   708.2057 </r>
       <r>     0.4275    68.8195   720.8866 </r>
       <r>     0.5435   121.2962   740.6016 </r>
       <r>     0.6596   128.5690   763.0456 </r>
       <r>     0.7756   129.4834   783.9518 </r>
       <r>     0.8917   117.6934   803.3585 </r>
       <r>     1.0077    95.3976   821.1460 </r>
       <r>     1.1238    98.2376   836.2756 </r>
       <r>     1.2398   160.0939   861.6792 </r>
       <r>     1.3559    52.0288   873.5880 </r>
       <r>     1.4719    55.1254   883.2724 </r>
       <r>     1.5880    81.7155   898.1332 </r>
       <r>     1.7040    67.7331   909.8855 </r>
       <r>     1.8201    64.6557   921.9034 </r>
       <r>     1.9361    72.9982   933.2966 </r>
       <r>     2.0522     5.4136   935.7533 </r>
       <r>     2.1682     1.2925   936.0000 </r>
       <r>     2.2843     0.0000   936.0000 </r>
       <r>     2.4003     0.0000   936.0000 </r>
       <r>     2.5164     0.0000   936.0000 </r>
       <r>     2.6324     0.0000   936.0000 </r>
       <r>     2.7485     0.0000   936.0000 </r>
       <r>     2.8646     3.5299   936.4097 </r>
       <r>     2.9806    34.0116   941.7721 </r>
       <r>     3.0967    45.6547   949.9483 </r>
       <r>     3.2127    62.2207   959.7958 </r>
       <r>     3.3288    56.6610   969.1506 </r>
       <r>     3.4448    81.2413   982.2532 </r>
       <r>     3.5609    70.6946   993.7792 </r>
       <r>     3.6769    66.9057  1005.2395 </r>
       <r>     3.7930    69.5952  1016.8516 </r>
       <r>     3.9090    64.0485  1028.9329 </r>
       <r>     4.0251    63.3836  1039.6558 </r>
       <r>     4.1411    76.3412  1052.1595 </r>
       <r>     4.2572    79.0581  1065.1248 </r>
       <r>     4.3732    57.2911  1075.6237 </r>
       <r>     4.4893    78.3094  1088.0629 </r>
       <r>     4.6053    84.4615  1101.9019 </r>
       <r>     4.7214    88.4097  1116.1101 </r>
       <r>     4.8374    52.9039  1126.7396 </r>
       <r>     4.9535    29.2070  1132.5145 </r>
       <r>     5.0695    11.3167  1134.7633 </r>
       <r>     5.1856     5.9054  1135.8603 </r>
       <r>     5.3016     0.2154  1136.0000 </r>
       <r>     5.4177     0.0000  1136.0000 </r>
       <r>     5.5337     0.0000  1136.0000 </r>
       <r>     5.6498     0.0000  1136.0000 </r>
       <r>     5.7658     0.0000  1136.0000 </r>
       <r>     5.8819     0.0000  1136.0000 </r>
       <r>     5.9979     0.0000  1136.0000 </r>
       <r>     6.1140     0.0000  1136.0000 </r>
       <r>     6.2300     0.0000  1136.0000 </r>
       <r>     6.3461     0.0000  1136.0000 </r>
       <r>     6.4622     0.0000  1136.0000 </r>
       <r>     6.5782     0.0000  1136.0000 </r>
       <r>     6.6943     0.0000  1136.0000 </r>
       <r>     6.8103     0.0000  1136.0000 </r>
      </set>
     </set>
    </array>
   </total>
  </dos>
 </calculation>
 <structure name="finalpos" >
  <crystal>
   <varray name="basis" >
    <v>      72.94425835       0.00000000       0.00000000 </v>
    <v>       0.00000000       6.69794483       0.00000000 </v>
    <v>       0.00000000       0.00000000      11.46638321 </v>
   </varray>
   <i name="volume">   5602.20673100 </i>
   <varray name="rec_basis" >
    <v>       0.01370910       0.00000000       0.00000000 </v>
    <v>       0.00000000       0.14929953       0.00000000 </v>
    <v>       0.00000000       0.00000000       0.08721146 </v>
   </varray>
  </crystal>
  <varray name="positions" >
   <v>       0.00449150       0.25000000       0.70092332 </v>
   <v>       0.12457155       0.25000000       0.69063763 </v>
   <v>       0.24691030       0.25000000       0.69125207 </v>
   <v>       0.36940071       0.25000000       0.69137884 </v>
   <v>       0.49184451       0.25000000       0.69150598 </v>
   <v>       0.61435082       0.25000000       0.69099281 </v>
   <v>       0.73823176       0.25000000       0.69306161 </v>
   <v>       0.12051017       0.75000002       0.30821079 </v>
   <v>       0.24301244       0.75000002       0.30839143 </v>
   <v>       0.36546787       0.75000002       0.30885690 </v>
   <v>       0.48792886       0.75000002       0.30852000 </v>
   <v>       0.61043755       0.75000002       0.30863167 </v>
   <v>       0.73258571       0.75000002       0.30845859 </v>
   <v>       0.05785738       0.75000002       0.19306155 </v>
   <v>       0.18173832       0.75000002       0.19099275 </v>
   <v>       0.30424462       0.75000002       0.19150591 </v>
   <v>       0.42668839       0.75000002       0.19137878 </v>
   <v>       0.54917883       0.75000002       0.19125201 </v>
   <v>       0.67151757       0.75000002       0.19063757 </v>
   <v>       0.79159762       0.75000002       0.20092325 </v>
   <v>       0.06350341       0.25000000       0.80845863 </v>
   <v>       0.18565157       0.25000000       0.80863171 </v>
   <v>       0.30816027       0.25000000       0.80852004 </v>
   <v>       0.43062126       0.25000000       0.80885694 </v>
   <v>       0.55307667       0.25000000       0.80839147 </v>
   <v>       0.67557892       0.25000000       0.80821084 </v>
   <v>       0.02622375       0.75000002       0.91196626 </v>
   <v>       0.14242898       0.75000002       0.90596334 </v>
   <v>       0.26468771       0.75000002       0.90592736 </v>
   <v>       0.38710608       0.75000002       0.90614591 </v>
   <v>       0.50961495       0.75000002       0.90596649 </v>
   <v>       0.63199226       0.75000002       0.90501453 </v>
   <v>       0.75378829       0.75000002       0.89536112 </v>
   <v>       0.10228872       0.25000000       0.09314165 </v>
   <v>       0.22529778       0.25000000       0.09381131 </v>
   <v>       0.34771765       0.25000000       0.09417946 </v>
   <v>       0.47023163       0.25000000       0.09419477 </v>
   <v>       0.59263637       0.25000000       0.09369179 </v>
   <v>       0.71483985       0.25000000       0.09536036 </v>
   <v>       0.04230084       0.25000000       0.39536120 </v>
   <v>       0.16409687       0.25000000       0.40501461 </v>
   <v>       0.28647418       0.25000000       0.40596657 </v>
   <v>       0.40898302       0.25000000       0.40614599 </v>
   <v>       0.53140137       0.25000000       0.40592745 </v>
   <v>       0.65366015       0.25000000       0.40596342 </v>
   <v>       0.76986533       0.25000000       0.41196634 </v>
   <v>       0.08124929       0.75000002       0.59536034 </v>
   <v>       0.20345278       0.75000002       0.59369177 </v>
   <v>       0.32585750       0.75000002       0.59419475 </v>
   <v>       0.44837143       0.75000002       0.59417944 </v>
   <v>       0.57079135       0.75000002       0.59381129 </v>
   <v>       0.69380041       0.75000002       0.59314163 </v>
   <v>       0.02212854       0.07142238       0.14528046 </v>
   <v>       0.14585395       0.07028154       0.14589567 </v>
   <v>       0.26850086       0.07017526       0.14608628 </v>
   <v>       0.39091861       0.07022992       0.14643132 </v>
   <v>       0.51343381       0.07018229       0.14619757 </v>
   <v>       0.63584417       0.07016935       0.14547871 </v>
   <v>       0.75801136       0.07129346       0.14180927 </v>
   <v>       0.09959577       0.93017876       0.85449364 </v>
   <v>       0.22148378       0.92980078       0.85349959 </v>
   <v>       0.34390281       0.92979784       0.85390946 </v>
   <v>       0.46640324       0.92982100       0.85399567 </v>
   <v>       0.58881805       0.92980958       0.85343680 </v>
   <v>       0.71142284       0.93045785       0.85318631 </v>
   <v>       0.03807777       0.92870653       0.64180929 </v>
   <v>       0.16024495       0.92983064       0.64547873 </v>
   <v>       0.28265532       0.92981770       0.64619759 </v>
   <v>       0.40517049       0.92977007       0.64643134 </v>
   <v>       0.52758827       0.92982473       0.64608630 </v>
   <v>       0.65023519       0.92971846       0.64589569 </v>
   <v>       0.77396060       0.92857761       0.64528048 </v>
   <v>       0.08466625       0.06954214       0.35318631 </v>
   <v>       0.20727104       0.07019041       0.35343680 </v>
   <v>       0.32968587       0.07017899       0.35399567 </v>
   <v>       0.45218632       0.07020215       0.35390946 </v>
   <v>       0.57460535       0.07019921       0.35349959 </v>
   <v>       0.69649335       0.06982123       0.35449364 </v>
   <v>       0.09959577       0.56982124       0.85449364 </v>
   <v>       0.22148378       0.57019922       0.85349959 </v>
   <v>       0.34390281       0.57020216       0.85390946 </v>
   <v>       0.46640324       0.57017900       0.85399567 </v>
   <v>       0.58881805       0.57019042       0.85343680 </v>
   <v>       0.71142284       0.56954215       0.85318631 </v>
   <v>       0.02212854       0.42857761       0.14528046 </v>
   <v>       0.14585395       0.42971846       0.14589567 </v>
   <v>       0.26850086       0.42982473       0.14608628 </v>
   <v>       0.39091861       0.42977007       0.14643132 </v>
   <v>       0.51343381       0.42981770       0.14619757 </v>
   <v>       0.63584417       0.42983064       0.14547871 </v>
   <v>       0.75801136       0.42870653       0.14180927 </v>
   <v>       0.08466625       0.43045785       0.35318631 </v>
   <v>       0.20727104       0.42980958       0.35343680 </v>
   <v>       0.32968587       0.42982100       0.35399567 </v>
   <v>       0.45218632       0.42979784       0.35390946 </v>
   <v>       0.57460535       0.42980078       0.35349959 </v>
   <v>       0.69649335       0.43017876       0.35449364 </v>
   <v>       0.03807777       0.57129347       0.64180929 </v>
   <v>       0.16024495       0.57016936       0.64547873 </v>
   <v>       0.28265532       0.57018230       0.64619759 </v>
   <v>       0.40517049       0.57022993       0.64643134 </v>
   <v>       0.52758827       0.57017527       0.64608630 </v>
   <v>       0.65023519       0.57028154       0.64589569 </v>
   <v>       0.77396060       0.57142239       0.64528048 </v>
   <v>       0.00908857       0.75000002       0.61850228 </v>
   <v>       0.13271857       0.75000002       0.59119537 </v>
   <v>       0.25514028       0.75000002       0.59130232 </v>
   <v>       0.37763268       0.75000002       0.59184140 </v>
   <v>       0.50005429       0.75000002       0.59164181 </v>
   <v>       0.62266016       0.75000002       0.59165571 </v>
   <v>       0.74587972       0.75000002       0.58268543 </v>
   <v>       0.11210498       0.25000000       0.40813674 </v>
   <v>       0.23479394       0.25000000       0.40818233 </v>
   <v>       0.35723857       0.25000000       0.40834538 </v>
   <v>       0.47972427       0.25000000       0.40851076 </v>
   <v>       0.60213651       0.25000000       0.40811269 </v>
   <v>       0.72381912       0.25000000       0.40915243 </v>
   <v>       0.05020937       0.25000000       0.08268537 </v>
   <v>       0.17342895       0.25000000       0.09165565 </v>
   <v>       0.29603481       0.25000000       0.09164175 </v>
   <v>       0.41845642       0.25000000       0.09184134 </v>
   <v>       0.54094885       0.25000000       0.09130226 </v>
   <v>       0.66337056       0.25000000       0.09119530 </v>
   <v>       0.78700055       0.25000000       0.11850222 </v>
   <v>       0.07226999       0.75000002       0.90915247 </v>
   <v>       0.19395261       0.75000002       0.90811274 </v>
   <v>       0.31636478       0.75000002       0.90851081 </v>
   <v>       0.43885054       0.75000002       0.90834543 </v>
   <v>       0.56129519       0.75000002       0.90818237 </v>
   <v>       0.68398417       0.75000002       0.90813678 </v>
   <v>       0.02238106       0.25000000       0.96257670 </v>
   <v>       0.14639113       0.25000000       0.96416953 </v>
   <v>       0.26898804       0.25000000       0.96424515 </v>
   <v>       0.39139258       0.25000000       0.96454179 </v>
   <v>       0.51387776       0.25000000       0.96432534 </v>
   <v>       0.63633461       0.25000000       0.96359482 </v>
   <v>       0.76440923       0.25000000       0.96176837 </v>
   <v>       0.09864003       0.75000002       0.03715778 </v>
   <v>       0.22099060       0.75000002       0.03543701 </v>
   <v>       0.34341160       0.75000002       0.03578026 </v>
   <v>       0.46589022       0.75000002       0.03585006 </v>
   <v>       0.58837175       0.75000002       0.03537340 </v>
   <v>       0.71097023       0.75000002       0.03535633 </v>
   <v>       0.03167985       0.75000002       0.46176829 </v>
   <v>       0.15975448       0.75000002       0.46359474 </v>
   <v>       0.28221140       0.75000002       0.46432525 </v>
   <v>       0.40469655       0.75000002       0.46454171 </v>
   <v>       0.52710109       0.75000002       0.46424507 </v>
   <v>       0.64969801       0.75000002       0.46416945 </v>
   <v>       0.77370801       0.75000002       0.46257662 </v>
   <v>       0.08511889       0.25000000       0.53535632 </v>
   <v>       0.20771738       0.25000000       0.53537338 </v>
   <v>       0.33019886       0.25000000       0.53585004 </v>
   <v>       0.45267750       0.25000000       0.53578025 </v>
   <v>       0.57509853       0.25000000       0.53543700 </v>
   <v>       0.69744911       0.25000000       0.53715777 </v>
  </varray>
 </structure>
</modeling>
