<?xml version="1.0" encoding="ISO-8859-1"?>
<modeling>
 <generator>
  <i name="program" type="string">vasp </i>
  <i name="version" type="string">5.4.4.18Apr17-6-g9f103f2a35  </i>
  <i name="subversion" type="string">(build Nov 21 2017 15:30:27) complex            parallel </i>
  <i name="platform" type="string">LinuxIFC </i>
  <i name="date" type="string">2021 03 17 </i>
  <i name="time" type="string">22:58:09 </i>
 </generator>
 <incar>
  <i type="string" name="PREC">normal</i>
  <i type="int" name="ICHARG">    11</i>
  <i type="int" name="NELM">   100</i>
  <i name="EDIFF">      0.00000100</i>
  <i name="EDIFFG">     -0.01000000</i>
  <i name="ENCUT">    500.00000000</i>
  <i name="POTIM">      0.30000000</i>
  <i type="string" name="LREAL"> Auto       ! Projection in reciprocal s</i>
  <i type="int" name="ISMEAR">     0</i>
  <i name="SIGMA">      0.01000000</i>
  <i type="logical" name="LWAVE"> T  </i>
  <i type="logical" name="LCHARG"> T  </i>
  <i type="logical" name="LASPH"> T  </i>
  <v type="int" name="KPOINT_BSE">    -1     0     0     0</v>
  <i type="int" name="NELM">   100</i>
  <i type="string" name="GGA"> MK</i>
  <i name="PARAM1">      0.12340000</i>
  <i name="PARAM2">      0.71135700</i>
  <i type="logical" name="LUSE_VDW"> T  </i>
  <i name="Zab_VDW">     -1.88670000</i>
  <i name="AGGAC">      0.00000000</i>
  <i type="logical" name="LASPH"> T  </i>
 </incar>
 <structure name="primitive_cell" >
  <crystal>
   <varray name="basis" >
    <v>      90.75760902       0.00000000       0.00000000 </v>
    <v>       0.00000000       6.70322420       0.00000000 </v>
    <v>       0.00000000       0.00000000      11.47571150 </v>
   </varray>
   <i name="volume">   6981.46255890 </i>
   <varray name="rec_basis" >
    <v>       0.01101836       0.00000000       0.00000000 </v>
    <v>       0.00000000       0.14918194       0.00000000 </v>
    <v>       0.00000000       0.00000000       0.08714057 </v>
   </varray>
  </crystal>
  <varray name="positions" >
   <v>       0.00367357       0.25000000      -0.29891801 </v>
   <v>       0.01802404       0.25000000      -0.03724590 </v>
   <v>       0.03062180      -0.42841918      -0.35752460 </v>
   <v>       0.03062180      -0.07158082      -0.35752460 </v>
   <v>       0.00731208      -0.24999998      -0.38131837 </v>
   <v>       0.02103360      -0.24999998      -0.08772543 </v>
   <v>       0.03401639       0.25000000       0.39556727 </v>
   <v>       0.05102860       0.25000000      -0.19151488 </v>
   <v>       0.02550467      -0.24999998       0.46239757 </v>
   <v>       0.01786162       0.42840661       0.14531028 </v>
   <v>       0.01786162       0.07159338       0.14531028 </v>
   <v>       0.04041406       0.25000000       0.08257165 </v>
   <v>       0.06839305       0.25000000      -0.46486745 </v>
   <v>       0.05806042      -0.24999998      -0.09092865 </v>
   <v>       0.06530110      -0.24999998      -0.40465633 </v>
   <v>       0.06804037       0.43040581       0.35313809 </v>
   <v>       0.06804037       0.06959418       0.35313809 </v>
   <v>       0.08001984      -0.43007712      -0.14570610 </v>
   <v>       0.08001984      -0.06992288      -0.14570610 </v>
   <v>       0.04651519      -0.24999998       0.19288575 </v>
   <v>       0.08215708       0.25000000       0.09308656 </v>
   <v>       0.09009337       0.25000000       0.40799071 </v>
   <v>       0.07929400      -0.24999998       0.03674505 </v>
   <v>       0.10008928       0.25000000      -0.30948124 </v>
   <v>       0.10660234      -0.24999998      -0.40881638 </v>
   <v>       0.09682791      -0.24999998       0.30803995 </v>
   <v>       0.11755682       0.25000000      -0.03597201 </v>
   <v>       0.11444615      -0.24999998      -0.09405836 </v>
   <v>       0.11715818       0.42960951       0.14569290 </v>
   <v>       0.11715818       0.07039048       0.14569290 </v>
   <v>       0.12873707      -0.42970628      -0.35483071 </v>
   <v>       0.12873707      -0.07029372      -0.35483071 </v>
   <v>       0.12832414      -0.24999998       0.46348846 </v>
   <v>       0.13179076       0.25000000       0.40491537 </v>
   <v>       0.13931348       0.25000000       0.09140078 </v>
   <v>       0.14910954       0.25000000      -0.19147957 </v>
   <v>       0.15573203      -0.24999998      -0.09165155 </v>
   <v>       0.14596165      -0.24999998       0.19122649 </v>
   <v>       0.16679399       0.25000000      -0.46466573 </v>
   <v>       0.16343481      -0.24999998      -0.40632300 </v>
   <v>       0.16648391       0.42973435       0.35355852 </v>
   <v>       0.16648391       0.07026565       0.35355852 </v>
   <v>       0.17784093      -0.42969266      -0.14622882 </v>
   <v>       0.17784093      -0.07030734      -0.14622882 </v>
   <v>      -0.17110244       0.25000000       0.11868157 </v>
   <v>       0.17747664      -0.24999998       0.03554460 </v>
   <v>       0.18091035       0.25000000       0.09402823 </v>
   <v>      -0.16746392      -0.24999998       0.20108193 </v>
   <v>      -0.18165200      -0.42840661      -0.35468970 </v>
   <v>      -0.18165200      -0.07159339      -0.35468970 </v>
   <v>       0.18858444       0.25000000       0.40854445 </v>
   <v>      -0.18181439      -0.24999998       0.46275402 </v>
   <v>      -0.18482399       0.25000000       0.41227465 </v>
   <v>       0.19830642       0.25000000      -0.30862431 </v>
   <v>      -0.18929500       0.25000000      -0.03760235 </v>
   <v>       0.19518790      -0.24999998       0.30837971 </v>
   <v>       0.20492249      -0.24999998      -0.40863558 </v>
   <v>      -0.19441211       0.42841918       0.14247538 </v>
   <v>      -0.19441211       0.07158081       0.14247538 </v>
   <v>      -0.19780678      -0.24999998      -0.10443281 </v>
   <v>      -0.20420439      -0.24999998      -0.41742829 </v>
   <v>       0.21256935      -0.24999998      -0.09424362 </v>
   <v>      -0.21030552       0.25000000      -0.30711419 </v>
   <v>       0.21603703       0.25000000      -0.03566287 </v>
   <v>       0.21565160       0.42970362       0.14605631 </v>
   <v>       0.21565160       0.07029637       0.14605631 </v>
   <v>       0.22704608      -0.42970338      -0.35398873 </v>
   <v>       0.22704608      -0.07029662      -0.35398873 </v>
   <v>      -0.21481899      -0.24999998       0.30848508 </v>
   <v>       0.22666468      -0.24999998       0.46421410 </v>
   <v>      -0.22185074       0.25000000       0.40907131 </v>
   <v>       0.23009807       0.25000000       0.40584790 </v>
   <v>      -0.23183071      -0.43040581      -0.14686191 </v>
   <v>      -0.23183071      -0.06959419      -0.14686191 </v>
   <v>      -0.22909144       0.25000000       0.09534369 </v>
   <v>       0.23778552       0.25000000       0.09156158 </v>
   <v>      -0.23218335      -0.24999998       0.03513257 </v>
   <v>       0.24750686       0.25000000      -0.19152089 </v>
   <v>      -0.24308438       0.25000000      -0.46325496 </v>
   <v>       0.24435610      -0.24999998       0.19137465 </v>
   <v>      -0.24381019       0.43007712       0.35429390 </v>
   <v>      -0.24381019       0.06992287       0.35429390 </v>
   <v>      -0.24594743      -0.24999998      -0.40691346 </v>
   <v>       0.25408458      -0.24999998      -0.09159485 </v>
   <v>       0.26177123      -0.24999998      -0.40603312 </v>
   <v>      -0.25388375      -0.24999998      -0.09200924 </v>
   <v>       0.26518119       0.25000000      -0.46452890 </v>
   <v>      -0.26061829       0.25000000      -0.19196001 </v>
   <v>       0.26482478       0.42969931       0.35370520 </v>
   <v>       0.26482478       0.07030068       0.35370520 </v>
   <v>       0.27621715      -0.42965495      -0.14618069 </v>
   <v>       0.27621715      -0.07034505      -0.14618069 </v>
   <v>      -0.26387963      -0.24999998       0.19051870 </v>
   <v>       0.27582770      -0.24999998       0.03558602 </v>
   <v>      -0.27039269       0.25000000       0.09118355 </v>
   <v>       0.27930666       0.25000000       0.09403291 </v>
   <v>      -0.27823655       0.25000000       0.40594173 </v>
   <v>       0.28694396       0.25000000       0.40841604 </v>
   <v>      -0.28094856      -0.42960951      -0.35430708 </v>
   <v>      -0.28094856      -0.07039049      -0.35430708 </v>
   <v>      -0.28134717      -0.24999998       0.46402791 </v>
   <v>       0.29667663       0.25000000      -0.30854608 </v>
   <v>       0.29354600      -0.24999998       0.30857279 </v>
   <v>      -0.29211447       0.25000000      -0.03651146 </v>
   <v>      -0.29252738       0.42970628       0.14516927 </v>
   <v>      -0.29252738       0.07029371       0.14516927 </v>
   <v>       0.30327922      -0.24999998      -0.40843491 </v>
   <v>      -0.29558106      -0.24999998      -0.09508471 </v>
   <v>      -0.30310385      -0.24999998      -0.40859915 </v>
   <v>       0.31093693      -0.24999998      -0.09401493 </v>
   <v>       0.31439865       0.25000000      -0.03550532 </v>
   <v>      -0.30975197       0.25000000      -0.30877345 </v>
   <v>       0.31403283       0.42968764       0.14624374 </v>
   <v>       0.31403283       0.07031235       0.14624374 </v>
   <v>      -0.31289985      -0.24999998       0.30852039 </v>
   <v>       0.32539273      -0.42971562      -0.35369911 </v>
   <v>       0.32539273      -0.07028438      -0.35369911 </v>
   <v>       0.32503944      -0.24999998       0.46452753 </v>
   <v>      -0.31952238       0.25000000       0.40834841 </v>
   <v>       0.32845441       0.25000000       0.40601357 </v>
   <v>      -0.32722519       0.25000000       0.09367702 </v>
   <v>      -0.33027428      -0.42973435      -0.14644148 </v>
   <v>      -0.33027428      -0.07026565      -0.14644148 </v>
   <v>       0.33615931       0.25000000       0.09154452 </v>
   <v>      -0.33058434      -0.24999998       0.03533428 </v>
   <v>       0.34586638       0.25000000      -0.19139683 </v>
   <v>      -0.34126696       0.25000000      -0.46445542 </v>
   <v>       0.34274180      -0.24999998       0.19162313 </v>
   <v>      -0.34163130       0.42969266       0.35377118 </v>
   <v>      -0.34163130       0.07030733       0.35377118 </v>
   <v>      -0.34470071      -0.24999998      -0.40597179 </v>
   <v>       0.35244466      -0.24999998      -0.09136866 </v>
   <v>       0.36012434      -0.24999998      -0.40590101 </v>
   <v>      -0.35237479      -0.24999998      -0.09145550 </v>
   <v>       0.36356205       0.25000000      -0.46421004 </v>
   <v>       0.36319123       0.42968419       0.35399383 </v>
   <v>       0.36319123       0.07031581       0.35399383 </v>
   <v>      -0.35897824       0.25000000      -0.19162025 </v>
   <v>       0.37456742      -0.42968879      -0.14606717 </v>
   <v>       0.37456742      -0.07031121      -0.14606717 </v>
   <v>      -0.36209676      -0.24999998       0.19137563 </v>
   <v>       0.37420686      -0.24999998       0.03569292 </v>
   <v>      -0.36871283       0.25000000       0.09136436 </v>
   <v>       0.37769924       0.25000000       0.09416276 </v>
   <v>      -0.37635970       0.25000000       0.40575646 </v>
   <v>       0.38531519       0.25000000       0.40864943 </v>
   <v>      -0.37944195      -0.42970362      -0.35394367 </v>
   <v>      -0.37944195      -0.07029638      -0.35394367 </v>
   <v>      -0.37982737      -0.24999998       0.46433705 </v>
   <v>       0.39505411       0.25000000      -0.30843282 </v>
   <v>       0.39194016      -0.24999998       0.30859133 </v>
   <v>      -0.39045507       0.25000000      -0.03578582 </v>
   <v>      -0.39083640       0.42970338       0.14601125 </v>
   <v>      -0.39083640       0.07029661       0.14601125 </v>
   <v>       0.40166241      -0.24999998      -0.40858458 </v>
   <v>      -0.39388843      -0.24999998      -0.09415218 </v>
   <v>      -0.40157591      -0.24999998      -0.40843836 </v>
   <v>       0.40932071      -0.24999998      -0.09394893 </v>
   <v>       0.41276791       0.25000000      -0.03549133 </v>
   <v>      -0.40814642       0.25000000      -0.30862529 </v>
   <v>       0.41243785       0.42971574       0.14626062 </v>
   <v>       0.41243785       0.07028426       0.14626062 </v>
   <v>      -0.41129720      -0.24999998       0.30847906 </v>
   <v>       0.42377178      -0.42971574      -0.35373936 </v>
   <v>       0.42377178      -0.07028426      -0.35373936 </v>
   <v>       0.42344176      -0.24999998       0.46450859 </v>
   <v>      -0.41787493       0.25000000       0.40840511 </v>
   <v>       0.42688897       0.25000000       0.40605115 </v>
   <v>      -0.42556151       0.25000000       0.09396690 </v>
   <v>      -0.42861510      -0.42969931      -0.14629480 </v>
   <v>      -0.42861510      -0.07030069      -0.14629480 </v>
   <v>       0.43454723       0.25000000       0.09141536 </v>
   <v>      -0.42897155      -0.24999998       0.03547111 </v>
   <v>       0.44426951       0.25000000      -0.19140862 </v>
   <v>       0.44115553      -0.24999998       0.19156712 </v>
   <v>      -0.43961804       0.25000000      -0.46441400 </v>
   <v>      -0.44000749       0.42965495       0.35381931 </v>
   <v>      -0.44000749       0.07034504       0.35381931 </v>
   <v>      -0.44309701      -0.24999998      -0.40596712 </v>
   <v>       0.45089445      -0.24999998      -0.09135053 </v>
   <v>       0.45851044      -0.24999998      -0.40583726 </v>
   <v>      -0.45073430      -0.24999998      -0.09158392 </v>
   <v>       0.46200277       0.25000000      -0.46430710 </v>
   <v>       0.46164222       0.42968879       0.35393283 </v>
   <v>       0.46164222       0.07031120       0.35393283 </v>
   <v>      -0.45733633       0.25000000      -0.19142717 </v>
   <v>      -0.46046697      -0.24999998       0.19145386 </v>
   <v>       0.47301841      -0.42968419      -0.14600617 </v>
   <v>       0.47301841      -0.07031581      -0.14600617 </v>
   <v>       0.47264758      -0.24999998       0.03578998 </v>
   <v>      -0.46706956       0.25000000       0.09156503 </v>
   <v>       0.47608529       0.25000000       0.09409901 </v>
   <v>      -0.47472728       0.25000000       0.40598516 </v>
   <v>       0.48376502       0.25000000       0.40863130 </v>
   <v>      -0.47782315      -0.42968764      -0.35375624 </v>
   <v>      -0.47782315      -0.07031236      -0.35375624 </v>
   <v>      -0.47818897      -0.24999998       0.46449460 </v>
   <v>       0.49346788       0.25000000      -0.30837681 </v>
   <v>       0.49034327      -0.24999998       0.30860313 </v>
   <v>      -0.48882981       0.25000000      -0.03547239 </v>
   <v>      -0.48918303       0.42971562       0.14630087 </v>
   <v>      -0.48918303       0.07028437       0.14630087 </v>
   <v>      -0.49994964      -0.24999998      -0.40845541 </v>
   <v>      -0.49224471      -0.24999998      -0.09398652 </v>
  </varray>
 </structure>
 <varray name="primitive_index" >
  <v type="int" >        1 </v>
  <v type="int" >      171 </v>
  <v type="int" >      128 </v>
  <v type="int" >       86 </v>
  <v type="int" >      137 </v>
  <v type="int" >       35 </v>
  <v type="int" >       52 </v>
  <v type="int" >       27 </v>
  <v type="int" >      188 </v>
  <v type="int" >      111 </v>
  <v type="int" >       69 </v>
  <v type="int" >      154 </v>
  <v type="int" >      197 </v>
  <v type="int" >      163 </v>
  <v type="int" >       61 </v>
  <v type="int" >      120 </v>
  <v type="int" >       95 </v>
  <v type="int" >      103 </v>
  <v type="int" >       78 </v>
  <v type="int" >       18 </v>
  <v type="int" >       44 </v>
  <v type="int" >      146 </v>
  <v type="int" >      180 </v>
  <v type="int" >        2 </v>
  <v type="int" >      138 </v>
  <v type="int" >       10 </v>
  <v type="int" >      172 </v>
  <v type="int" >       36 </v>
  <v type="int" >      112 </v>
  <v type="int" >       70 </v>
  <v type="int" >      129 </v>
  <v type="int" >       87 </v>
  <v type="int" >      189 </v>
  <v type="int" >       53 </v>
  <v type="int" >      155 </v>
  <v type="int" >       28 </v>
  <v type="int" >      164 </v>
  <v type="int" >       19 </v>
  <v type="int" >      198 </v>
  <v type="int" >       62 </v>
  <v type="int" >      121 </v>
  <v type="int" >       96 </v>
  <v type="int" >      104 </v>
  <v type="int" >       79 </v>
  <v type="int" >      162 </v>
  <v type="int" >      181 </v>
  <v type="int" >       45 </v>
  <v type="int" >       26 </v>
  <v type="int" >      136 </v>
  <v type="int" >       94 </v>
  <v type="int" >      147 </v>
  <v type="int" >      196 </v>
  <v type="int" >       60 </v>
  <v type="int" >        3 </v>
  <v type="int" >      179 </v>
  <v type="int" >       11 </v>
  <v type="int" >      139 </v>
  <v type="int" >      119 </v>
  <v type="int" >       77 </v>
  <v type="int" >       43 </v>
  <v type="int" >      145 </v>
  <v type="int" >       37 </v>
  <v type="int" >        9 </v>
  <v type="int" >      173 </v>
  <v type="int" >      113 </v>
  <v type="int" >       71 </v>
  <v type="int" >      130 </v>
  <v type="int" >       88 </v>
  <v type="int" >       17 </v>
  <v type="int" >      190 </v>
  <v type="int" >      153 </v>
  <v type="int" >       54 </v>
  <v type="int" >      110 </v>
  <v type="int" >       85 </v>
  <v type="int" >       51 </v>
  <v type="int" >      156 </v>
  <v type="int" >      187 </v>
  <v type="int" >       29 </v>
  <v type="int" >      204 </v>
  <v type="int" >       20 </v>
  <v type="int" >      127 </v>
  <v type="int" >      102 </v>
  <v type="int" >       68 </v>
  <v type="int" >      165 </v>
  <v type="int" >       63 </v>
  <v type="int" >      170 </v>
  <v type="int" >      199 </v>
  <v type="int" >       34 </v>
  <v type="int" >      122 </v>
  <v type="int" >       97 </v>
  <v type="int" >      105 </v>
  <v type="int" >       80 </v>
  <v type="int" >       25 </v>
  <v type="int" >      182 </v>
  <v type="int" >      161 </v>
  <v type="int" >       46 </v>
  <v type="int" >       59 </v>
  <v type="int" >      148 </v>
  <v type="int" >      135 </v>
  <v type="int" >       93 </v>
  <v type="int" >      195 </v>
  <v type="int" >        4 </v>
  <v type="int" >       12 </v>
  <v type="int" >      178 </v>
  <v type="int" >      118 </v>
  <v type="int" >       76 </v>
  <v type="int" >      140 </v>
  <v type="int" >       42 </v>
  <v type="int" >      144 </v>
  <v type="int" >       38 </v>
  <v type="int" >      174 </v>
  <v type="int" >        8 </v>
  <v type="int" >      114 </v>
  <v type="int" >       72 </v>
  <v type="int" >       16 </v>
  <v type="int" >      131 </v>
  <v type="int" >       89 </v>
  <v type="int" >      191 </v>
  <v type="int" >      152 </v>
  <v type="int" >       55 </v>
  <v type="int" >       50 </v>
  <v type="int" >      109 </v>
  <v type="int" >       84 </v>
  <v type="int" >      157 </v>
  <v type="int" >      186 </v>
  <v type="int" >       30 </v>
  <v type="int" >      203 </v>
  <v type="int" >       21 </v>
  <v type="int" >      126 </v>
  <v type="int" >      101 </v>
  <v type="int" >       67 </v>
  <v type="int" >      166 </v>
  <v type="int" >       64 </v>
  <v type="int" >      169 </v>
  <v type="int" >      200 </v>
  <v type="int" >      123 </v>
  <v type="int" >       98 </v>
  <v type="int" >       33 </v>
  <v type="int" >      106 </v>
  <v type="int" >       81 </v>
  <v type="int" >       24 </v>
  <v type="int" >      183 </v>
  <v type="int" >      160 </v>
  <v type="int" >       47 </v>
  <v type="int" >       58 </v>
  <v type="int" >      149 </v>
  <v type="int" >      134 </v>
  <v type="int" >       92 </v>
  <v type="int" >      194 </v>
  <v type="int" >        5 </v>
  <v type="int" >       13 </v>
  <v type="int" >      177 </v>
  <v type="int" >      117 </v>
  <v type="int" >       75 </v>
  <v type="int" >      141 </v>
  <v type="int" >       41 </v>
  <v type="int" >      143 </v>
  <v type="int" >       39 </v>
  <v type="int" >      175 </v>
  <v type="int" >        7 </v>
  <v type="int" >      115 </v>
  <v type="int" >       73 </v>
  <v type="int" >       15 </v>
  <v type="int" >      132 </v>
  <v type="int" >       90 </v>
  <v type="int" >      192 </v>
  <v type="int" >      151 </v>
  <v type="int" >       56 </v>
  <v type="int" >       49 </v>
  <v type="int" >      108 </v>
  <v type="int" >       83 </v>
  <v type="int" >      158 </v>
  <v type="int" >      185 </v>
  <v type="int" >       31 </v>
  <v type="int" >       22 </v>
  <v type="int" >      202 </v>
  <v type="int" >      125 </v>
  <v type="int" >      100 </v>
  <v type="int" >       66 </v>
  <v type="int" >      167 </v>
  <v type="int" >       65 </v>
  <v type="int" >      168 </v>
  <v type="int" >      201 </v>
  <v type="int" >      124 </v>
  <v type="int" >       99 </v>
  <v type="int" >       32 </v>
  <v type="int" >       23 </v>
  <v type="int" >      107 </v>
  <v type="int" >       82 </v>
  <v type="int" >      184 </v>
  <v type="int" >      159 </v>
  <v type="int" >       48 </v>
  <v type="int" >       57 </v>
  <v type="int" >      150 </v>
  <v type="int" >      133 </v>
  <v type="int" >       91 </v>
  <v type="int" >      193 </v>
  <v type="int" >        6 </v>
  <v type="int" >       14 </v>
  <v type="int" >      176 </v>
  <v type="int" >      116 </v>
  <v type="int" >       74 </v>
  <v type="int" >      142 </v>
  <v type="int" >       40 </v>
 </varray>
 <kpoints>
  <generation param="listgenerated">
   <i name="divisions" type="int">      20 </i>
   <v>       0.00000000       0.00000000       0.00000000 </v>
   <v>       0.00000000       0.50000000       0.00000000 </v>
   <v>       0.00000000       0.50000000       0.50000000 </v>
   <v>       0.00000000       0.00000000       0.50000000 </v>
   <v>       0.00000000       0.00000000       0.00000000 </v>
  </generation>
  <varray name="kpointlist" >
   <v>       0.00000000       0.00000000       0.00000000 </v>
   <v>       0.00000000       0.02631579       0.00000000 </v>
   <v>       0.00000000       0.05263158       0.00000000 </v>
   <v>       0.00000000       0.07894737       0.00000000 </v>
   <v>       0.00000000       0.10526316       0.00000000 </v>
   <v>       0.00000000       0.13157895       0.00000000 </v>
   <v>       0.00000000       0.15789474       0.00000000 </v>
   <v>       0.00000000       0.18421053       0.00000000 </v>
   <v>       0.00000000       0.21052632       0.00000000 </v>
   <v>       0.00000000       0.23684211       0.00000000 </v>
   <v>       0.00000000       0.26315789       0.00000000 </v>
   <v>       0.00000000       0.28947368       0.00000000 </v>
   <v>       0.00000000       0.31578947       0.00000000 </v>
   <v>       0.00000000       0.34210526       0.00000000 </v>
   <v>       0.00000000       0.36842105       0.00000000 </v>
   <v>       0.00000000       0.39473684       0.00000000 </v>
   <v>       0.00000000       0.42105263       0.00000000 </v>
   <v>       0.00000000       0.44736842       0.00000000 </v>
   <v>       0.00000000       0.47368421       0.00000000 </v>
   <v>       0.00000000       0.50000000       0.00000000 </v>
   <v>       0.00000000       0.50000000       0.00000000 </v>
   <v>       0.00000000       0.50000000       0.02631579 </v>
   <v>       0.00000000       0.50000000       0.05263158 </v>
   <v>       0.00000000       0.50000000       0.07894737 </v>
   <v>       0.00000000       0.50000000       0.10526316 </v>
   <v>       0.00000000       0.50000000       0.13157895 </v>
   <v>       0.00000000       0.50000000       0.15789474 </v>
   <v>       0.00000000       0.50000000       0.18421053 </v>
   <v>       0.00000000       0.50000000       0.21052632 </v>
   <v>       0.00000000       0.50000000       0.23684211 </v>
   <v>       0.00000000       0.50000000       0.26315789 </v>
   <v>       0.00000000       0.50000000       0.28947368 </v>
   <v>       0.00000000       0.50000000       0.31578947 </v>
   <v>       0.00000000       0.50000000       0.34210526 </v>
   <v>       0.00000000       0.50000000       0.36842105 </v>
   <v>       0.00000000       0.50000000       0.39473684 </v>
   <v>       0.00000000       0.50000000       0.42105263 </v>
   <v>       0.00000000       0.50000000       0.44736842 </v>
   <v>       0.00000000       0.50000000       0.47368421 </v>
   <v>       0.00000000       0.50000000       0.50000000 </v>
   <v>       0.00000000       0.50000000       0.50000000 </v>
   <v>       0.00000000       0.47368421       0.50000000 </v>
   <v>       0.00000000       0.44736842       0.50000000 </v>
   <v>       0.00000000       0.42105263       0.50000000 </v>
   <v>       0.00000000       0.39473684       0.50000000 </v>
   <v>       0.00000000       0.36842105       0.50000000 </v>
   <v>       0.00000000       0.34210526       0.50000000 </v>
   <v>       0.00000000       0.31578947       0.50000000 </v>
   <v>       0.00000000       0.28947368       0.50000000 </v>
   <v>       0.00000000       0.26315789       0.50000000 </v>
   <v>       0.00000000       0.23684211       0.50000000 </v>
   <v>       0.00000000       0.21052632       0.50000000 </v>
   <v>       0.00000000       0.18421053       0.50000000 </v>
   <v>       0.00000000       0.15789474       0.50000000 </v>
   <v>       0.00000000       0.13157895       0.50000000 </v>
   <v>       0.00000000       0.10526316       0.50000000 </v>
   <v>       0.00000000       0.07894737       0.50000000 </v>
   <v>       0.00000000       0.05263158       0.50000000 </v>
   <v>       0.00000000       0.02631579       0.50000000 </v>
   <v>       0.00000000       0.00000000       0.50000000 </v>
   <v>       0.00000000       0.00000000       0.50000000 </v>
   <v>       0.00000000       0.00000000       0.47368421 </v>
   <v>       0.00000000       0.00000000       0.44736842 </v>
   <v>       0.00000000       0.00000000       0.42105263 </v>
   <v>       0.00000000       0.00000000       0.39473684 </v>
   <v>       0.00000000       0.00000000       0.36842105 </v>
   <v>       0.00000000       0.00000000       0.34210526 </v>
   <v>       0.00000000       0.00000000       0.31578947 </v>
   <v>       0.00000000       0.00000000       0.28947368 </v>
   <v>       0.00000000       0.00000000       0.26315789 </v>
   <v>       0.00000000       0.00000000       0.23684211 </v>
   <v>       0.00000000       0.00000000       0.21052632 </v>
   <v>       0.00000000       0.00000000       0.18421053 </v>
   <v>       0.00000000       0.00000000       0.15789474 </v>
   <v>       0.00000000       0.00000000       0.13157895 </v>
   <v>       0.00000000       0.00000000       0.10526316 </v>
   <v>       0.00000000       0.00000000       0.07894737 </v>
   <v>       0.00000000       0.00000000       0.05263158 </v>
   <v>       0.00000000       0.00000000       0.02631579 </v>
   <v>       0.00000000       0.00000000       0.00000000 </v>
  </varray>
  <varray name="weights" >
   <v>       0.01250000 </v>
   <v>       0.01250000 </v>
   <v>       0.01250000 </v>
   <v>       0.01250000 </v>
   <v>       0.01250000 </v>
   <v>       0.01250000 </v>
   <v>       0.01250000 </v>
   <v>       0.01250000 </v>
   <v>       0.01250000 </v>
   <v>       0.01250000 </v>
   <v>       0.01250000 </v>
   <v>       0.01250000 </v>
   <v>       0.01250000 </v>
   <v>       0.01250000 </v>
   <v>       0.01250000 </v>
   <v>       0.01250000 </v>
   <v>       0.01250000 </v>
   <v>       0.01250000 </v>
   <v>       0.01250000 </v>
   <v>       0.01250000 </v>
   <v>       0.01250000 </v>
   <v>       0.01250000 </v>
   <v>       0.01250000 </v>
   <v>       0.01250000 </v>
   <v>       0.01250000 </v>
   <v>       0.01250000 </v>
   <v>       0.01250000 </v>
   <v>       0.01250000 </v>
   <v>       0.01250000 </v>
   <v>       0.01250000 </v>
   <v>       0.01250000 </v>
   <v>       0.01250000 </v>
   <v>       0.01250000 </v>
   <v>       0.01250000 </v>
   <v>       0.01250000 </v>
   <v>       0.01250000 </v>
   <v>       0.01250000 </v>
   <v>       0.01250000 </v>
   <v>       0.01250000 </v>
   <v>       0.01250000 </v>
   <v>       0.01250000 </v>
   <v>       0.01250000 </v>
   <v>       0.01250000 </v>
   <v>       0.01250000 </v>
   <v>       0.01250000 </v>
   <v>       0.01250000 </v>
   <v>       0.01250000 </v>
   <v>       0.01250000 </v>
   <v>       0.01250000 </v>
   <v>       0.01250000 </v>
   <v>       0.01250000 </v>
   <v>       0.01250000 </v>
   <v>       0.01250000 </v>
   <v>       0.01250000 </v>
   <v>       0.01250000 </v>
   <v>       0.01250000 </v>
   <v>       0.01250000 </v>
   <v>       0.01250000 </v>
   <v>       0.01250000 </v>
   <v>       0.01250000 </v>
   <v>       0.01250000 </v>
   <v>       0.01250000 </v>
   <v>       0.01250000 </v>
   <v>       0.01250000 </v>
   <v>       0.01250000 </v>
   <v>       0.01250000 </v>
   <v>       0.01250000 </v>
   <v>       0.01250000 </v>
   <v>       0.01250000 </v>
   <v>       0.01250000 </v>
   <v>       0.01250000 </v>
   <v>       0.01250000 </v>
   <v>       0.01250000 </v>
   <v>       0.01250000 </v>
   <v>       0.01250000 </v>
   <v>       0.01250000 </v>
   <v>       0.01250000 </v>
   <v>       0.01250000 </v>
   <v>       0.01250000 </v>
   <v>       0.01250000 </v>
  </varray>
 </kpoints>
 <parameters>
  <separator name="general" >
   <i type="string" name="SYSTEM">unknown system</i>
   <i type="logical" name="LCOMPAT"> F  </i>
  </separator>
  <separator name="electronic" >
   <i type="string" name="PREC">normal</i>
   <i name="ENMAX">    500.00000000</i>
   <i name="ENAUG">    351.16500000</i>
   <i name="EDIFF">      0.00000100</i>
   <i type="int" name="IALGO">    38</i>
   <i type="int" name="IWAVPR">    10</i>
   <i type="int" name="NBANDS">   736</i>
   <i name="NELECT">   1224.00000000</i>
   <i type="int" name="TURBO">     0</i>
   <i type="int" name="IRESTART">     0</i>
   <i type="int" name="NREBOOT">     0</i>
   <i type="int" name="NMIN">     0</i>
   <i name="EREF">      0.00000000</i>
   <separator name="electronic smearing" >
    <i type="int" name="ISMEAR">     0</i>
    <i name="SIGMA">      0.01000000</i>
    <i name="KSPACING">      0.50000000</i>
    <i type="logical" name="KGAMMA"> T  </i>
   </separator>
   <separator name="electronic projectors" >
    <i type="logical" name="LREAL"> T  </i>
    <v name="ROPT">     -0.00050000     -0.00050000</v>
    <i type="int" name="LMAXPAW">  -100</i>
    <i type="int" name="LMAXMIX">     2</i>
    <i type="logical" name="NLSPLINE"> F  </i>
   </separator>
   <separator name="electronic startup" >
    <i type="int" name="ISTART">     0</i>
    <i type="int" name="ICHARG">    11</i>
    <i type="int" name="INIWAV">     1</i>
   </separator>
   <separator name="electronic spin" >
    <i type="int" name="ISPIN">     1</i>
    <i type="logical" name="LNONCOLLINEAR"> F  </i>
    <v name="MAGMOM">      1.00000000      1.00000000      1.00000000      1.00000000      1.00000000      1.00000000      1.00000000      1.00000000      1.00000000      1.00000000      1.00000000      1.00000000      1.00000000      1.00000000      1.00000000      1.00000000      1.00000000      1.00000000      1.00000000      1.00000000
      1.00000000      1.00000000      1.00000000      1.00000000      1.00000000      1.00000000      1.00000000      1.00000000      1.00000000      1.00000000      1.00000000      1.00000000      1.00000000      1.00000000      1.00000000      1.00000000      1.00000000      1.00000000      1.00000000      1.00000000
      1.00000000      1.00000000      1.00000000      1.00000000      1.00000000      1.00000000      1.00000000      1.00000000      1.00000000      1.00000000      1.00000000      1.00000000      1.00000000      1.00000000      1.00000000      1.00000000      1.00000000      1.00000000      1.00000000      1.00000000
      1.00000000      1.00000000      1.00000000      1.00000000      1.00000000      1.00000000      1.00000000      1.00000000      1.00000000      1.00000000      1.00000000      1.00000000      1.00000000      1.00000000      1.00000000      1.00000000      1.00000000      1.00000000      1.00000000      1.00000000
      1.00000000      1.00000000      1.00000000      1.00000000      1.00000000      1.00000000      1.00000000      1.00000000      1.00000000      1.00000000      1.00000000      1.00000000      1.00000000      1.00000000      1.00000000      1.00000000      1.00000000      1.00000000      1.00000000      1.00000000
      1.00000000      1.00000000      1.00000000      1.00000000      1.00000000      1.00000000      1.00000000      1.00000000      1.00000000      1.00000000      1.00000000      1.00000000      1.00000000      1.00000000      1.00000000      1.00000000      1.00000000      1.00000000      1.00000000      1.00000000
      1.00000000      1.00000000      1.00000000      1.00000000      1.00000000      1.00000000      1.00000000      1.00000000      1.00000000      1.00000000      1.00000000      1.00000000      1.00000000      1.00000000      1.00000000      1.00000000      1.00000000      1.00000000      1.00000000      1.00000000
      1.00000000      1.00000000      1.00000000      1.00000000      1.00000000      1.00000000      1.00000000      1.00000000      1.00000000      1.00000000      1.00000000      1.00000000      1.00000000      1.00000000      1.00000000      1.00000000      1.00000000      1.00000000      1.00000000      1.00000000
      1.00000000      1.00000000      1.00000000      1.00000000      1.00000000      1.00000000      1.00000000      1.00000000      1.00000000      1.00000000      1.00000000      1.00000000      1.00000000      1.00000000      1.00000000      1.00000000      1.00000000      1.00000000      1.00000000      1.00000000
      1.00000000      1.00000000      1.00000000      1.00000000      1.00000000      1.00000000      1.00000000      1.00000000      1.00000000      1.00000000      1.00000000      1.00000000      1.00000000      1.00000000      1.00000000      1.00000000      1.00000000      1.00000000      1.00000000      1.00000000
      1.00000000      1.00000000      1.00000000      1.00000000</v>
    <i name="NUPDOWN">     -1.00000000</i>
    <i type="logical" name="LSORBIT"> F  </i>
    <v name="SAXIS">      0.00000000      0.00000000      1.00000000</v>
    <i type="logical" name="LSPIRAL"> F  </i>
    <v name="QSPIRAL">      0.00000000      0.00000000      0.00000000</v>
    <i type="logical" name="LZEROZ"> F  </i>
   </separator>
   <separator name="electronic exchange-correlation" >
    <i type="logical" name="LASPH"> T  </i>
    <i type="logical" name="LMETAGGA"> F  </i>
   </separator>
   <separator name="electronic convergence" >
    <i type="int" name="NELM">   100</i>
    <i type="int" name="NELMDL">    -5</i>
    <i type="int" name="NELMIN">     2</i>
    <i name="ENINI">    500.00000000</i>
    <separator name="electronic convergence detail" >
     <i type="logical" name="LDIAG"> T  </i>
     <i type="logical" name="LSUBROT"> F  </i>
     <i name="WEIMIN">      0.00000000</i>
     <i name="EBREAK">      0.00000000</i>
     <i name="DEPER">      0.30000000</i>
     <i type="int" name="NRMM">     4</i>
     <i name="TIME">      0.40000000</i>
    </separator>
   </separator>
   <separator name="electronic mixer" >
    <i name="AMIX">      0.40000000</i>
    <i name="BMIX">      1.00000000</i>
    <i name="AMIN">      0.10000000</i>
    <i name="AMIX_MAG">      1.60000000</i>
    <i name="BMIX_MAG">      1.00000000</i>
    <separator name="electronic mixer details" >
     <i type="int" name="IMIX">     4</i>
     <i type="logical" name="MIXFIRST"> F  </i>
     <i type="int" name="MAXMIX">   -45</i>
     <i name="WC">    100.00000000</i>
     <i type="int" name="INIMIX">     1</i>
     <i type="int" name="MIXPRE">     1</i>
     <i type="int" name="MREMOVE">     5</i>
    </separator>
   </separator>
   <separator name="electronic dipolcorrection" >
    <i type="logical" name="LDIPOL"> F  </i>
    <i type="logical" name="LMONO"> F  </i>
    <i type="int" name="IDIPOL">     0</i>
    <i name="EPSILON">      1.00000000</i>
    <v name="DIPOL">   -100.00000000   -100.00000000   -100.00000000</v>
    <i name="EFIELD">      0.00000000</i>
   </separator>
  </separator>
  <separator name="grids" >
   <i type="int" name="NGX">   500</i>
   <i type="int" name="NGY">    40</i>
   <i type="int" name="NGZ">    64</i>
   <i type="int" name="NGXF">  1000</i>
   <i type="int" name="NGYF">    80</i>
   <i type="int" name="NGZF">   128</i>
   <i type="logical" name="ADDGRID"> F  </i>
  </separator>
  <separator name="ionic" >
   <i type="int" name="NSW">     0</i>
   <i type="int" name="IBRION">    -1</i>
   <i type="int" name="MDALGO">     0</i>
   <i type="int" name="ISIF">     2</i>
   <i name="PSTRESS">      0.00000000</i>
   <i name="EDIFFG">     -0.01000000</i>
   <i type="int" name="NFREE">     0</i>
   <i name="POTIM">      0.30000000</i>
   <i name="SMASS">     -3.00000000</i>
   <i name="SCALEE">      1.00000000</i>
  </separator>
  <separator name="ionic md" >
   <i name="TEBEG">      0.00010000</i>
   <i name="TEEND">      0.00010000</i>
   <i type="int" name="NBLOCK">     1</i>
   <i type="int" name="KBLOCK">     1</i>
   <i type="int" name="NPACO">   256</i>
   <i name="APACO">     16.00000000</i>
  </separator>
  <separator name="symmetry" >
   <i type="int" name="ISYM">     2</i>
   <i name="SYMPREC">      0.00001000</i>
  </separator>
  <separator name="dos" >
   <i type="int" name="LORBIT">     0</i>
   <v name="RWIGS">     -1.00000000     -1.00000000</v>
   <i type="int" name="NEDOS">   301</i>
   <i name="EMIN">     10.00000000</i>
   <i name="EMAX">    -10.00000000</i>
   <i name="EFERMI">      0.00000000</i>
  </separator>
  <separator name="writing" >
   <i type="int" name="NWRITE">     2</i>
   <i type="logical" name="LWAVE"> T  </i>
   <i type="logical" name="LDOWNSAMPLE"> F  </i>
   <i type="logical" name="LCHARG"> T  </i>
   <i type="logical" name="LPARD"> F  </i>
   <i type="logical" name="LVTOT"> F  </i>
   <i type="logical" name="LVHAR"> F  </i>
   <i type="logical" name="LELF"> F  </i>
   <i type="logical" name="LOPTICS"> F  </i>
   <v name="STM">      0.00000000      0.00000000      0.00000000      0.00000000      0.00000000      0.00000000      0.00000000</v>
  </separator>
  <separator name="performance" >
   <i type="int" name="NPAR">     8</i>
   <i type="int" name="NSIM">     4</i>
   <i type="int" name="NBLK">    -1</i>
   <i type="logical" name="LPLANE"> T  </i>
   <i type="logical" name="LSCALAPACK"> T  </i>
   <i type="logical" name="LSCAAWARE"> F  </i>
   <i type="logical" name="LSCALU"> F  </i>
   <i type="logical" name="LASYNC"> F  </i>
   <i type="logical" name="LORBITALREAL"> F  </i>
  </separator>
  <separator name="miscellaneous" >
   <i type="int" name="IDIOT">     3</i>
   <i type="int" name="ISPECIAL">     0</i>
   <i type="logical" name="LMUSIC"> F  </i>
   <v name="POMASS">    137.32700000     28.08500000</v>
   <v name="DARWINR">      0.00000000      0.00000000</v>
   <v name="DARWINV">      1.00000000      1.00000000</v>
   <i type="logical" name="LCORR"> T  </i>
  </separator>
  <i type="logical" name="GGA_COMPAT"> T  </i>
  <i type="logical" name="LBERRY"> F  </i>
  <i type="int" name="ICORELEVEL">     0</i>
  <i type="logical" name="LDAU"> F  </i>
  <i type="int" name="I_CONSTRAINED_M">     0</i>
  <separator name="electronic exchange-correlation" >
   <i type="string" name="GGA">MK</i>
   <i type="int" name="VOSKOWN">     0</i>
   <i type="logical" name="LHFCALC"> F  </i>
   <i type="string" name="PRECFOCK"></i>
   <i type="logical" name="LSYMGRAD"> F  </i>
   <i type="logical" name="LHFONE"> F  </i>
   <i type="logical" name="LRHFCALC"> F  </i>
   <i type="logical" name="LTHOMAS"> F  </i>
   <i type="logical" name="LMODELHF"> F  </i>
   <i name="ENCUT4O">     -1.00000000</i>
   <i type="int" name="EXXOEP">     0</i>
   <i type="int" name="FOURORBIT">     0</i>
   <i name="AEXX">      0.00000000</i>
   <i name="HFALPHA">      0.00000000</i>
   <i name="MCALPHA">      0.00000000</i>
   <i name="ALDAX">      1.00000000</i>
   <i name="AGGAX">      1.00000000</i>
   <i name="ALDAC">      1.00000000</i>
   <i name="AGGAC">      0.00000000</i>
   <i type="int" name="NKREDX">     1</i>
   <i type="int" name="NKREDY">     1</i>
   <i type="int" name="NKREDZ">     1</i>
   <i type="logical" name="SHIFTRED"> F  </i>
   <i type="logical" name="ODDONLY"> F  </i>
   <i type="logical" name="EVENONLY"> F  </i>
   <i type="int" name="LMAXFOCK">     0</i>
   <i type="int" name="NMAXFOCKAE">     0</i>
   <i type="logical" name="LFOCKAEDFT"> F  </i>
   <i name="HFSCREEN">      0.00000000</i>
   <i name="HFSCREENC">      0.00000000</i>
   <i type="int" name="NBANDSGWLOW">     0</i>
  </separator>
  <separator name="vdW DFT" >
   <i type="logical" name="LUSE_VDW"> T  </i>
   <i name="Zab_VDW">     -1.88670000</i>
   <i name="PARAM1">      0.12340000</i>
   <i name="PARAM2">      0.71135700</i>
   <i name="PARAM3">      0.00000000</i>
  </separator>
  <separator name="model GW" >
   <i type="int" name="MODEL_GW">     0</i>
   <i name="MODEL_EPS0">     20.53371341</i>
   <i name="MODEL_ALPHA">      1.00000000</i>
  </separator>
  <separator name="linear response parameters" >
   <i type="logical" name="LEPSILON"> F  </i>
   <i type="logical" name="LRPA"> F  </i>
   <i type="logical" name="LNABLA"> F  </i>
   <i type="logical" name="LVEL"> F  </i>
   <i type="int" name="KINTER">     0</i>
   <i name="CSHIFT">      0.10000000</i>
   <i name="OMEGAMAX">     -1.00000000</i>
   <i name="DEG_THRESHOLD">      0.00200000</i>
   <i name="RTIME">     -0.10000000</i>
   <i name="WPLASMAI">      0.00000000</i>
   <v name="DFIELD">      0.00000000      0.00000000      0.00000000</v>
   <v name="WPLASMA">      0.00000000      0.00000000      0.00000000      0.00000000      0.00000000      0.00000000      0.00000000      0.00000000      0.00000000</v>
  </separator>
  <separator name="orbital magnetization" >
   <i type="logical" name="NUCIND"> F  </i>
   <v name="MAGPOS">      0.00000000      0.00000000      0.00000000</v>
   <i type="logical" name="LNICSALL"> T  </i>
   <i type="logical" name="ORBITALMAG"> F  </i>
   <i type="logical" name="LMAGBLOCH"> F  </i>
   <i type="logical" name="LCHIMAG"> F  </i>
   <i type="logical" name="LGAUGE"> T  </i>
   <i type="int" name="MAGATOM">     0</i>
   <v name="MAGDIPOL">      0.00000000      0.00000000      0.00000000</v>
   <v name="AVECCONST">      0.00000000      0.00000000      0.00000000</v>
  </separator>
  <separator name="response functions" >
   <i type="logical" name="LADDER"> F  </i>
   <i type="logical" name="LRPAFORCE"> F  </i>
   <i type="logical" name="LFXC"> F  </i>
   <i type="logical" name="LHARTREE"> T  </i>
   <i type="int" name="IBSE">     0</i>
   <v type="int" name="KPOINT">    -1     0     0     0</v>
   <i type="logical" name="LTCTE"> F  </i>
   <i type="logical" name="LTETE"> F  </i>
   <i type="logical" name="LTRIPLET"> F  </i>
   <i type="logical" name="LFXCEPS"> F  </i>
   <i type="logical" name="LFXHEG"> F  </i>
   <i type="int" name="NATURALO">     2</i>
   <i type="logical" name="L2ORDER"> F  </i>
   <i type="logical" name="LMP2LT"> F  </i>
   <i type="logical" name="LUSEW"> F  </i>
   <i name="ENCUTGW">     -2.00000000</i>
   <i name="ENCUTGWSOFT">     -2.00000000</i>
   <i name="ENCUTLF">     -1.00000000</i>
   <i type="int" name="LMAXMP2">    -1</i>
   <i name="SCISSOR">      0.00000000</i>
   <i type="int" name="NOMEGA">     0</i>
   <i type="int" name="NOMEGAR">     0</i>
   <i type="int" name="NBANDSGW">    -1</i>
   <i type="int" name="NBANDSO">    -1</i>
   <i type="int" name="NBANDSV">    -1</i>
   <i type="int" name="NELM">   100</i>
   <i type="int" name="NELMHF">     1</i>
   <i type="int" name="DIM">     3</i>
   <i type="int" name="ANTIRES">     0</i>
   <i name="OMEGAMAX">    -30.00000000</i>
   <i name="OMEGAMIN">    -30.00000000</i>
   <i name="OMEGATL">   -200.00000000</i>
   <i type="int" name="OMEGAGRID">   140</i>
   <i name="CSHIFT">     -0.10000000</i>
   <i type="logical" name="SELFENERGY"> F  </i>
   <i type="logical" name="LSPECTRAL"> F  </i>
   <i type="logical" name="LSPECTRALGW"> F  </i>
   <i type="logical" name="LSINGLES"> F  </i>
   <i type="logical" name="LFERMIGW"> F  </i>
   <i type="logical" name="ODDONLYGW"> F  </i>
   <i type="logical" name="EVENONLYGW"> F  </i>
   <i type="int" name="NKREDLFX">     1</i>
   <i type="int" name="NKREDLFY">     1</i>
   <i type="int" name="NKREDLFZ">     1</i>
   <i type="int" name="MAXMEM">  2800</i>
   <i type="int" name="TELESCOPE">     0</i>
   <i type="int" name="TAUPAR">     1</i>
   <i type="int" name="OMEGAPAR">    -1</i>
   <i name="LAMBDA">      1.00000000</i>
  </separator>
  <separator name="External order field" >
   <i name="OFIELD_KAPPA">      0.00000000</i>
   <v name="OFIELD_K">      0.00000000      0.00000000      0.00000000</v>
   <i name="OFIELD_Q6_NEAR">      0.00000000</i>
   <i name="OFIELD_Q6_FAR">      0.00000000</i>
   <i name="OFIELD_A">      0.00000000</i>
  </separator>
 </parameters>
 <atominfo>
  <atoms>     204 </atoms>
  <types>       2 </types>
  <array name="atoms" >
   <dimension dim="1">ion</dimension>
   <field type="string">element</field>
   <field type="int">atomtype</field>
   <set>
    <rc><c>Ba</c><c>   1</c></rc>
    <rc><c>Ba</c><c>   1</c></rc>
    <rc><c>Ba</c><c>   1</c></rc>
    <rc><c>Ba</c><c>   1</c></rc>
    <rc><c>Ba</c><c>   1</c></rc>
    <rc><c>Ba</c><c>   1</c></rc>
    <rc><c>Ba</c><c>   1</c></rc>
    <rc><c>Ba</c><c>   1</c></rc>
    <rc><c>Ba</c><c>   1</c></rc>
    <rc><c>Ba</c><c>   1</c></rc>
    <rc><c>Ba</c><c>   1</c></rc>
    <rc><c>Ba</c><c>   1</c></rc>
    <rc><c>Ba</c><c>   1</c></rc>
    <rc><c>Ba</c><c>   1</c></rc>
    <rc><c>Ba</c><c>   1</c></rc>
    <rc><c>Ba</c><c>   1</c></rc>
    <rc><c>Ba</c><c>   1</c></rc>
    <rc><c>Ba</c><c>   1</c></rc>
    <rc><c>Ba</c><c>   1</c></rc>
    <rc><c>Ba</c><c>   1</c></rc>
    <rc><c>Ba</c><c>   1</c></rc>
    <rc><c>Ba</c><c>   1</c></rc>
    <rc><c>Ba</c><c>   1</c></rc>
    <rc><c>Ba</c><c>   1</c></rc>
    <rc><c>Ba</c><c>   1</c></rc>
    <rc><c>Ba</c><c>   1</c></rc>
    <rc><c>Ba</c><c>   1</c></rc>
    <rc><c>Ba</c><c>   1</c></rc>
    <rc><c>Ba</c><c>   1</c></rc>
    <rc><c>Ba</c><c>   1</c></rc>
    <rc><c>Ba</c><c>   1</c></rc>
    <rc><c>Ba</c><c>   1</c></rc>
    <rc><c>Ba</c><c>   1</c></rc>
    <rc><c>Ba</c><c>   1</c></rc>
    <rc><c>Ba</c><c>   1</c></rc>
    <rc><c>Ba</c><c>   1</c></rc>
    <rc><c>Ba</c><c>   1</c></rc>
    <rc><c>Ba</c><c>   1</c></rc>
    <rc><c>Ba</c><c>   1</c></rc>
    <rc><c>Ba</c><c>   1</c></rc>
    <rc><c>Ba</c><c>   1</c></rc>
    <rc><c>Ba</c><c>   1</c></rc>
    <rc><c>Ba</c><c>   1</c></rc>
    <rc><c>Ba</c><c>   1</c></rc>
    <rc><c>Ba</c><c>   1</c></rc>
    <rc><c>Ba</c><c>   1</c></rc>
    <rc><c>Ba</c><c>   1</c></rc>
    <rc><c>Ba</c><c>   1</c></rc>
    <rc><c>Ba</c><c>   1</c></rc>
    <rc><c>Ba</c><c>   1</c></rc>
    <rc><c>Ba</c><c>   1</c></rc>
    <rc><c>Ba</c><c>   1</c></rc>
    <rc><c>Ba</c><c>   1</c></rc>
    <rc><c>Ba</c><c>   1</c></rc>
    <rc><c>Ba</c><c>   1</c></rc>
    <rc><c>Ba</c><c>   1</c></rc>
    <rc><c>Ba</c><c>   1</c></rc>
    <rc><c>Ba</c><c>   1</c></rc>
    <rc><c>Ba</c><c>   1</c></rc>
    <rc><c>Ba</c><c>   1</c></rc>
    <rc><c>Ba</c><c>   1</c></rc>
    <rc><c>Ba</c><c>   1</c></rc>
    <rc><c>Ba</c><c>   1</c></rc>
    <rc><c>Ba</c><c>   1</c></rc>
    <rc><c>Ba</c><c>   1</c></rc>
    <rc><c>Ba</c><c>   1</c></rc>
    <rc><c>Ba</c><c>   1</c></rc>
    <rc><c>Ba</c><c>   1</c></rc>
    <rc><c>Si</c><c>   2</c></rc>
    <rc><c>Si</c><c>   2</c></rc>
    <rc><c>Si</c><c>   2</c></rc>
    <rc><c>Si</c><c>   2</c></rc>
    <rc><c>Si</c><c>   2</c></rc>
    <rc><c>Si</c><c>   2</c></rc>
    <rc><c>Si</c><c>   2</c></rc>
    <rc><c>Si</c><c>   2</c></rc>
    <rc><c>Si</c><c>   2</c></rc>
    <rc><c>Si</c><c>   2</c></rc>
    <rc><c>Si</c><c>   2</c></rc>
    <rc><c>Si</c><c>   2</c></rc>
    <rc><c>Si</c><c>   2</c></rc>
    <rc><c>Si</c><c>   2</c></rc>
    <rc><c>Si</c><c>   2</c></rc>
    <rc><c>Si</c><c>   2</c></rc>
    <rc><c>Si</c><c>   2</c></rc>
    <rc><c>Si</c><c>   2</c></rc>
    <rc><c>Si</c><c>   2</c></rc>
    <rc><c>Si</c><c>   2</c></rc>
    <rc><c>Si</c><c>   2</c></rc>
    <rc><c>Si</c><c>   2</c></rc>
    <rc><c>Si</c><c>   2</c></rc>
    <rc><c>Si</c><c>   2</c></rc>
    <rc><c>Si</c><c>   2</c></rc>
    <rc><c>Si</c><c>   2</c></rc>
    <rc><c>Si</c><c>   2</c></rc>
    <rc><c>Si</c><c>   2</c></rc>
    <rc><c>Si</c><c>   2</c></rc>
    <rc><c>Si</c><c>   2</c></rc>
    <rc><c>Si</c><c>   2</c></rc>
    <rc><c>Si</c><c>   2</c></rc>
    <rc><c>Si</c><c>   2</c></rc>
    <rc><c>Si</c><c>   2</c></rc>
    <rc><c>Si</c><c>   2</c></rc>
    <rc><c>Si</c><c>   2</c></rc>
    <rc><c>Si</c><c>   2</c></rc>
    <rc><c>Si</c><c>   2</c></rc>
    <rc><c>Si</c><c>   2</c></rc>
    <rc><c>Si</c><c>   2</c></rc>
    <rc><c>Si</c><c>   2</c></rc>
    <rc><c>Si</c><c>   2</c></rc>
    <rc><c>Si</c><c>   2</c></rc>
    <rc><c>Si</c><c>   2</c></rc>
    <rc><c>Si</c><c>   2</c></rc>
    <rc><c>Si</c><c>   2</c></rc>
    <rc><c>Si</c><c>   2</c></rc>
    <rc><c>Si</c><c>   2</c></rc>
    <rc><c>Si</c><c>   2</c></rc>
    <rc><c>Si</c><c>   2</c></rc>
    <rc><c>Si</c><c>   2</c></rc>
    <rc><c>Si</c><c>   2</c></rc>
    <rc><c>Si</c><c>   2</c></rc>
    <rc><c>Si</c><c>   2</c></rc>
    <rc><c>Si</c><c>   2</c></rc>
    <rc><c>Si</c><c>   2</c></rc>
    <rc><c>Si</c><c>   2</c></rc>
    <rc><c>Si</c><c>   2</c></rc>
    <rc><c>Si</c><c>   2</c></rc>
    <rc><c>Si</c><c>   2</c></rc>
    <rc><c>Si</c><c>   2</c></rc>
    <rc><c>Si</c><c>   2</c></rc>
    <rc><c>Si</c><c>   2</c></rc>
    <rc><c>Si</c><c>   2</c></rc>
    <rc><c>Si</c><c>   2</c></rc>
    <rc><c>Si</c><c>   2</c></rc>
    <rc><c>Si</c><c>   2</c></rc>
    <rc><c>Si</c><c>   2</c></rc>
    <rc><c>Si</c><c>   2</c></rc>
    <rc><c>Si</c><c>   2</c></rc>
    <rc><c>Si</c><c>   2</c></rc>
    <rc><c>Si</c><c>   2</c></rc>
    <rc><c>Si</c><c>   2</c></rc>
    <rc><c>Si</c><c>   2</c></rc>
    <rc><c>Si</c><c>   2</c></rc>
    <rc><c>Si</c><c>   2</c></rc>
    <rc><c>Si</c><c>   2</c></rc>
    <rc><c>Si</c><c>   2</c></rc>
    <rc><c>Si</c><c>   2</c></rc>
    <rc><c>Si</c><c>   2</c></rc>
    <rc><c>Si</c><c>   2</c></rc>
    <rc><c>Si</c><c>   2</c></rc>
    <rc><c>Si</c><c>   2</c></rc>
    <rc><c>Si</c><c>   2</c></rc>
    <rc><c>Si</c><c>   2</c></rc>
    <rc><c>Si</c><c>   2</c></rc>
    <rc><c>Si</c><c>   2</c></rc>
    <rc><c>Si</c><c>   2</c></rc>
    <rc><c>Si</c><c>   2</c></rc>
    <rc><c>Si</c><c>   2</c></rc>
    <rc><c>Si</c><c>   2</c></rc>
    <rc><c>Si</c><c>   2</c></rc>
    <rc><c>Si</c><c>   2</c></rc>
    <rc><c>Si</c><c>   2</c></rc>
    <rc><c>Si</c><c>   2</c></rc>
    <rc><c>Si</c><c>   2</c></rc>
    <rc><c>Si</c><c>   2</c></rc>
    <rc><c>Si</c><c>   2</c></rc>
    <rc><c>Si</c><c>   2</c></rc>
    <rc><c>Si</c><c>   2</c></rc>
    <rc><c>Si</c><c>   2</c></rc>
    <rc><c>Si</c><c>   2</c></rc>
    <rc><c>Si</c><c>   2</c></rc>
    <rc><c>Si</c><c>   2</c></rc>
    <rc><c>Si</c><c>   2</c></rc>
    <rc><c>Si</c><c>   2</c></rc>
    <rc><c>Si</c><c>   2</c></rc>
    <rc><c>Si</c><c>   2</c></rc>
    <rc><c>Si</c><c>   2</c></rc>
    <rc><c>Si</c><c>   2</c></rc>
    <rc><c>Si</c><c>   2</c></rc>
    <rc><c>Si</c><c>   2</c></rc>
    <rc><c>Si</c><c>   2</c></rc>
    <rc><c>Si</c><c>   2</c></rc>
    <rc><c>Si</c><c>   2</c></rc>
    <rc><c>Si</c><c>   2</c></rc>
    <rc><c>Si</c><c>   2</c></rc>
    <rc><c>Si</c><c>   2</c></rc>
    <rc><c>Si</c><c>   2</c></rc>
    <rc><c>Si</c><c>   2</c></rc>
    <rc><c>Si</c><c>   2</c></rc>
    <rc><c>Si</c><c>   2</c></rc>
    <rc><c>Si</c><c>   2</c></rc>
    <rc><c>Si</c><c>   2</c></rc>
    <rc><c>Si</c><c>   2</c></rc>
    <rc><c>Si</c><c>   2</c></rc>
    <rc><c>Si</c><c>   2</c></rc>
    <rc><c>Si</c><c>   2</c></rc>
    <rc><c>Si</c><c>   2</c></rc>
    <rc><c>Si</c><c>   2</c></rc>
    <rc><c>Si</c><c>   2</c></rc>
    <rc><c>Si</c><c>   2</c></rc>
    <rc><c>Si</c><c>   2</c></rc>
    <rc><c>Si</c><c>   2</c></rc>
    <rc><c>Si</c><c>   2</c></rc>
    <rc><c>Si</c><c>   2</c></rc>
   </set>
  </array>
  <array name="atomtypes" >
   <dimension dim="1">type</dimension>
   <field type="int">atomspertype</field>
   <field type="string">element</field>
   <field>mass</field>
   <field>valence</field>
   <field type="string">pseudopotential</field>
   <set>
    <rc><c>  68</c><c>Ba</c><c>    137.32700000</c><c>     10.00000000</c><c> PAW_PBE Ba_sv 06Sep2000                </c></rc>
    <rc><c> 136</c><c>Si</c><c>     28.08500000</c><c>      4.00000000</c><c> PAW_PBE Si 05Jan2001                   </c></rc>
   </set>
  </array>
 </atominfo>
 <structure name="initialpos" >
  <crystal>
   <varray name="basis" >
    <v>      90.75760902       0.00000000       0.00000000 </v>
    <v>       0.00000000       6.70322420       0.00000000 </v>
    <v>       0.00000000       0.00000000      11.47571150 </v>
   </varray>
   <i name="volume">   6981.46255890 </i>
   <varray name="rec_basis" >
    <v>       0.01101836       0.00000000       0.00000000 </v>
    <v>       0.00000000       0.14918194       0.00000000 </v>
    <v>       0.00000000       0.00000000       0.08714057 </v>
   </varray>
  </crystal>
  <varray name="positions" >
   <v>       0.00367357       0.25000000       0.70108199 </v>
   <v>       0.10008928       0.25000000       0.69051876 </v>
   <v>       0.19830642       0.25000000       0.69137569 </v>
   <v>       0.29667663       0.25000000       0.69145392 </v>
   <v>       0.39505411       0.25000000       0.69156718 </v>
   <v>       0.49346788       0.25000000       0.69162319 </v>
   <v>       0.59185358       0.25000000       0.69137471 </v>
   <v>       0.69024803       0.25000000       0.69122655 </v>
   <v>       0.78969448       0.25000000       0.69288581 </v>
   <v>       0.09682791       0.75000002       0.30803995 </v>
   <v>       0.19518790       0.75000002       0.30837971 </v>
   <v>       0.29354600       0.75000002       0.30857279 </v>
   <v>       0.39194016       0.75000002       0.30859133 </v>
   <v>       0.49034327       0.75000002       0.30860313 </v>
   <v>       0.58870280       0.75000002       0.30847906 </v>
   <v>       0.68710015       0.75000002       0.30852039 </v>
   <v>       0.78518101       0.75000002       0.30848508 </v>
   <v>       0.04651519       0.75000002       0.19288575 </v>
   <v>       0.14596165       0.75000002       0.19122649 </v>
   <v>       0.24435610       0.75000002       0.19137465 </v>
   <v>       0.34274180       0.75000002       0.19162313 </v>
   <v>       0.44115553       0.75000002       0.19156712 </v>
   <v>       0.53953303       0.75000002       0.19145386 </v>
   <v>       0.63790324       0.75000002       0.19137563 </v>
   <v>       0.73612037       0.75000002       0.19051870 </v>
   <v>       0.83253608       0.75000002       0.20108193 </v>
   <v>       0.05102860       0.25000000       0.80848512 </v>
   <v>       0.14910954       0.25000000       0.80852043 </v>
   <v>       0.24750686       0.25000000       0.80847911 </v>
   <v>       0.34586638       0.25000000       0.80860317 </v>
   <v>       0.44426951       0.25000000       0.80859138 </v>
   <v>       0.54266367       0.25000000       0.80857283 </v>
   <v>       0.64102176       0.25000000       0.80837975 </v>
   <v>       0.73938171       0.25000000       0.80803999 </v>
   <v>       0.02103360       0.75000002       0.91227457 </v>
   <v>       0.11444615       0.75000002       0.90594164 </v>
   <v>       0.21256935       0.75000002       0.90575638 </v>
   <v>       0.31093693       0.75000002       0.90598507 </v>
   <v>       0.40932071       0.75000002       0.90605107 </v>
   <v>       0.50775529       0.75000002       0.90601348 </v>
   <v>       0.60611157       0.75000002       0.90584782 </v>
   <v>       0.70441894       0.75000002       0.90491529 </v>
   <v>       0.80219322       0.75000002       0.89556719 </v>
   <v>       0.08215708       0.25000000       0.09308656 </v>
   <v>       0.18091035       0.25000000       0.09402823 </v>
   <v>       0.27930666       0.25000000       0.09403291 </v>
   <v>       0.37769924       0.25000000       0.09416276 </v>
   <v>       0.47608529       0.25000000       0.09409901 </v>
   <v>       0.57443849       0.25000000       0.09396690 </v>
   <v>       0.67277481       0.25000000       0.09367702 </v>
   <v>       0.77090856       0.25000000       0.09534369 </v>
   <v>       0.03401639       0.25000000       0.39556727 </v>
   <v>       0.13179076       0.25000000       0.40491537 </v>
   <v>       0.23009807       0.25000000       0.40584790 </v>
   <v>       0.32845441       0.25000000       0.40601357 </v>
   <v>       0.42688897       0.25000000       0.40605115 </v>
   <v>       0.52527272       0.25000000       0.40598516 </v>
   <v>       0.62364030       0.25000000       0.40575646 </v>
   <v>       0.72176345       0.25000000       0.40594173 </v>
   <v>       0.81517601       0.25000000       0.41227465 </v>
   <v>       0.06530110       0.75000002       0.59534367 </v>
   <v>       0.16343481       0.75000002       0.59367700 </v>
   <v>       0.26177123       0.75000002       0.59396688 </v>
   <v>       0.36012434       0.75000002       0.59409899 </v>
   <v>       0.45851044       0.75000002       0.59416274 </v>
   <v>       0.55690299       0.75000002       0.59403288 </v>
   <v>       0.65529929       0.75000002       0.59402821 </v>
   <v>       0.75405257       0.75000002       0.59308654 </v>
   <v>       0.01786162       0.07159338       0.14531028 </v>
   <v>       0.11715818       0.07039048       0.14569290 </v>
   <v>       0.21565160       0.07029637       0.14605631 </v>
   <v>       0.31403283       0.07031235       0.14624374 </v>
   <v>       0.41243785       0.07028426       0.14626062 </v>
   <v>       0.51081697       0.07028437       0.14630087 </v>
   <v>       0.60916360       0.07029661       0.14601125 </v>
   <v>       0.70747262       0.07029371       0.14516927 </v>
   <v>       0.80558789       0.07158081       0.14247538 </v>
   <v>       0.08001984       0.93007712       0.85429390 </v>
   <v>       0.17784093       0.92969266       0.85377118 </v>
   <v>       0.27621715       0.92965495       0.85381931 </v>
   <v>       0.37456742       0.92968879       0.85393283 </v>
   <v>       0.47301841       0.92968419       0.85399383 </v>
   <v>       0.57138490       0.92969931       0.85370520 </v>
   <v>       0.66972572       0.92973435       0.85355852 </v>
   <v>       0.76816929       0.93040581       0.85313809 </v>
   <v>       0.03062180       0.92841918       0.64247540 </v>
   <v>       0.12873707       0.92970628       0.64516929 </v>
   <v>       0.22704608       0.92970338       0.64601127 </v>
   <v>       0.32539273       0.92971562       0.64630089 </v>
   <v>       0.42377178       0.92971574       0.64626064 </v>
   <v>       0.52217685       0.92968764       0.64624376 </v>
   <v>       0.62055805       0.92970362       0.64605633 </v>
   <v>       0.71905144       0.92960951       0.64569292 </v>
   <v>       0.81834800       0.92840661       0.64531030 </v>
   <v>       0.06804037       0.06959418       0.35313809 </v>
   <v>       0.16648391       0.07026565       0.35355852 </v>
   <v>       0.26482478       0.07030068       0.35370520 </v>
   <v>       0.36319123       0.07031581       0.35399383 </v>
   <v>       0.46164222       0.07031120       0.35393283 </v>
   <v>       0.55999251       0.07034504       0.35381931 </v>
   <v>       0.65836870       0.07030733       0.35377118 </v>
   <v>       0.75618981       0.06992287       0.35429390 </v>
   <v>       0.08001984       0.56992288       0.85429390 </v>
   <v>       0.17784093       0.57030734       0.85377118 </v>
   <v>       0.27621715       0.57034505       0.85381931 </v>
   <v>       0.37456742       0.57031121       0.85393283 </v>
   <v>       0.47301841       0.57031581       0.85399383 </v>
   <v>       0.57138490       0.57030069       0.85370520 </v>
   <v>       0.66972572       0.57026565       0.85355852 </v>
   <v>       0.76816929       0.56959419       0.85313809 </v>
   <v>       0.01786162       0.42840661       0.14531028 </v>
   <v>       0.11715818       0.42960951       0.14569290 </v>
   <v>       0.21565160       0.42970362       0.14605631 </v>
   <v>       0.31403283       0.42968764       0.14624374 </v>
   <v>       0.41243785       0.42971574       0.14626062 </v>
   <v>       0.51081697       0.42971562       0.14630087 </v>
   <v>       0.60916360       0.42970338       0.14601125 </v>
   <v>       0.70747262       0.42970628       0.14516927 </v>
   <v>       0.80558789       0.42841918       0.14247538 </v>
   <v>       0.06804037       0.43040581       0.35313809 </v>
   <v>       0.16648391       0.42973435       0.35355852 </v>
   <v>       0.26482478       0.42969931       0.35370520 </v>
   <v>       0.36319123       0.42968419       0.35399383 </v>
   <v>       0.46164222       0.42968879       0.35393283 </v>
   <v>       0.55999251       0.42965495       0.35381931 </v>
   <v>       0.65836870       0.42969266       0.35377118 </v>
   <v>       0.75618981       0.43007712       0.35429390 </v>
   <v>       0.03062180       0.57158082       0.64247540 </v>
   <v>       0.12873707       0.57029372       0.64516929 </v>
   <v>       0.22704608       0.57029662       0.64601127 </v>
   <v>       0.32539273       0.57028438       0.64630089 </v>
   <v>       0.42377178       0.57028426       0.64626064 </v>
   <v>       0.52217685       0.57031236       0.64624376 </v>
   <v>       0.62055805       0.57029638       0.64605633 </v>
   <v>       0.71905144       0.57039049       0.64569292 </v>
   <v>       0.81834800       0.57159339       0.64531030 </v>
   <v>       0.00731208       0.75000002       0.61868163 </v>
   <v>       0.10660234       0.75000002       0.59118362 </v>
   <v>       0.20492249       0.75000002       0.59136442 </v>
   <v>       0.30327922       0.75000002       0.59156509 </v>
   <v>       0.40166241       0.75000002       0.59141542 </v>
   <v>       0.50005036       0.75000002       0.59154459 </v>
   <v>       0.59842409       0.75000002       0.59156164 </v>
   <v>       0.69689615       0.75000002       0.59140085 </v>
   <v>       0.79579561       0.75000002       0.58257171 </v>
   <v>       0.09009337       0.25000000       0.40799071 </v>
   <v>       0.18858444       0.25000000       0.40854445 </v>
   <v>       0.28694396       0.25000000       0.40841604 </v>
   <v>       0.38531519       0.25000000       0.40864943 </v>
   <v>       0.48376502       0.25000000       0.40863130 </v>
   <v>       0.58212507       0.25000000       0.40840511 </v>
   <v>       0.68047762       0.25000000       0.40834841 </v>
   <v>       0.77814926       0.25000000       0.40907131 </v>
   <v>       0.04041406       0.25000000       0.08257165 </v>
   <v>       0.13931348       0.25000000       0.09140078 </v>
   <v>       0.23778552       0.25000000       0.09156158 </v>
   <v>       0.33615931       0.25000000       0.09154452 </v>
   <v>       0.43454723       0.25000000       0.09141536 </v>
   <v>       0.53293044       0.25000000       0.09156503 </v>
   <v>       0.63128717       0.25000000       0.09136436 </v>
   <v>       0.72960731       0.25000000       0.09118355 </v>
   <v>       0.82889756       0.25000000       0.11868157 </v>
   <v>       0.05806042       0.75000002       0.90907135 </v>
   <v>       0.15573203       0.75000002       0.90834845 </v>
   <v>       0.25408458       0.75000002       0.90840515 </v>
   <v>       0.35244466       0.75000002       0.90863134 </v>
   <v>       0.45089445       0.75000002       0.90864947 </v>
   <v>       0.54926570       0.75000002       0.90841608 </v>
   <v>       0.64762521       0.75000002       0.90854450 </v>
   <v>       0.74611625       0.75000002       0.90799076 </v>
   <v>       0.01802404       0.25000000       0.96275410 </v>
   <v>       0.11755682       0.25000000       0.96402799 </v>
   <v>       0.21603703       0.25000000       0.96433713 </v>
   <v>       0.31439865       0.25000000       0.96449468 </v>
   <v>       0.41276791       0.25000000       0.96450867 </v>
   <v>       0.51117019       0.25000000       0.96452761 </v>
   <v>       0.60954493       0.25000000       0.96421418 </v>
   <v>       0.70788553       0.25000000       0.96348854 </v>
   <v>       0.81070500       0.25000000       0.96239765 </v>
   <v>       0.07929400       0.75000002       0.03674505 </v>
   <v>       0.17747664       0.75000002       0.03554460 </v>
   <v>       0.27582770       0.75000002       0.03558602 </v>
   <v>       0.37420686       0.75000002       0.03569292 </v>
   <v>       0.47264758       0.75000002       0.03578998 </v>
   <v>       0.57102845       0.75000002       0.03547111 </v>
   <v>       0.66941566       0.75000002       0.03533428 </v>
   <v>       0.76781665       0.75000002       0.03513257 </v>
   <v>       0.02550467       0.75000002       0.46239757 </v>
   <v>       0.12832414       0.75000002       0.46348846 </v>
   <v>       0.22666468       0.75000002       0.46421410 </v>
   <v>       0.32503944       0.75000002       0.46452753 </v>
   <v>       0.42344176       0.75000002       0.46450859 </v>
   <v>       0.52181103       0.75000002       0.46449460 </v>
   <v>       0.62017263       0.75000002       0.46433705 </v>
   <v>       0.71865283       0.75000002       0.46402791 </v>
   <v>       0.81818561       0.75000002       0.46275402 </v>
   <v>       0.06839305       0.25000000       0.53513255 </v>
   <v>       0.16679399       0.25000000       0.53533427 </v>
   <v>       0.26518119       0.25000000       0.53547110 </v>
   <v>       0.36356205       0.25000000       0.53578996 </v>
   <v>       0.46200277       0.25000000       0.53569290 </v>
   <v>       0.56038196       0.25000000       0.53558600 </v>
   <v>       0.65873304       0.25000000       0.53554458 </v>
   <v>       0.75691562       0.25000000       0.53674504 </v>
  </varray>
 </structure>
 <calculation>
  <scstep>
   <time name="dav">  422.12  423.15</time>
   <time name="total">  427.68  428.84</time>
   <energy>
    <i name="alphaZ">   3330.58302137 </i>
    <i name="ewald"> 304718.51983929 </i>
    <i name="hartreedc">-365085.10396049 </i>
    <i name="XCdc">    416.46424555 </i>
    <i name="pawpsdc">  32862.04696281 </i>
    <i name="pawaedc"> -30359.87903318 </i>
    <i name="eentropy">     -0.00309059 </i>
    <i name="bandstr">    365.49890608 </i>
    <i name="atom">  61787.78736020 </i>
    <i name="e_fr_energy">   8035.91425103 </i>
    <i name="e_wo_entrp">   8035.91734162 </i>
    <i name="e_0_energy">   8035.91579632 </i>
   </energy>
  </scstep>
  <scstep>
   <time name="dav">  523.84  525.08</time>
   <time name="total">  523.87  525.11</time>
   <energy>
    <i name="e_fr_energy">    151.65815152 </i>
    <i name="e_wo_entrp">    151.65948275 </i>
    <i name="e_0_energy">    151.65881713 </i>
   </energy>
  </scstep>
  <scstep>
   <time name="dav">  492.05  493.22</time>
   <time name="total">  492.06  493.23</time>
   <energy>
    <i name="e_fr_energy">   -768.79628709 </i>
    <i name="e_wo_entrp">   -768.79628709 </i>
    <i name="e_0_energy">   -768.79628709 </i>
   </energy>
  </scstep>
  <scstep>
   <time name="dav">  572.70  574.06</time>
   <time name="total">  572.72  574.08</time>
   <energy>
    <i name="e_fr_energy">   -819.55480509 </i>
    <i name="e_wo_entrp">   -819.55480509 </i>
    <i name="e_0_energy">   -819.55480509 </i>
   </energy>
  </scstep>
  <scstep>
   <time name="dav">  600.58  602.00</time>
   <time name="total">  600.59  602.02</time>
   <energy>
    <i name="e_fr_energy">   -821.70106040 </i>
    <i name="e_wo_entrp">   -821.70106040 </i>
    <i name="e_0_energy">   -821.70106040 </i>
   </energy>
  </scstep>
  <scstep>
   <time name="dav">  565.57  566.92</time>
   <time name="total">  565.59  566.93</time>
   <energy>
    <i name="e_fr_energy">   -821.77457128 </i>
    <i name="e_wo_entrp">   -821.77457128 </i>
    <i name="e_0_energy">   -821.77457128 </i>
   </energy>
  </scstep>
  <scstep>
   <time name="dav">  600.89  602.39</time>
   <time name="total">  600.91  602.43</time>
   <energy>
    <i name="e_fr_energy">   -821.77716130 </i>
    <i name="e_wo_entrp">   -821.77716130 </i>
    <i name="e_0_energy">   -821.77716130 </i>
   </energy>
  </scstep>
  <scstep>
   <time name="dav">  565.97  567.31</time>
   <time name="total">  565.98  567.33</time>
   <energy>
    <i name="e_fr_energy">   -821.77727431 </i>
    <i name="e_wo_entrp">   -821.77727431 </i>
    <i name="e_0_energy">   -821.77727431 </i>
   </energy>
  </scstep>
  <scstep>
   <time name="dav">  510.89  512.11</time>
   <time name="total">  510.92  512.13</time>
   <energy>
    <i name="e_fr_energy">   -821.77727996 </i>
    <i name="e_wo_entrp">   -821.77727996 </i>
    <i name="e_0_energy">   -821.77727996 </i>
   </energy>
  </scstep>
  <scstep>
   <time name="dav">  371.48  372.37</time>
   <time name="total">  371.49  372.38</time>
   <energy>
    <i name="alphaZ">   3330.58302137 </i>
    <i name="ewald"> 304718.51983929 </i>
    <i name="hartreedc">-365085.10396049 </i>
    <i name="XCdc">    416.46424555 </i>
    <i name="pawpsdc">  32862.04696281 </i>
    <i name="pawaedc"> -30359.87903318 </i>
    <i name="eentropy">     -0.00000000 </i>
    <i name="bandstr">  -8492.19571578 </i>
    <i name="atom">  61787.78736020 </i>
    <i name="e_fr_energy">   -821.77728024 </i>
    <i name="e_wo_entrp">   -821.77728024 </i>
    <i name="e_0_energy">   -821.77728024 </i>
   </energy>
  </scstep>
  <structure>
   <crystal>
    <varray name="basis" >
     <v>      90.75760902       0.00000000       0.00000000 </v>
     <v>       0.00000000       6.70322420       0.00000000 </v>
     <v>       0.00000000       0.00000000      11.47571150 </v>
    </varray>
    <i name="volume">   6981.46255890 </i>
    <varray name="rec_basis" >
     <v>       0.01101836       0.00000000       0.00000000 </v>
     <v>       0.00000000       0.14918194       0.00000000 </v>
     <v>       0.00000000       0.00000000       0.08714057 </v>
    </varray>
   </crystal>
   <varray name="positions" >
    <v>       0.00367357       0.25000000       0.70108199 </v>
    <v>       0.10008928       0.25000000       0.69051876 </v>
    <v>       0.19830642       0.25000000       0.69137569 </v>
    <v>       0.29667663       0.25000000       0.69145392 </v>
    <v>       0.39505411       0.25000000       0.69156718 </v>
    <v>       0.49346788       0.25000000       0.69162319 </v>
    <v>       0.59185358       0.25000000       0.69137471 </v>
    <v>       0.69024803       0.25000000       0.69122655 </v>
    <v>       0.78969448       0.25000000       0.69288581 </v>
    <v>       0.09682791       0.75000002       0.30803995 </v>
    <v>       0.19518790       0.75000002       0.30837971 </v>
    <v>       0.29354600       0.75000002       0.30857279 </v>
    <v>       0.39194016       0.75000002       0.30859133 </v>
    <v>       0.49034327       0.75000002       0.30860313 </v>
    <v>       0.58870280       0.75000002       0.30847906 </v>
    <v>       0.68710015       0.75000002       0.30852039 </v>
    <v>       0.78518101       0.75000002       0.30848508 </v>
    <v>       0.04651519       0.75000002       0.19288575 </v>
    <v>       0.14596165       0.75000002       0.19122649 </v>
    <v>       0.24435610       0.75000002       0.19137465 </v>
    <v>       0.34274180       0.75000002       0.19162313 </v>
    <v>       0.44115553       0.75000002       0.19156712 </v>
    <v>       0.53953303       0.75000002       0.19145386 </v>
    <v>       0.63790324       0.75000002       0.19137563 </v>
    <v>       0.73612037       0.75000002       0.19051870 </v>
    <v>       0.83253608       0.75000002       0.20108193 </v>
    <v>       0.05102860       0.25000000       0.80848512 </v>
    <v>       0.14910954       0.25000000       0.80852043 </v>
    <v>       0.24750686       0.25000000       0.80847911 </v>
    <v>       0.34586638       0.25000000       0.80860317 </v>
    <v>       0.44426951       0.25000000       0.80859138 </v>
    <v>       0.54266367       0.25000000       0.80857283 </v>
    <v>       0.64102176       0.25000000       0.80837975 </v>
    <v>       0.73938171       0.25000000       0.80803999 </v>
    <v>       0.02103360       0.75000002       0.91227457 </v>
    <v>       0.11444615       0.75000002       0.90594164 </v>
    <v>       0.21256935       0.75000002       0.90575638 </v>
    <v>       0.31093693       0.75000002       0.90598507 </v>
    <v>       0.40932071       0.75000002       0.90605107 </v>
    <v>       0.50775529       0.75000002       0.90601348 </v>
    <v>       0.60611157       0.75000002       0.90584782 </v>
    <v>       0.70441894       0.75000002       0.90491529 </v>
    <v>       0.80219322       0.75000002       0.89556719 </v>
    <v>       0.08215708       0.25000000       0.09308656 </v>
    <v>       0.18091035       0.25000000       0.09402823 </v>
    <v>       0.27930666       0.25000000       0.09403291 </v>
    <v>       0.37769924       0.25000000       0.09416276 </v>
    <v>       0.47608529       0.25000000       0.09409901 </v>
    <v>       0.57443849       0.25000000       0.09396690 </v>
    <v>       0.67277481       0.25000000       0.09367702 </v>
    <v>       0.77090856       0.25000000       0.09534369 </v>
    <v>       0.03401639       0.25000000       0.39556727 </v>
    <v>       0.13179076       0.25000000       0.40491537 </v>
    <v>       0.23009807       0.25000000       0.40584790 </v>
    <v>       0.32845441       0.25000000       0.40601357 </v>
    <v>       0.42688897       0.25000000       0.40605115 </v>
    <v>       0.52527272       0.25000000       0.40598516 </v>
    <v>       0.62364030       0.25000000       0.40575646 </v>
    <v>       0.72176345       0.25000000       0.40594173 </v>
    <v>       0.81517601       0.25000000       0.41227465 </v>
    <v>       0.06530110       0.75000002       0.59534367 </v>
    <v>       0.16343481       0.75000002       0.59367700 </v>
    <v>       0.26177123       0.75000002       0.59396688 </v>
    <v>       0.36012434       0.75000002       0.59409899 </v>
    <v>       0.45851044       0.75000002       0.59416274 </v>
    <v>       0.55690299       0.75000002       0.59403288 </v>
    <v>       0.65529929       0.75000002       0.59402821 </v>
    <v>       0.75405257       0.75000002       0.59308654 </v>
    <v>       0.01786162       0.07159338       0.14531028 </v>
    <v>       0.11715818       0.07039048       0.14569290 </v>
    <v>       0.21565160       0.07029637       0.14605631 </v>
    <v>       0.31403283       0.07031235       0.14624374 </v>
    <v>       0.41243785       0.07028426       0.14626062 </v>
    <v>       0.51081697       0.07028437       0.14630087 </v>
    <v>       0.60916360       0.07029661       0.14601125 </v>
    <v>       0.70747262       0.07029371       0.14516927 </v>
    <v>       0.80558789       0.07158081       0.14247538 </v>
    <v>       0.08001984       0.93007712       0.85429390 </v>
    <v>       0.17784093       0.92969266       0.85377118 </v>
    <v>       0.27621715       0.92965495       0.85381931 </v>
    <v>       0.37456742       0.92968879       0.85393283 </v>
    <v>       0.47301841       0.92968419       0.85399383 </v>
    <v>       0.57138490       0.92969931       0.85370520 </v>
    <v>       0.66972572       0.92973435       0.85355852 </v>
    <v>       0.76816929       0.93040581       0.85313809 </v>
    <v>       0.03062180       0.92841918       0.64247540 </v>
    <v>       0.12873707       0.92970628       0.64516929 </v>
    <v>       0.22704608       0.92970338       0.64601127 </v>
    <v>       0.32539273       0.92971562       0.64630089 </v>
    <v>       0.42377178       0.92971574       0.64626064 </v>
    <v>       0.52217685       0.92968764       0.64624376 </v>
    <v>       0.62055805       0.92970362       0.64605633 </v>
    <v>       0.71905144       0.92960951       0.64569292 </v>
    <v>       0.81834800       0.92840661       0.64531030 </v>
    <v>       0.06804037       0.06959418       0.35313809 </v>
    <v>       0.16648391       0.07026565       0.35355852 </v>
    <v>       0.26482478       0.07030068       0.35370520 </v>
    <v>       0.36319123       0.07031581       0.35399383 </v>
    <v>       0.46164222       0.07031120       0.35393283 </v>
    <v>       0.55999251       0.07034504       0.35381931 </v>
    <v>       0.65836870       0.07030733       0.35377118 </v>
    <v>       0.75618981       0.06992287       0.35429390 </v>
    <v>       0.08001984       0.56992288       0.85429390 </v>
    <v>       0.17784093       0.57030734       0.85377118 </v>
    <v>       0.27621715       0.57034505       0.85381931 </v>
    <v>       0.37456742       0.57031121       0.85393283 </v>
    <v>       0.47301841       0.57031581       0.85399383 </v>
    <v>       0.57138490       0.57030069       0.85370520 </v>
    <v>       0.66972572       0.57026565       0.85355852 </v>
    <v>       0.76816929       0.56959419       0.85313809 </v>
    <v>       0.01786162       0.42840661       0.14531028 </v>
    <v>       0.11715818       0.42960951       0.14569290 </v>
    <v>       0.21565160       0.42970362       0.14605631 </v>
    <v>       0.31403283       0.42968764       0.14624374 </v>
    <v>       0.41243785       0.42971574       0.14626062 </v>
    <v>       0.51081697       0.42971562       0.14630087 </v>
    <v>       0.60916360       0.42970338       0.14601125 </v>
    <v>       0.70747262       0.42970628       0.14516927 </v>
    <v>       0.80558789       0.42841918       0.14247538 </v>
    <v>       0.06804037       0.43040581       0.35313809 </v>
    <v>       0.16648391       0.42973435       0.35355852 </v>
    <v>       0.26482478       0.42969931       0.35370520 </v>
    <v>       0.36319123       0.42968419       0.35399383 </v>
    <v>       0.46164222       0.42968879       0.35393283 </v>
    <v>       0.55999251       0.42965495       0.35381931 </v>
    <v>       0.65836870       0.42969266       0.35377118 </v>
    <v>       0.75618981       0.43007712       0.35429390 </v>
    <v>       0.03062180       0.57158082       0.64247540 </v>
    <v>       0.12873707       0.57029372       0.64516929 </v>
    <v>       0.22704608       0.57029662       0.64601127 </v>
    <v>       0.32539273       0.57028438       0.64630089 </v>
    <v>       0.42377178       0.57028426       0.64626064 </v>
    <v>       0.52217685       0.57031236       0.64624376 </v>
    <v>       0.62055805       0.57029638       0.64605633 </v>
    <v>       0.71905144       0.57039049       0.64569292 </v>
    <v>       0.81834800       0.57159339       0.64531030 </v>
    <v>       0.00731208       0.75000002       0.61868163 </v>
    <v>       0.10660234       0.75000002       0.59118362 </v>
    <v>       0.20492249       0.75000002       0.59136442 </v>
    <v>       0.30327922       0.75000002       0.59156509 </v>
    <v>       0.40166241       0.75000002       0.59141542 </v>
    <v>       0.50005036       0.75000002       0.59154459 </v>
    <v>       0.59842409       0.75000002       0.59156164 </v>
    <v>       0.69689615       0.75000002       0.59140085 </v>
    <v>       0.79579561       0.75000002       0.58257171 </v>
    <v>       0.09009337       0.25000000       0.40799071 </v>
    <v>       0.18858444       0.25000000       0.40854445 </v>
[...]
       <r>    -8.0328   392.5286   602.9378 </r>
       <r>    -7.9170     0.0000   608.0000 </r>
       <r>    -7.8012     0.0000   608.0000 </r>
       <r>    -7.6854    10.4047   609.2051 </r>
       <r>    -7.5695    15.9730   612.0000 </r>
       <r>    -7.4537     0.0000   612.0000 </r>
       <r>    -7.3379     0.0000   612.0000 </r>
       <r>    -7.2221     0.0000   612.0000 </r>
       <r>    -7.1063     0.0000   612.0000 </r>
       <r>    -6.9904     0.0000   612.0000 </r>
       <r>    -6.8746     0.0000   612.0000 </r>
       <r>    -6.7588     0.0000   612.0000 </r>
       <r>    -6.6430     0.0000   612.0000 </r>
       <r>    -6.5272     0.0000   612.0000 </r>
       <r>    -6.4113     0.0000   612.0000 </r>
       <r>    -6.2955     0.0000   612.0000 </r>
       <r>    -6.1797     0.0000   612.0000 </r>
       <r>    -6.0639     0.0000   612.0000 </r>
       <r>    -5.9481     0.0000   612.0000 </r>
       <r>    -5.8322     0.0000   612.0000 </r>
       <r>    -5.7164     0.0000   612.0000 </r>
       <r>    -5.6006     0.0000   612.0000 </r>
       <r>    -5.4848     0.0000   612.0000 </r>
       <r>    -5.3690     0.0000   612.0000 </r>
       <r>    -5.2531     0.0000   612.0000 </r>
       <r>    -5.1373     0.0000   612.0000 </r>
       <r>    -5.0215     0.0000   612.0000 </r>
       <r>    -4.9057     0.0000   612.0000 </r>
       <r>    -4.7899     0.0000   612.0000 </r>
       <r>    -4.6740     0.0000   612.0000 </r>
       <r>    -4.5582     0.0000   612.0000 </r>
       <r>    -4.4424     0.0000   612.0000 </r>
       <r>    -4.3266     0.0000   612.0000 </r>
       <r>    -4.2108     0.0000   612.0000 </r>
       <r>    -4.0949     0.0000   612.0000 </r>
       <r>    -3.9791     0.0000   612.0000 </r>
       <r>    -3.8633     0.0000   612.0000 </r>
       <r>    -3.7475     2.4226   612.2806 </r>
       <r>    -3.6317   161.4811   635.7528 </r>
       <r>    -3.5158   114.0221   657.3561 </r>
       <r>    -3.4000    81.3289   671.1695 </r>
       <r>    -3.2842   228.6586   703.3333 </r>
       <r>    -3.1684   263.7770   754.3757 </r>
       <r>    -3.0526   161.3594   791.1387 </r>
       <r>    -2.9367    61.2299   805.3417 </r>
       <r>    -2.8209    43.3843   811.3248 </r>
       <r>    -2.7051     6.1446   814.3617 </r>
       <r>    -2.5893    11.0084   816.0000 </r>
       <r>    -2.4735     0.0000   816.0000 </r>
       <r>    -2.3576     0.0000   816.0000 </r>
       <r>    -2.2418     0.0000   816.0000 </r>
       <r>    -2.1260     0.0000   816.0000 </r>
       <r>    -2.0102     0.0000   816.0000 </r>
       <r>    -1.8943     0.0000   816.0000 </r>
       <r>    -1.7785     0.0000   816.0000 </r>
       <r>    -1.6627     0.0000   816.0000 </r>
       <r>    -1.5469     0.0000   816.0000 </r>
       <r>    -1.4311     0.0000   816.0000 </r>
       <r>    -1.3152     0.0000   816.0000 </r>
       <r>    -1.1994     0.0000   816.0000 </r>
       <r>    -1.0836     2.2691   816.2628 </r>
       <r>    -0.9678     3.8592   816.9220 </r>
       <r>    -0.8520     4.5024   817.6965 </r>
       <r>    -0.7361     5.6898   818.6840 </r>
       <r>    -0.6203     6.5077   819.7537 </r>
       <r>    -0.5045    11.0239   821.3768 </r>
       <r>    -0.3887    16.5835   824.0957 </r>
       <r>    -0.2729    21.0928   827.4180 </r>
       <r>    -0.1570    21.7920   830.8990 </r>
       <r>    -0.0412    84.0210   842.1063 </r>
       <r>     0.0746    95.5540   857.8171 </r>
       <r>     0.1904    98.9239   874.6574 </r>
       <r>     0.3062    85.9693   889.5820 </r>
       <r>     0.4221    97.4594   905.2878 </r>
       <r>     0.5379    88.7440   919.7284 </r>
       <r>     0.6537   113.5987   937.0570 </r>
       <r>     0.7695   126.7242   956.4272 </r>
       <r>     0.8853   179.8439   985.4796 </r>
       <r>     1.0012   183.6187  1013.6668 </r>
       <r>     1.1170   158.2428  1040.1277 </r>
       <r>     1.2328   161.3953  1066.2429 </r>
       <r>     1.3486   104.3965  1085.2662 </r>
       <r>     1.4644   174.2413  1111.6057 </r>
       <r>     1.5803   149.0353  1139.8613 </r>
       <r>     1.6961    72.1684  1151.3086 </r>
       <r>     1.8119   106.6330  1167.3253 </r>
       <r>     1.9277    85.9561  1183.0305 </r>
       <r>     2.0435    96.8015  1198.9116 </r>
       <r>     2.1594    85.5394  1212.9822 </r>
       <r>     2.2752    40.8490  1223.1562 </r>
       <r>     2.3910     3.5133  1223.8819 </r>
       <r>     2.5068     0.0000  1224.0000 </r>
       <r>     2.6226     0.0000  1224.0000 </r>
       <r>     2.7385     0.0000  1224.0000 </r>
       <r>     2.8543     0.0000  1224.0000 </r>
       <r>     2.9701     0.0000  1224.0000 </r>
       <r>     3.0859     0.0002  1224.0000 </r>
       <r>     3.2017    24.2052  1227.0035 </r>
       <r>     3.3176    64.9277  1236.8949 </r>
       <r>     3.4334    75.5662  1248.6771 </r>
       <r>     3.5492    71.7245  1261.1072 </r>
       <r>     3.6650    93.8760  1275.5227 </r>
       <r>     3.7808    91.3353  1291.7785 </r>
       <r>     3.8967    85.9296  1305.9774 </r>
       <r>     4.0125    86.7970  1320.6779 </r>
       <r>     4.1283   106.6065  1337.6472 </r>
       <r>     4.2441    78.3710  1350.7520 </r>
       <r>     4.3600    87.4573  1365.0543 </r>
       <r>     4.4758    99.1811  1381.6872 </r>
       <r>     4.5916    87.8720  1397.7524 </r>
       <r>     4.7074    71.4290  1410.3229 </r>
       <r>     4.8232   103.4216  1427.9033 </r>
       <r>     4.9391    97.5158  1444.7693 </r>
       <r>     5.0549    85.0000  1460.2697 </r>
       <r>     5.1707    39.5068  1467.6757 </r>
       <r>     5.2865    14.7748  1470.6862 </r>
       <r>     5.4023     5.7766  1471.8190 </r>
       <r>     5.5182     0.2159  1472.0000 </r>
       <r>     5.6340     0.0000  1472.0000 </r>
       <r>     5.7498     0.0000  1472.0000 </r>
       <r>     5.8656     0.0000  1472.0000 </r>
       <r>     5.9814     0.0000  1472.0000 </r>
       <r>     6.0973     0.0000  1472.0000 </r>
       <r>     6.2131     0.0000  1472.0000 </r>
       <r>     6.3289     0.0000  1472.0000 </r>
       <r>     6.4447     0.0000  1472.0000 </r>
       <r>     6.5605     0.0000  1472.0000 </r>
       <r>     6.6764     0.0000  1472.0000 </r>
       <r>     6.7922     0.0000  1472.0000 </r>
       <r>     6.9080     0.0000  1472.0000 </r>
       <r>     7.0238     0.0000  1472.0000 </r>
      </set>
     </set>
    </array>
   </total>
  </dos>
 </calculation>
 <structure name="finalpos" >
  <crystal>
   <varray name="basis" >
    <v>      90.75760902       0.00000000       0.00000000 </v>
    <v>       0.00000000       6.70322420       0.00000000 </v>
    <v>       0.00000000       0.00000000      11.47571150 </v>
   </varray>
   <i name="volume">   6981.46255890 </i>
   <varray name="rec_basis" >
    <v>       0.01101836       0.00000000       0.00000000 </v>
    <v>       0.00000000       0.14918194       0.00000000 </v>
    <v>       0.00000000       0.00000000       0.08714057 </v>
   </varray>
  </crystal>
  <varray name="positions" >
   <v>       0.00367357       0.25000000       0.70108199 </v>
   <v>       0.10008928       0.25000000       0.69051876 </v>
   <v>       0.19830642       0.25000000       0.69137569 </v>
   <v>       0.29667663       0.25000000       0.69145392 </v>
   <v>       0.39505411       0.25000000       0.69156718 </v>
   <v>       0.49346788       0.25000000       0.69162319 </v>
   <v>       0.59185358       0.25000000       0.69137471 </v>
   <v>       0.69024803       0.25000000       0.69122655 </v>
   <v>       0.78969448       0.25000000       0.69288581 </v>
   <v>       0.09682791       0.75000002       0.30803995 </v>
   <v>       0.19518790       0.75000002       0.30837971 </v>
   <v>       0.29354600       0.75000002       0.30857279 </v>
   <v>       0.39194016       0.75000002       0.30859133 </v>
   <v>       0.49034327       0.75000002       0.30860313 </v>
   <v>       0.58870280       0.75000002       0.30847906 </v>
   <v>       0.68710015       0.75000002       0.30852039 </v>
   <v>       0.78518101       0.75000002       0.30848508 </v>
   <v>       0.04651519       0.75000002       0.19288575 </v>
   <v>       0.14596165       0.75000002       0.19122649 </v>
   <v>       0.24435610       0.75000002       0.19137465 </v>
   <v>       0.34274180       0.75000002       0.19162313 </v>
   <v>       0.44115553       0.75000002       0.19156712 </v>
   <v>       0.53953303       0.75000002       0.19145386 </v>
   <v>       0.63790324       0.75000002       0.19137563 </v>
   <v>       0.73612037       0.75000002       0.19051870 </v>
   <v>       0.83253608       0.75000002       0.20108193 </v>
   <v>       0.05102860       0.25000000       0.80848512 </v>
   <v>       0.14910954       0.25000000       0.80852043 </v>
   <v>       0.24750686       0.25000000       0.80847911 </v>
   <v>       0.34586638       0.25000000       0.80860317 </v>
   <v>       0.44426951       0.25000000       0.80859138 </v>
   <v>       0.54266367       0.25000000       0.80857283 </v>
   <v>       0.64102176       0.25000000       0.80837975 </v>
   <v>       0.73938171       0.25000000       0.80803999 </v>
   <v>       0.02103360       0.75000002       0.91227457 </v>
   <v>       0.11444615       0.75000002       0.90594164 </v>
   <v>       0.21256935       0.75000002       0.90575638 </v>
   <v>       0.31093693       0.75000002       0.90598507 </v>
   <v>       0.40932071       0.75000002       0.90605107 </v>
   <v>       0.50775529       0.75000002       0.90601348 </v>
   <v>       0.60611157       0.75000002       0.90584782 </v>
   <v>       0.70441894       0.75000002       0.90491529 </v>
   <v>       0.80219322       0.75000002       0.89556719 </v>
   <v>       0.08215708       0.25000000       0.09308656 </v>
   <v>       0.18091035       0.25000000       0.09402823 </v>
   <v>       0.27930666       0.25000000       0.09403291 </v>
   <v>       0.37769924       0.25000000       0.09416276 </v>
   <v>       0.47608529       0.25000000       0.09409901 </v>
   <v>       0.57443849       0.25000000       0.09396690 </v>
   <v>       0.67277481       0.25000000       0.09367702 </v>
   <v>       0.77090856       0.25000000       0.09534369 </v>
   <v>       0.03401639       0.25000000       0.39556727 </v>
   <v>       0.13179076       0.25000000       0.40491537 </v>
   <v>       0.23009807       0.25000000       0.40584790 </v>
   <v>       0.32845441       0.25000000       0.40601357 </v>
   <v>       0.42688897       0.25000000       0.40605115 </v>
   <v>       0.52527272       0.25000000       0.40598516 </v>
   <v>       0.62364030       0.25000000       0.40575646 </v>
   <v>       0.72176345       0.25000000       0.40594173 </v>
   <v>       0.81517601       0.25000000       0.41227465 </v>
   <v>       0.06530110       0.75000002       0.59534367 </v>
   <v>       0.16343481       0.75000002       0.59367700 </v>
   <v>       0.26177123       0.75000002       0.59396688 </v>
   <v>       0.36012434       0.75000002       0.59409899 </v>
   <v>       0.45851044       0.75000002       0.59416274 </v>
   <v>       0.55690299       0.75000002       0.59403288 </v>
   <v>       0.65529929       0.75000002       0.59402821 </v>
   <v>       0.75405257       0.75000002       0.59308654 </v>
   <v>       0.01786162       0.07159338       0.14531028 </v>
   <v>       0.11715818       0.07039048       0.14569290 </v>
   <v>       0.21565160       0.07029637       0.14605631 </v>
   <v>       0.31403283       0.07031235       0.14624374 </v>
   <v>       0.41243785       0.07028426       0.14626062 </v>
   <v>       0.51081697       0.07028437       0.14630087 </v>
   <v>       0.60916360       0.07029661       0.14601125 </v>
   <v>       0.70747262       0.07029371       0.14516927 </v>
   <v>       0.80558789       0.07158081       0.14247538 </v>
   <v>       0.08001984       0.93007712       0.85429390 </v>
   <v>       0.17784093       0.92969266       0.85377118 </v>
   <v>       0.27621715       0.92965495       0.85381931 </v>
   <v>       0.37456742       0.92968879       0.85393283 </v>
   <v>       0.47301841       0.92968419       0.85399383 </v>
   <v>       0.57138490       0.92969931       0.85370520 </v>
   <v>       0.66972572       0.92973435       0.85355852 </v>
   <v>       0.76816929       0.93040581       0.85313809 </v>
   <v>       0.03062180       0.92841918       0.64247540 </v>
   <v>       0.12873707       0.92970628       0.64516929 </v>
   <v>       0.22704608       0.92970338       0.64601127 </v>
   <v>       0.32539273       0.92971562       0.64630089 </v>
   <v>       0.42377178       0.92971574       0.64626064 </v>
   <v>       0.52217685       0.92968764       0.64624376 </v>
   <v>       0.62055805       0.92970362       0.64605633 </v>
   <v>       0.71905144       0.92960951       0.64569292 </v>
   <v>       0.81834800       0.92840661       0.64531030 </v>
   <v>       0.06804037       0.06959418       0.35313809 </v>
   <v>       0.16648391       0.07026565       0.35355852 </v>
   <v>       0.26482478       0.07030068       0.35370520 </v>
   <v>       0.36319123       0.07031581       0.35399383 </v>
   <v>       0.46164222       0.07031120       0.35393283 </v>
   <v>       0.55999251       0.07034504       0.35381931 </v>
   <v>       0.65836870       0.07030733       0.35377118 </v>
   <v>       0.75618981       0.06992287       0.35429390 </v>
   <v>       0.08001984       0.56992288       0.85429390 </v>
   <v>       0.17784093       0.57030734       0.85377118 </v>
   <v>       0.27621715       0.57034505       0.85381931 </v>
   <v>       0.37456742       0.57031121       0.85393283 </v>
   <v>       0.47301841       0.57031581       0.85399383 </v>
   <v>       0.57138490       0.57030069       0.85370520 </v>
   <v>       0.66972572       0.57026565       0.85355852 </v>
   <v>       0.76816929       0.56959419       0.85313809 </v>
   <v>       0.01786162       0.42840661       0.14531028 </v>
   <v>       0.11715818       0.42960951       0.14569290 </v>
   <v>       0.21565160       0.42970362       0.14605631 </v>
   <v>       0.31403283       0.42968764       0.14624374 </v>
   <v>       0.41243785       0.42971574       0.14626062 </v>
   <v>       0.51081697       0.42971562       0.14630087 </v>
   <v>       0.60916360       0.42970338       0.14601125 </v>
   <v>       0.70747262       0.42970628       0.14516927 </v>
   <v>       0.80558789       0.42841918       0.14247538 </v>
   <v>       0.06804037       0.43040581       0.35313809 </v>
   <v>       0.16648391       0.42973435       0.35355852 </v>
   <v>       0.26482478       0.42969931       0.35370520 </v>
   <v>       0.36319123       0.42968419       0.35399383 </v>
   <v>       0.46164222       0.42968879       0.35393283 </v>
   <v>       0.55999251       0.42965495       0.35381931 </v>
   <v>       0.65836870       0.42969266       0.35377118 </v>
   <v>       0.75618981       0.43007712       0.35429390 </v>
   <v>       0.03062180       0.57158082       0.64247540 </v>
   <v>       0.12873707       0.57029372       0.64516929 </v>
   <v>       0.22704608       0.57029662       0.64601127 </v>
   <v>       0.32539273       0.57028438       0.64630089 </v>
   <v>       0.42377178       0.57028426       0.64626064 </v>
   <v>       0.52217685       0.57031236       0.64624376 </v>
   <v>       0.62055805       0.57029638       0.64605633 </v>
   <v>       0.71905144       0.57039049       0.64569292 </v>
   <v>       0.81834800       0.57159339       0.64531030 </v>
   <v>       0.00731208       0.75000002       0.61868163 </v>
   <v>       0.10660234       0.75000002       0.59118362 </v>
   <v>       0.20492249       0.75000002       0.59136442 </v>
   <v>       0.30327922       0.75000002       0.59156509 </v>
   <v>       0.40166241       0.75000002       0.59141542 </v>
   <v>       0.50005036       0.75000002       0.59154459 </v>
   <v>       0.59842409       0.75000002       0.59156164 </v>
   <v>       0.69689615       0.75000002       0.59140085 </v>
   <v>       0.79579561       0.75000002       0.58257171 </v>
   <v>       0.09009337       0.25000000       0.40799071 </v>
   <v>       0.18858444       0.25000000       0.40854445 </v>
   <v>       0.28694396       0.25000000       0.40841604 </v>
   <v>       0.38531519       0.25000000       0.40864943 </v>
   <v>       0.48376502       0.25000000       0.40863130 </v>
   <v>       0.58212507       0.25000000       0.40840511 </v>
   <v>       0.68047762       0.25000000       0.40834841 </v>
   <v>       0.77814926       0.25000000       0.40907131 </v>
   <v>       0.04041406       0.25000000       0.08257165 </v>
   <v>       0.13931348       0.25000000       0.09140078 </v>
   <v>       0.23778552       0.25000000       0.09156158 </v>
   <v>       0.33615931       0.25000000       0.09154452 </v>
   <v>       0.43454723       0.25000000       0.09141536 </v>
   <v>       0.53293044       0.25000000       0.09156503 </v>
   <v>       0.63128717       0.25000000       0.09136436 </v>
   <v>       0.72960731       0.25000000       0.09118355 </v>
   <v>       0.82889756       0.25000000       0.11868157 </v>
   <v>       0.05806042       0.75000002       0.90907135 </v>
   <v>       0.15573203       0.75000002       0.90834845 </v>
   <v>       0.25408458       0.75000002       0.90840515 </v>
   <v>       0.35244466       0.75000002       0.90863134 </v>
   <v>       0.45089445       0.75000002       0.90864947 </v>
   <v>       0.54926570       0.75000002       0.90841608 </v>
   <v>       0.64762521       0.75000002       0.90854450 </v>
   <v>       0.74611625       0.75000002       0.90799076 </v>
   <v>       0.01802404       0.25000000       0.96275410 </v>
   <v>       0.11755682       0.25000000       0.96402799 </v>
   <v>       0.21603703       0.25000000       0.96433713 </v>
   <v>       0.31439865       0.25000000       0.96449468 </v>
   <v>       0.41276791       0.25000000       0.96450867 </v>
   <v>       0.51117019       0.25000000       0.96452761 </v>
   <v>       0.60954493       0.25000000       0.96421418 </v>
   <v>       0.70788553       0.25000000       0.96348854 </v>
   <v>       0.81070500       0.25000000       0.96239765 </v>
   <v>       0.07929400       0.75000002       0.03674505 </v>
   <v>       0.17747664       0.75000002       0.03554460 </v>
   <v>       0.27582770       0.75000002       0.03558602 </v>
   <v>       0.37420686       0.75000002       0.03569292 </v>
   <v>       0.47264758       0.75000002       0.03578998 </v>
   <v>       0.57102845       0.75000002       0.03547111 </v>
   <v>       0.66941566       0.75000002       0.03533428 </v>
   <v>       0.76781665       0.75000002       0.03513257 </v>
   <v>       0.02550467       0.75000002       0.46239757 </v>
   <v>       0.12832414       0.75000002       0.46348846 </v>
   <v>       0.22666468       0.75000002       0.46421410 </v>
   <v>       0.32503944       0.75000002       0.46452753 </v>
   <v>       0.42344176       0.75000002       0.46450859 </v>
   <v>       0.52181103       0.75000002       0.46449460 </v>
   <v>       0.62017263       0.75000002       0.46433705 </v>
   <v>       0.71865283       0.75000002       0.46402791 </v>
   <v>       0.81818561       0.75000002       0.46275402 </v>
   <v>       0.06839305       0.25000000       0.53513255 </v>
   <v>       0.16679399       0.25000000       0.53533427 </v>
   <v>       0.26518119       0.25000000       0.53547110 </v>
   <v>       0.36356205       0.25000000       0.53578996 </v>
   <v>       0.46200277       0.25000000       0.53569290 </v>
   <v>       0.56038196       0.25000000       0.53558600 </v>
   <v>       0.65873304       0.25000000       0.53554458 </v>
   <v>       0.75691562       0.25000000       0.53674504 </v>
  </varray>
 </structure>
</modeling>
