 vasp.5.4.4.18Apr17-6-g9f103f2a35 (build Nov 21 2017 15:30:27) complex          
  
 executed on             LinuxIFC date 2020.11.09  12:24:05
 running on   64 total cores
 distrk:  each k-point on   32 cores,    2 groups
 distr:  one band on NCORES_PER_BAND=   4 cores,    8 groups


--------------------------------------------------------------------------------------------------------


 INCAR:
 POTCAR:   PAW_PBE Ba_sv 06Sep2000                
 POTCAR:   PAW_PBE Si 05Jan2001                   

 ----------------------------------------------------------------------------- 
|                                                                             |
|           W    W    AA    RRRRR   N    N  II  N    N   GGGG   !!!           |
|           W    W   A  A   R    R  NN   N  II  NN   N  G    G  !!!           |
|           W    W  A    A  R    R  N N  N  II  N N  N  G       !!!           |
|           W WW W  AAAAAA  RRRRR   N  N N  II  N  N N  G  GGG   !            |
|           WW  WW  A    A  R   R   N   NN  II  N   NN  G    G                |
|           W    W  A    A  R    R  N    N  II  N    N   GGGG   !!!           |
|                                                                             |
|      You have enabled k-point parallelism (KPAR>1).                         |
|      This developmental code was originally  written by Paul Kent at ORNL,  |
|      and carefully double checked in Vienna.                                |
|      GW as well as linear response parallelism added by Martijn Marsman     |
|      and Georg Kresse.                                                      |
|      Carefully verify results versus KPAR=1.                                |
|      Report problems to Paul Kent and Vienna.                               |
|                                                                             |
 ----------------------------------------------------------------------------- 


 ----------------------------------------------------------------------------- 
|                                                                             |
|  ADVICE TO THIS USER RUNNING 'VASP/VAMP'   (HEAR YOUR MASTER'S VOICE ...):  |
|                                                                             |
|      You have switched on vdW-DFT.                                          |
|      This routine was written and supplied by Jiri Klimes.                  |
|      We recommed that you carefully read and cite the following             |
|      publication                                                            |
|      J. Klimes, D.R. Bowler, A. Michelides                                  |
|        J. Phys.: Cond Matt. 22 022201 (2010)                                |
|      J. Klimes, D.R. Bowler, A. Michelides                                  |
|        Phys. Rev. B. 83, 195131 (2011)                                      |
|      and references therein.                                                |
|                                                                             |
 ----------------------------------------------------------------------------- 

 POTCAR:   PAW_PBE Ba_sv 06Sep2000                
   VRHFIN =Ba: 5s5p6s                                                           
   LEXCH  = PE                                                                  
   EATOM  =   700.2255 eV,   51.4651 Ry                                         
                                                                                
   TITEL  = PAW_PBE Ba_sv 06Sep2000                                             
   LULTRA =        F    use ultrasoft PP ?                                      
   IUNSCR =        1    unscreen: 0-lin 1-nonlin 2-no                           
   RPACOR =    2.400    partial core radius                                     
   POMASS =  137.327; ZVAL   =   10.000    mass and valenz                      
   RCORE  =    2.800    outmost cutoff radius                                   
   RWIGS  =    3.740; RWIGS  =    1.979    wigner-seitz radius (au A)           
   ENMAX  =  187.210; ENMIN  =  140.408 eV                                      
   RCLOC  =    2.516    cutoff for local pot                                    
   LCOR   =        T    correct aug charges                                     
   LPAW   =        T    paw PP                                                  
   EAUG   =  351.165                                                            
   DEXC   =     .000                                                            
   RMAX   =    3.370    core radius for proj-oper                               
   RAUG   =    1.300    factor for augmentation sphere                          
   RDEP   =    2.976    radius for radial grids                                 
   QCUT   =   -3.709; QGAM   =    7.419    optimization parameters              
                                                                                
   Description                                                                  
     l     E      TYP  RCUT    TYP  RCUT                                        
     0   .000     23  2.800                                                     
     0   .000     23  2.800                                                     
     1   .000     23  2.700                                                     
     1  2.000     23  2.700                                                     
     2   .000     23  2.700                                                     
     2   .000     23  2.700                                                     
  local pseudopotential read in
  partial core-charges read in
  atomic valenz-charges read in
  non local Contribution for L=           0  read in
    real space projection operators read in
  non local Contribution for L=           0  read in
    real space projection operators read in
  non local Contribution for L=           1  read in
    real space projection operators read in
  non local Contribution for L=           1  read in
    real space projection operators read in
  non local Contribution for L=           2  read in
    real space projection operators read in
  non local Contribution for L=           2  read in
    real space projection operators read in
    PAW grid and wavefunctions read in
 
   number of l-projection  operators is LMAX  =           6
   number of lm-projection operators is LMMAX =          18
 
 POTCAR:   PAW_PBE Si 05Jan2001                   
   VRHFIN =Si: s2p2                                                             
   LEXCH  = PE                                                                  
   EATOM  =   103.0669 eV,    7.5752 Ry                                         
                                                                                
   TITEL  = PAW_PBE Si 05Jan2001                                                
   LULTRA =        F    use ultrasoft PP ?                                      
   IUNSCR =        1    unscreen: 0-lin 1-nonlin 2-no                           
   RPACOR =    1.500    partial core radius                                     
   POMASS =   28.085; ZVAL   =    4.000    mass and valenz                      
   RCORE  =    1.900    outmost cutoff radius                                   
   RWIGS  =    2.480; RWIGS  =    1.312    wigner-seitz radius (au A)           
   ENMAX  =  245.345; ENMIN  =  184.009 eV                                      
   ICORE  =        2    local potential                                         
   LCOR   =        T    correct aug charges                                     
   LPAW   =        T    paw PP                                                  
   EAUG   =  322.069                                                            
   DEXC   =    -.007                                                            
   RMAX   =    2.944    core radius for proj-oper                               
   RAUG   =    1.300    factor for augmentation sphere                          
   RDEP   =    1.993    radius for radial grids                                 
   QCUT   =   -4.246; QGAM   =    8.493    optimization parameters              
                                                                                
   Description                                                                  
     l     E      TYP  RCUT    TYP  RCUT                                        
     0   .000     23  1.900                                                     
     0   .000     23  1.900                                                     
     1   .000     23  1.900                                                     
     1   .000     23  1.900                                                     
     2   .000      7  1.900                                                     
  local pseudopotential read in
  partial core-charges read in
  atomic valenz-charges read in
  non local Contribution for L=           0  read in
    real space projection operators read in
  non local Contribution for L=           0  read in
    real space projection operators read in
  non local Contribution for L=           1  read in
    real space projection operators read in
  non local Contribution for L=           1  read in
    real space projection operators read in
    PAW grid and wavefunctions read in
 
   number of l-projection  operators is LMAX  =           4
   number of lm-projection operators is LMMAX =           8
 
 Optimization of the real space projectors (new method)

 maximal supplied QI-value         = 13.42
 optimisation between [QCUT,QGAM] = [ 11.40, 22.81] = [ 36.42,145.68] Ry 
 Optimized for a Real-space Cutoff    1.56 Angstroem

   l    n(q)    QCUT    max X(q) W(low)/X(q) W(high)/X(q)  e(spline) 
   0     11    11.404     7.198    0.14E-04    0.26E-04    0.99E-07
   0     11    11.404    15.603    0.29E-04    0.72E-04    0.44E-06
   1     10    11.404     3.746    0.20E-04    0.24E-04    0.43E-07
   1     10    11.404     4.362    0.22E-03    0.97E-04    0.22E-06
   2     10    11.404     5.782    0.83E-04    0.62E-05    0.27E-06
   2     10    11.404    65.505    0.42E-03    0.31E-04    0.12E-05
 Optimization of the real space projectors (new method)

 maximal supplied QI-value         = 19.84
 optimisation between [QCUT,QGAM] = [ 11.31, 22.82] = [ 35.82,145.81] Ry 
 Optimized for a Real-space Cutoff    1.16 Angstroem

   l    n(q)    QCUT    max X(q) W(low)/X(q) W(high)/X(q)  e(spline) 
   0      8    11.310     8.708    0.14E-04    0.11E-04    0.43E-08
   0      8    11.310   106.241    0.27E-03    0.30E-03    0.38E-07
   1      7    11.310     5.901    0.82E-05    0.48E-04    0.19E-07
   1      7    11.310    73.241    0.27E-03    0.27E-03    0.74E-07

 ----------------------------------------------------------------------------- 
|                                                                             |
|  ADVICE TO THIS USER RUNNING 'VASP/VAMP'   (HEAR YOUR MASTER'S VOICE ...):  |
|                                                                             |
|      You enforced a specific xc-type in the INCAR file,                     |
|      a different type was found on the POTCAR file                          |
|          I HOPE YOU KNOW, WHAT YOU ARE  DOING                               |
|                                                                             |
 ----------------------------------------------------------------------------- 

 PAW_PBE Ba_sv 06Sep2000                :
 energy of atom  1       EATOM= -700.2255
 kinetic energy error for atom=    0.0005 (will be added to EATOM!!)
 PAW_PBE Si 05Jan2001                   :
 energy of atom  2       EATOM= -103.0669
 kinetic energy error for atom=    0.0006 (will be added to EATOM!!)
 
 
 POSCAR: ba8 si16                                
  positions in direct lattice
  velocities in cartesian coordinates
 exchange correlation table for  LEXCH =       43
   RHO(1)=    0.500       N(1)  =     2000
   RHO(2)=  100.500       N(2)  =     4000
 


--------------------------------------------------------------------------------------------------------


 ion  position               nearest neighbor table
   1  0.010  0.269  0.715-  21 3.23  16 3.33  11 3.33  17 3.43  17 3.43   5 4.46   5 4.46   7 4.49
                             4 4.66
   2  0.365  0.767  0.316-  22 3.23  15 3.33  12 3.33  18 3.43  18 3.43   6 4.46   6 4.46   8 4.49
                             3 4.66
   3  0.177  0.768  0.209-  20 3.33  12 3.41  15 3.42  14 3.46   9 3.46  23 3.54  19 3.58  19 3.58
                            22 3.69   5 3.82   7 4.13   7 4.13   6 4.40   6 4.40   2 4.66
   4  0.198  0.268  0.822-  19 3.33  11 3.41  16 3.42  13 3.46  10 3.46  24 3.54  20 3.58  20 3.58
                            21 3.69   6 3.82   8 4.13   8 4.13   5 4.40   5 4.40   1 4.66
   5  0.086  0.769  0.930-  21 3.36  21 3.36  16 3.37  11 3.38  20 3.40   9 3.40  14 3.41  17 3.65
                             3 3.82   4 4.40   4 4.40   1 4.46   1 4.46
   6  0.289  0.268  0.101-  22 3.36  22 3.36  15 3.37  12 3.38  19 3.40  10 3.40  13 3.41  18 3.65
                             4 3.82   3 4.40   3 4.40   2 4.46   2 4.46
   7  0.130  0.268  0.410-  15 3.35  12 3.35  14 3.40   9 3.40  23 3.44  23 3.44  11 3.48  16 3.49
                            19 3.54  24 3.91   3 4.13   3 4.13   1 4.49
   8  0.245  0.768  0.622-  16 3.35  11 3.35  13 3.40  10 3.40  24 3.44  24 3.44  12 3.48  15 3.49
                            20 3.54  23 3.91   4 4.13   4 4.13   2 4.49
   9  0.064  0.085  0.166-  14 2.40  21 2.41  19 2.47   7 3.40   5 3.40   3 3.46
  10  0.312  0.952  0.866-  13 2.40  22 2.41  20 2.47   8 3.40   6 3.40   4 3.46
  11  0.115  0.952  0.657-  16 2.40  23 2.43  17 2.43   1 3.33   8 3.35   5 3.38   4 3.41   7 3.48

  12  0.260  0.084  0.375-  15 2.40  24 2.43  18 2.43   2 3.33   7 3.35   6 3.38   3 3.41   8 3.48

  13  0.312  0.584  0.865-  10 2.40  22 2.41  20 2.47   8 3.40   6 3.41   4 3.46
  14  0.064  0.452  0.166-   9 2.40  21 2.41  19 2.47   7 3.40   5 3.41   3 3.46
  15  0.260  0.451  0.374-  12 2.40  24 2.43  18 2.43   2 3.33   7 3.35   6 3.37   3 3.42   8 3.49

  16  0.116  0.586  0.657-  11 2.40  23 2.43  17 2.43   1 3.33   8 3.35   5 3.37   4 3.42   7 3.49

  17  0.028  0.769  0.631-  23 2.43  11 2.43  16 2.43   1 3.43   1 3.43   5 3.65
  18  0.347  0.267  0.401-  24 2.43  12 2.43  15 2.43   2 3.43   2 3.43   6 3.65
  19  0.147  0.269  0.097-  21 2.42  14 2.47   9 2.47   4 3.33   6 3.40   7 3.54   3 3.58   3 3.58

  20  0.228  0.768  0.934-  22 2.42  13 2.47  10 2.47   3 3.33   5 3.40   8 3.54   4 3.58   4 3.58

  21  0.063  0.269  0.980-  14 2.41   9 2.41  19 2.42   1 3.23   5 3.36   5 3.36   4 3.69
  22  0.312  0.768  0.052-  13 2.41  10 2.41  20 2.42   2 3.23   6 3.36   6 3.36   3 3.69
  23  0.097  0.768  0.474-  16 2.43  17 2.43  11 2.43   7 3.44   7 3.44   3 3.54   8 3.91
  24  0.278  0.268  0.558-  15 2.43  18 2.43  12 2.43   8 3.44   8 3.44   4 3.54   7 3.91
 
  LATTYP: Found a simple orthorhombic cell.
 ALAT       =     6.5403619403
 B/A-ratio  =     1.7198445489
 C/A-ratio  =     3.6709693283
  
  Lattice vectors:
  
 A1 = (   0.0000000000,   6.5403619403,   0.0000000000)
 A2 = (   0.0000000000,   0.0000000000, -11.2484058311)
 A3 = ( -24.0094680786,   0.0000000000,   0.0000000000)


Analysis of symmetry for initial positions (statically):
=====================================================================
 Subroutine PRICEL returns:
 Original cell was already a primitive cell.
 

 Routine SETGRP: Setting up the symmetry group for a 
 simple orthorhombic supercell.


 Subroutine GETGRP returns: Found  2 space group operations
 (whereof  1 operations were pure point group operations)
 out of a pool of  8 trial point group operations.


The static configuration has the point symmetry C_1 .
 The point group associated with its full space group is S_2 .


Analysis of symmetry for dynamics (positions and initial velocities):
=====================================================================
 Subroutine PRICEL returns:
 Original cell was already a primitive cell.
 

 Routine SETGRP: Setting up the symmetry group for a 
 simple orthorhombic supercell.


 Subroutine GETGRP returns: Found  2 space group operations
 (whereof  1 operations were pure point group operations)
 out of a pool of  8 trial point group operations.


The dynamic configuration has the point symmetry C_1 .
 The point group associated with its full space group is S_2 .


 Subroutine INISYM returns: Found  2 space group operations
 (whereof  1 operations are pure point group operations),
 and found     1 'primitive' translations

 
 
 KPOINTS: k-density: 8.0                          

Automatic generation of k-mesh.
Space group operators:
 irot       det(A)        alpha          n_x          n_y          n_z        tau_x        tau_y        tau_z
    1     1.000000     0.000000     1.000000     0.000000     0.000000     0.000000     0.000000     0.000000
    2    -1.000000     0.000000     1.000000     0.000000     0.000000    -0.624754     0.036311    -0.968552
 
 Subroutine IBZKPT returns following result:
 ===========================================
 
 Found     21 irreducible k-points:
 
 Following reciprocal coordinates:
            Coordinates               Weight
  0.000000  0.000000  0.000000      1.000000
  0.000000  0.125000  0.000000      2.000000
  0.000000  0.250000  0.000000      2.000000
  0.000000  0.375000  0.000000      2.000000
  0.000000  0.500000  0.000000      1.000000
  0.000000  0.000000  0.200000      2.000000
  0.000000  0.125000  0.200000      2.000000
  0.000000  0.250000  0.200000      2.000000
  0.000000  0.375000  0.200000      2.000000
  0.000000  0.500000  0.200000      2.000000
  0.000000 -0.375000  0.200000      2.000000
  0.000000 -0.250000  0.200000      2.000000
  0.000000 -0.125000  0.200000      2.000000
  0.000000  0.000000  0.400000      2.000000
  0.000000  0.125000  0.400000      2.000000
  0.000000  0.250000  0.400000      2.000000
  0.000000  0.375000  0.400000      2.000000
  0.000000  0.500000  0.400000      2.000000
  0.000000 -0.375000  0.400000      2.000000
  0.000000 -0.250000  0.400000      2.000000
  0.000000 -0.125000  0.400000      2.000000
 
 Following cartesian coordinates:
            Coordinates               Weight
  0.000000  0.000000  0.000000      1.000000
  0.000000  0.019112  0.000000      2.000000
  0.000000  0.038224  0.000000      2.000000
  0.000000  0.057336  0.000000      2.000000
  0.000000  0.076448  0.000000      1.000000
  0.000000  0.000000  0.017780      2.000000
  0.000000  0.019112  0.017780      2.000000
  0.000000  0.038224  0.017780      2.000000
  0.000000  0.057336  0.017780      2.000000
  0.000000  0.076448  0.017780      2.000000
  0.000000 -0.057336  0.017780      2.000000
  0.000000 -0.038224  0.017780      2.000000
  0.000000 -0.019112  0.017780      2.000000
  0.000000  0.000000  0.035561      2.000000
  0.000000  0.019112  0.035561      2.000000
  0.000000  0.038224  0.035561      2.000000
  0.000000  0.057336  0.035561      2.000000
  0.000000  0.076448  0.035561      2.000000
  0.000000 -0.057336  0.035561      2.000000
  0.000000 -0.038224  0.035561      2.000000
  0.000000 -0.019112  0.035561      2.000000
 
 TETIRR: Found    118 inequivalent tetrahedra from      240


--------------------------------------------------------------------------------------------------------




 Dimension of arrays:
   k-points           NKPTS =     21   k-points in BZ     NKDIM =     21   number of bands    NBANDS=     88
   number of dos      NEDOS =   2801   number of ions     NIONS =     24
   non local maximal  LDIM  =      6   non local SUM 2l+1 LMDIM =     18
   total plane-waves  NPLWV = 322560
   max r-space proj   IRMAX =   2977   max aug-charges    IRDMAX=  11629
   dimension x,y,z NGX =   140 NGY =   36 NGZ =   64
   dimension x,y,z NGXF=   280 NGYF=   72 NGZF=  128
   support grid    NGXF=   280 NGYF=   72 NGZF=  128
   ions per type =               8  16
   NGX,Y,Z   is equivalent  to a cutoff of   9.69,  9.15,  9.46 a.u.
   NGXF,Y,Z  is equivalent  to a cutoff of  19.39, 18.30, 18.92 a.u.

 SYSTEM =  unknown system                          
 POSCAR =  ba8 si16                                

 Startparameter for this run:
   NWRITE =      2    write-flag & timer
   PREC   = normal    normal or accurate (medium, high low for compatibility)
   ISTART =      0    job   : 0-new  1-cont  2-samecut
   ICHARG =     11    charge: 1-file 2-atom 10-const
   ISPIN  =      1    spin polarized calculation?
   LNONCOLLINEAR =      F non collinear calculations
   LSORBIT =      F    spin-orbit coupling
   INIWAV =      1    electr: 0-lowe 1-rand  2-diag
   LASPH  =      T    aspherical Exc in radial PAW
   METAGGA=      F    non-selfconsistent MetaGGA calc.

 Electronic Relaxation 1
   ENCUT  =  500.0 eV  36.75 Ry    6.06 a.u.  43.77 11.92 20.51*2*pi/ulx,y,z
   ENINI  =  500.0     initial cutoff
   ENAUG  =  351.2 eV  augmentation charge cutoff
   NELM   =    100;   NELMIN=  2; NELMDL= -5     # of ELM steps 
   EDIFF  = 0.1E-05   stopping-criterion for ELM
   LREAL  =      T    real-space projection
   NLSPLINE    = F    spline interpolate recip. space projectors
   LCOMPAT=      F    compatible to vasp.4.4
   GGA_COMPAT  = T    GGA compatible to vasp.4.4-vasp.4.6
   LMAXPAW     = -100 max onsite density
   LMAXMIX     =    2 max onsite mixed and CHGCAR
   VOSKOWN=      0    Vosko Wilk Nusair interpolation
   ROPT   =   -0.00050  -0.00050
 Ionic relaxation
   EDIFFG = -.1E-01   stopping-criterion for IOM
   NSW    =      0    number of steps for IOM
   NBLOCK =      1;   KBLOCK =      1    inner block; outer block 
   IBRION =     -1    ionic relax: 0-MD 1-quasi-New 2-CG
   NFREE  =      0    steps in history (QN), initial steepest desc. (CG)
   ISIF   =      2    stress and relaxation
   IWAVPR =     10    prediction:  0-non 1-charg 2-wave 3-comb
   ISYM   =      2    0-nonsym 1-usesym 2-fastsym
   LCORR  =      T    Harris-Foulkes like correction to forces

   POTIM  = 0.3000    time-step for ionic-motion
   TEIN   =    0.0    initial temperature
   TEBEG  =    0.0;   TEEND  =   0.0 temperature during run
   SMASS  =  -3.00    Nose mass-parameter (am)
   estimated Nose-frequenzy (Omega)   =  0.10E-29 period in steps =****** mass=  -0.132E-25a.u.
   SCALEE = 1.0000    scale energy and forces
   NPACO  =    256;   APACO  = 16.0  distance and # of slots for P.C.
   PSTRESS=    0.0 pullay stress

  Mass of Ions in am
   POMASS = 137.33 28.09
  Ionic Valenz
   ZVAL   =  10.00  4.00
  Atomic Wigner-Seitz radii
   RWIGS  =  -1.00 -1.00
  virtual crystal weights 
   VCA    =   1.00  1.00
   NELECT =     144.0000    total number of electrons
   NUPDOWN=      -1.0000    fix difference up-down

 DOS related values:
   EMIN   = -10.00;   EMAX   = 18.00  energy-range for DOS
   EFERMI =   0.00
   ISMEAR =    -5;   SIGMA  =   0.01  broadening in eV -4-tet -1-fermi 0-gaus

 Electronic relaxation 2 (details)
   IALGO  =     38    algorithm
   LDIAG  =      T    sub-space diagonalisation (order eigenvalues)
   LSUBROT=      F    optimize rotation matrix (better conditioning)
   TURBO    =      0    0=normal 1=particle mesh
   IRESTART =      0    0=no restart 2=restart with 2 vectors
   NREBOOT  =      0    no. of reboots
   NMIN     =      0    reboot dimension
   EREF     =   0.00    reference energy to select bands
   IMIX   =      4    mixing-type and parameters
     AMIX     =   0.40;   BMIX     =  1.00
     AMIX_MAG =   1.60;   BMIX_MAG =  1.00
     AMIN     =   0.10
     WC   =   100.;   INIMIX=   1;  MIXPRE=   1;  MAXMIX= -45

 Intra band minimization:
   WEIMIN = 0.0000     energy-eigenvalue tresh-hold
   EBREAK =  0.28E-08  absolut break condition
   DEPER  =   0.30     relativ break condition  

   TIME   =   0.40     timestep for ELM

  volume/ion in A,a.u.               =      73.60       496.66
  Fermi-wavevector in a.u.,A,eV,Ry     =   0.709856  1.341434  6.855925  0.503896
  Thomas-Fermi vector in A             =   1.796549
 
 Write flags
   LWAVE        =      T    write WAVECAR
   LDOWNSAMPLE  =      F    k-point downsampling of WAVECAR
   LCHARG       =      T    write CHGCAR
   LVTOT        =      F    write LOCPOT, total local potential
   LVHAR        =      F    write LOCPOT, Hartree potential only
   LELF         =      F    write electronic localiz. function (ELF)
   LORBIT       =     11    0 simple, 1 ext, 2 COOP (PROOUT), +10 PAW based schemes


 Dipole corrections
   LMONO  =      F    monopole corrections only (constant potential shift)
   LDIPOL =      F    correct potential (dipole corrections)
   IDIPOL =      0    1-x, 2-y, 3-z, 4-all directions 
   EPSILON=  1.0000000 bulk dielectric constant

 Exchange correlation treatment:
   GGA     =    MK    GGA type
   LEXCH   =    43    internal setting for exchange type
   VOSKOWN=      0    Vosko Wilk Nusair interpolation
   LHFCALC =     F    Hartree Fock is set to
   LHFONE  =     F    Hartree Fock one center treatment
   AEXX    =    0.0000 exact exchange contribution

 vdW DFT:
   LUSE_VDW   =     T    switch on vdW DFT
   Zab_VDW    =******    correlation parameter
   PARAM1     =0.1234
   PARAM2     =0.7114
   PARAM3     =0.0000
   -- rVV10 --
   BPARAM     = 6.3000
   CPARAM     = 0.0093

 Linear response parameters
   LEPSILON=     F    determine dielectric tensor
   LRPA    =     F    only Hartree local field effects (RPA)
   LNABLA  =     F    use nabla operator in PAW spheres
   LVEL    =     F    velocity operator in full k-point grid
   LINTERFAST=   F  fast interpolation
   KINTER  =     0    interpolate to denser k-point grid
   CSHIFT  =0.1000    complex shift for real part using Kramers Kronig
   OMEGAMAX=  -1.0    maximum frequency
   DEG_THRESHOLD= 0.2000000E-02 threshold for treating states as degnerate
   RTIME   =   -0.100 relaxation time in fs
  (WPLASMAI=    0.000 imaginary part of plasma frequency in eV, 0.658/RTIME)
   DFIELD  = 0.0000000 0.0000000 0.0000000 field for delta impulse in time
 
 Orbital magnetization related:
   ORBITALMAG=     F  switch on orbital magnetization
   LCHIMAG   =     F  perturbation theory with respect to B field
   DQ        =  0.001000  dq finite difference perturbation B field
   LLRAUG    =     F  two centre corrections for induced B field



--------------------------------------------------------------------------------------------------------


 Static calculation
 charge density and potential remain constant during run
 non-spin polarized calculation
 Variant of blocked Davidson
 Davidson routine will perform the subspace rotation
 perform sub-space diagonalisation
    after iterative eigenvector-optimisation
 no mixing
 using additional bands           16
 real space projection scheme for non local part
 use partial core corrections
 calculate Harris-corrections to forces 
   (improved forces if not selfconsistent)
 use gradient corrections 
 WARNING: stress and forces are not correct
  (second derivative of E(xc) not defined)
 use of overlap-Matrix (Vanderbilt PP)
 Fermi weights with tetrahedron method with Bloechl corrections


--------------------------------------------------------------------------------------------------------


  energy-cutoff  :      500.00
  volume of cell :     1766.34
      direct lattice vectors                 reciprocal lattice vectors
    24.009468079  0.000000000  0.000000000     0.041650236  0.000000000  0.000000000
     0.000000000  6.540361940  0.000000000     0.000000000  0.152896737  0.000000000
     0.000000000  0.000000000 11.248405831     0.000000000  0.000000000  0.088901487

  length of vectors
    24.009468079  6.540361940 11.248405831     0.041650236  0.152896737  0.088901487


 
 k-points in units of 2pi/SCALE and weight: k-density: 8.0                          
   0.00000000  0.00000000  0.00000000       0.025
   0.00000000  0.01911209  0.00000000       0.050
   0.00000000  0.03822418  0.00000000       0.050
   0.00000000  0.05733628  0.00000000       0.050
   0.00000000  0.07644837  0.00000000       0.025
   0.00000000  0.00000000  0.01778030       0.050
   0.00000000  0.01911209  0.01778030       0.050
   0.00000000  0.03822418  0.01778030       0.050
   0.00000000  0.05733628  0.01778030       0.050
   0.00000000  0.07644837  0.01778030       0.050
   0.00000000 -0.05733628  0.01778030       0.050
   0.00000000 -0.03822418  0.01778030       0.050
   0.00000000 -0.01911209  0.01778030       0.050
   0.00000000  0.00000000  0.03556059       0.050
   0.00000000  0.01911209  0.03556059       0.050
   0.00000000  0.03822418  0.03556059       0.050
   0.00000000  0.05733628  0.03556059       0.050
   0.00000000  0.07644837  0.03556059       0.050
   0.00000000 -0.05733628  0.03556059       0.050
   0.00000000 -0.03822418  0.03556059       0.050
   0.00000000 -0.01911209  0.03556059       0.050
 
 k-points in reciprocal lattice and weights: k-density: 8.0                          
   0.00000000  0.00000000  0.00000000       0.025
   0.00000000  0.12500000  0.00000000       0.050
   0.00000000  0.25000000  0.00000000       0.050
   0.00000000  0.37500000  0.00000000       0.050
   0.00000000  0.50000000  0.00000000       0.025
   0.00000000  0.00000000  0.20000000       0.050
   0.00000000  0.12500000  0.20000000       0.050
   0.00000000  0.25000000  0.20000000       0.050
   0.00000000  0.37500000  0.20000000       0.050
   0.00000000  0.50000000  0.20000000       0.050
   0.00000000 -0.37500000  0.20000000       0.050
   0.00000000 -0.25000000  0.20000000       0.050
   0.00000000 -0.12500000  0.20000000       0.050
   0.00000000  0.00000000  0.40000000       0.050
   0.00000000  0.12500000  0.40000000       0.050
   0.00000000  0.25000000  0.40000000       0.050
   0.00000000  0.37500000  0.40000000       0.050
   0.00000000  0.50000000  0.40000000       0.050
   0.00000000 -0.37500000  0.40000000       0.050
   0.00000000 -0.25000000  0.40000000       0.050
   0.00000000 -0.12500000  0.40000000       0.050
 
 position of ions in fractional coordinates (direct lattice) 
   0.01027447  0.26886387  0.71532901
   0.36497200  0.76744725  0.31611878
   0.17726435  0.76829560  0.20933671
   0.19798212  0.26801551  0.82211105
   0.08647491  0.76869176  0.93045028
   0.28877156  0.26761936  0.10099748
   0.13042964  0.26840416  0.40964849
   0.24481683  0.76790696  0.62179934
   0.06358407  0.08479145  0.16586303
   0.31166240  0.95151964  0.86558473
   0.11548180  0.95204790  0.65689244
   0.25976467  0.08426319  0.37455534
   0.31159608  0.58416415  0.86546113
   0.06365038  0.45214695  0.16598663
   0.25972208  0.45068934  0.37429497
   0.11552438  0.58562176  0.65715282
   0.02815493  0.76884495  0.63059690
   0.34709153  0.26746616  0.40085088
   0.14737799  0.26853035  0.09734576
   0.22786848  0.76778077  0.93410201
   0.06321363  0.26870167  0.97976296
   0.31203283  0.76760945  0.05168484
   0.09739594  0.76831826  0.47351325
   0.27785053  0.26799285  0.55793446
 
 position of ions in cartesian coordinates  (Angst):
   0.24668444  1.75846699  8.04631100
   8.76278366  5.01938280  3.55583228
   4.25602280  5.02493133  2.35470430
   4.75344528  1.75291847  9.24743875
   2.07621661  5.02752231 10.46608241
   6.93325147  1.75032748  1.13606064
   3.13154627  1.75546036  4.60789244
   5.87792180  5.02238943  6.99425132
   1.52661971  0.55456675  1.86569468
   7.48284837  6.22328287  9.73644837
   2.77265660  6.22673783  7.38899280
   6.23681148  0.55111179  4.21315049
   7.48125624  3.82064496  9.73505807
   1.52821183  2.95720472  1.86708498
   6.23578907  2.94767141  4.21022169
   2.77367901  3.83017827  7.39192159
   0.67598482  5.02852427  7.09320987
   8.33348308  1.74932553  4.50893342
   3.53846722  1.75628567  1.09498458
   5.47100110  5.02156412 10.50715847
   1.51772565  1.75740619 11.02077140
   7.49174231  5.02044361  0.58137207
   2.33842468  5.02507953  5.32626916
   6.67104340  1.75277026  6.27587318
 


--------------------------------------------------------------------------------------------------------


 k-point  1 :   0.0000 0.0000 0.0000  plane waves:   44837
 k-point  2 :   0.0000 0.1250 0.0000  plane waves:   44848
 k-point  3 :   0.0000 0.2500 0.0000  plane waves:   44858
 k-point  4 :   0.0000 0.3750 0.0000  plane waves:   44876
 k-point  5 :   0.0000 0.5000 0.0000  plane waves:   44844
 k-point  6 :   0.0000 0.0000 0.2000  plane waves:   44765
 k-point  7 :   0.0000 0.1250 0.2000  plane waves:   44826
 k-point  8 :   0.0000 0.2500 0.2000  plane waves:   44870
 k-point  9 :   0.0000 0.3750 0.2000  plane waves:   44865
 k-point 10 :   0.0000 0.5000 0.2000  plane waves:   44866
 k-point 11 :   0.0000-0.3750 0.2000  plane waves:   44865
 k-point 12 :   0.0000-0.2500 0.2000  plane waves:   44870
 k-point 13 :   0.0000-0.1250 0.2000  plane waves:   44826
 k-point 14 :   0.0000 0.0000 0.4000  plane waves:   44811
 k-point 15 :   0.0000 0.1250 0.4000  plane waves:   44789
 k-point 16 :   0.0000 0.2500 0.4000  plane waves:   44852
 k-point 17 :   0.0000 0.3750 0.4000  plane waves:   44851
 k-point 18 :   0.0000 0.5000 0.4000  plane waves:   44860
 k-point 19 :   0.0000-0.3750 0.4000  plane waves:   44851
 k-point 20 :   0.0000-0.2500 0.4000  plane waves:   44852
 k-point 21 :   0.0000-0.1250 0.4000  plane waves:   44789

 maximum and minimum number of plane-waves per node :     11349    11068

 maximum number of plane-waves:     44876
 maximum index in each direction: 
   IXMAX=   43   IYMAX=   12   IZMAX=   20
   IXMIN=  -43   IYMIN=  -12   IZMIN=  -20


 real space projection operators:
  total allocation   :       4365.84 KBytes
  max/ min on nodes  :       1098.55       1087.22


 parallel 3D FFT for wavefunctions:
    minimum data exchange during FFTs selected (reduces bandwidth)
 parallel 3D FFT for charge:
    minimum data exchange during FFTs selected (reduces bandwidth)


 total amount of memory used by VASP MPI-rank0    88132. kBytes
=======================================================================

   base      :      30000. kBytes
   nonlr-proj:       2554. kBytes
   fftplans  :       5320. kBytes
   grid      :       7942. kBytes
   one-center:         93. kBytes
   wavefun   :      42223. kBytes
 
     INWAV:  cpu time    0.0001: real time    0.0003
 initial charge density was supplied:
 number of electron     144.0000006 magnetization 
 keeping initial charge density in first step


--------------------------------------------------------------------------------------------------------


 Maximum index for non-local projection operator          722
 Maximum index for augmentation-charges          560 (set IRDMAX)


--------------------------------------------------------------------------------------------------------


 First call to EWALD:  gamma=   0.147
 Maximum number of real-space cells 2x 5x 3
 Maximum number of reciprocal cells 5x 2x 3

    FEWALD:  cpu time    0.0465: real time    0.0466


--------------------------------------- Iteration      1(   1)  ---------------------------------------


vdW kernel read from vdw_kernel.bindat
  0.0000  0.2424  0.5071  0.7962  1.1119  1.4567  1.8333  2.2446  2.6937  3.1842
  3.7199  4.3049  4.9438  5.6415  6.4036  7.2358  8.1446  9.1372 10.2212 11.4050
 12.6979 14.1099 15.6519 17.3360 19.1751 21.1837 23.3773 25.7729 28.3892 31.2465
 34.3669 37.7748 41.4965 45.5611 50.0000
 
    POTLOK:  cpu time    2.7257: real time    3.2229
    SETDIJ:  cpu time    0.0032: real time    0.0035
     EDDAV:  cpu time    4.2729: real time    4.2882
 BZINTS: Fermi energy:  7.524221;144.000000 electrons
         Band energy:-253.857644;  BLOECHL correction: -0.026791
       DOS:  cpu time    0.0157: real time    0.0159
    --------------------------------------------
      LOOP:  cpu time    7.0175: real time    7.5305

 eigenvalue-minimisations  :  3856
 total energy-change (2. order) : 0.1109457E+04  (-0.4715620E+04)
 number of electron     144.0000006 magnetization 
 augmentation part      144.0000006 magnetization 

 Free energy of the ion-electron system (eV)
  ---------------------------------------------------
  alpha Z        PSCENC =       182.20216268
  Ewald energy   TEWEN  =     14168.75486563
  -Hartree energ DENC   =    -20599.18573235
  -exchange      EXHF   =         0.00000000
  -V(xc)+E(xc)   XCENC  =        47.86297257
  PAW double counting   =      3870.05451552    -3575.52578058
  entropy T*S    EENTRO =         0.00000000
  eigenvalues    EBANDS =      -253.85764364
  atomic energy  EATOM  =      7269.15145414
  Solvation  Ediel_sol  =         0.00000000
  ---------------------------------------------------
  free energy    TOTEN  =      1109.45681396 eV

  energy without entropy =     1109.45681396  energy(sigma->0) =     1109.45681396


--------------------------------------------------------------------------------------------------------




--------------------------------------- Iteration      1(   2)  ---------------------------------------


     EDDAV:  cpu time    5.9016: real time    5.9168
 BZINTS: Fermi energy:  0.780039;144.000000 electrons
         Band energy:***********;  BLOECHL correction:  0.000000
       DOS:  cpu time    0.0073: real time    0.0073
    --------------------------------------------
      LOOP:  cpu time    5.9088: real time    5.9241

 eigenvalue-minimisations  :  5600
 total energy-change (2. order) :-0.1029363E+04  (-0.1001363E+04)
 number of electron     144.0000006 magnetization 
 augmentation part      144.0000006 magnetization 

 Free energy of the ion-electron system (eV)
  ---------------------------------------------------
  alpha Z        PSCENC =       182.20216268
  Ewald energy   TEWEN  =     14168.75486563
  -Hartree energ DENC   =    -20599.18573235
  -exchange      EXHF   =         0.00000000
  -V(xc)+E(xc)   XCENC  =        47.86297257
  PAW double counting   =      3870.05451552    -3575.52578058
  entropy T*S    EENTRO =         0.00000000
  eigenvalues    EBANDS =     -1283.22076716
  atomic energy  EATOM  =      7269.15145414
  Solvation  Ediel_sol  =         0.00000000
  ---------------------------------------------------
  free energy    TOTEN  =        80.09369045 eV

  energy without entropy =       80.09369045  energy(sigma->0) =       80.09369045


--------------------------------------------------------------------------------------------------------




--------------------------------------- Iteration      1(   3)  ---------------------------------------


     EDDAV:  cpu time    4.8046: real time    4.8170
 BZINTS: Fermi energy: -0.768750;144.000000 electrons
         Band energy:***********;  BLOECHL correction:  0.000000
       DOS:  cpu time    0.0059: real time    0.0060
    --------------------------------------------
      LOOP:  cpu time    4.8106: real time    4.8230

 eigenvalue-minimisations  :  4576
 total energy-change (2. order) :-0.1653495E+03  (-0.1644253E+03)
 number of electron     144.0000006 magnetization 
 augmentation part      144.0000006 magnetization 

 Free energy of the ion-electron system (eV)
  ---------------------------------------------------
  alpha Z        PSCENC =       182.20216268
  Ewald energy   TEWEN  =     14168.75486563
  -Hartree energ DENC   =    -20599.18573235
  -exchange      EXHF   =         0.00000000
  -V(xc)+E(xc)   XCENC  =        47.86297257
  PAW double counting   =      3870.05451552    -3575.52578058
  entropy T*S    EENTRO =         0.00000000
  eigenvalues    EBANDS =     -1448.57024238
  atomic energy  EATOM  =      7269.15145414
  Solvation  Ediel_sol  =         0.00000000
  ---------------------------------------------------
  free energy    TOTEN  =       -85.25578478 eV

  energy without entropy =      -85.25578478  energy(sigma->0) =      -85.25578478


--------------------------------------------------------------------------------------------------------




--------------------------------------- Iteration      1(   4)  ---------------------------------------


     EDDAV:  cpu time    5.2977: real time    5.3114
 BZINTS: Fermi energy: -0.827500;144.000000 electrons
         Band energy:***********;  BLOECHL correction:  0.000000
       DOS:  cpu time    0.0053: real time    0.0053
    --------------------------------------------
      LOOP:  cpu time    5.3031: real time    5.3167

 eigenvalue-minimisations  :  5168
 total energy-change (2. order) :-0.5799651E+01  (-0.5777703E+01)
 number of electron     144.0000006 magnetization 
 augmentation part      144.0000006 magnetization 

 Free energy of the ion-electron system (eV)
  ---------------------------------------------------
  alpha Z        PSCENC =       182.20216268
  Ewald energy   TEWEN  =     14168.75486563
  -Hartree energ DENC   =    -20599.18573235
  -exchange      EXHF   =         0.00000000
  -V(xc)+E(xc)   XCENC  =        47.86297257
  PAW double counting   =      3870.05451552    -3575.52578058
  entropy T*S    EENTRO =         0.00000000
  eigenvalues    EBANDS =     -1454.36989357
  atomic energy  EATOM  =      7269.15145414
  Solvation  Ediel_sol  =         0.00000000
  ---------------------------------------------------
  free energy    TOTEN  =       -91.05543596 eV

  energy without entropy =      -91.05543596  energy(sigma->0) =      -91.05543596


--------------------------------------------------------------------------------------------------------




--------------------------------------- Iteration      1(   5)  ---------------------------------------


     EDDAV:  cpu time    6.0816: real time    6.0973
 BZINTS: Fermi energy: -0.827500;144.000000 electrons
         Band energy:***********;  BLOECHL correction:  0.000000
       DOS:  cpu time    0.0072: real time    0.0072
    --------------------------------------------
      LOOP:  cpu time    6.0889: real time    6.1045

 eigenvalue-minimisations  :  5872
 total energy-change (2. order) :-0.2415450E+00  (-0.2414439E+00)
 number of electron     144.0000006 magnetization 
 augmentation part      144.0000006 magnetization 

 Free energy of the ion-electron system (eV)
  ---------------------------------------------------
  alpha Z        PSCENC =       182.20216268
  Ewald energy   TEWEN  =     14168.75486563
  -Hartree energ DENC   =    -20599.18573235
  -exchange      EXHF   =         0.00000000
  -V(xc)+E(xc)   XCENC  =        47.86297257
  PAW double counting   =      3870.05451552    -3575.52578058
  entropy T*S    EENTRO =         0.00000000
  eigenvalues    EBANDS =     -1454.61143854
  atomic energy  EATOM  =      7269.15145414
  Solvation  Ediel_sol  =         0.00000000
  ---------------------------------------------------
  free energy    TOTEN  =       -91.29698093 eV

  energy without entropy =      -91.29698093  energy(sigma->0) =      -91.29698093


--------------------------------------------------------------------------------------------------------




--------------------------------------- Iteration      1(   6)  ---------------------------------------


     EDDAV:  cpu time    5.3287: real time    5.3426
 BZINTS: Fermi energy: -0.827500;144.000000 electrons
         Band energy:***********;  BLOECHL correction:  0.000000
       DOS:  cpu time    0.0069: real time    0.0070
    --------------------------------------------
      LOOP:  cpu time    5.3356: real time    5.3495

 eigenvalue-minimisations  :  5160
 total energy-change (2. order) :-0.4929298E-02  (-0.4928120E-02)
 number of electron     144.0000006 magnetization 
 augmentation part      144.0000006 magnetization 

 Free energy of the ion-electron system (eV)
  ---------------------------------------------------
  alpha Z        PSCENC =       182.20216268
  Ewald energy   TEWEN  =     14168.75486563
  -Hartree energ DENC   =    -20599.18573235
  -exchange      EXHF   =         0.00000000
  -V(xc)+E(xc)   XCENC  =        47.86297257
  PAW double counting   =      3870.05451552    -3575.52578058
  entropy T*S    EENTRO =         0.00000000
  eigenvalues    EBANDS =     -1454.61636784
  atomic energy  EATOM  =      7269.15145414
  Solvation  Ediel_sol  =         0.00000000
  ---------------------------------------------------
  free energy    TOTEN  =       -91.30191023 eV

  energy without entropy =      -91.30191023  energy(sigma->0) =      -91.30191023


--------------------------------------------------------------------------------------------------------




--------------------------------------- Iteration      1(   7)  ---------------------------------------


     EDDAV:  cpu time    5.9384: real time    5.9533
 BZINTS: Fermi energy: -0.827500;144.000000 electrons
         Band energy:***********;  BLOECHL correction:  0.000000
       DOS:  cpu time    0.0052: real time    0.0052
    --------------------------------------------
      LOOP:  cpu time    5.9436: real time    5.9585

 eigenvalue-minimisations  :  5872
 total energy-change (2. order) :-0.2123123E-03  (-0.2122797E-03)
 number of electron     144.0000006 magnetization 
 augmentation part      144.0000006 magnetization 

 Free energy of the ion-electron system (eV)
  ---------------------------------------------------
  alpha Z        PSCENC =       182.20216268
  Ewald energy   TEWEN  =     14168.75486563
  -Hartree energ DENC   =    -20599.18573235
  -exchange      EXHF   =         0.00000000
  -V(xc)+E(xc)   XCENC  =        47.86297257
  PAW double counting   =      3870.05451552    -3575.52578058
  entropy T*S    EENTRO =         0.00000000
  eigenvalues    EBANDS =     -1454.61658015
  atomic energy  EATOM  =      7269.15145414
  Solvation  Ediel_sol  =         0.00000000
  ---------------------------------------------------
  free energy    TOTEN  =       -91.30212254 eV

  energy without entropy =      -91.30212254  energy(sigma->0) =      -91.30212254


--------------------------------------------------------------------------------------------------------




--------------------------------------- Iteration      1(   8)  ---------------------------------------


     EDDAV:  cpu time    5.3567: real time    5.3704
 BZINTS: Fermi energy: -0.827500;144.000000 electrons
         Band energy:***********;  BLOECHL correction:  0.000000
       DOS:  cpu time    0.0056: real time    0.0056
    --------------------------------------------
      LOOP:  cpu time    5.3623: real time    5.3760

 eigenvalue-minimisations  :  4824
 total energy-change (2. order) :-0.1001634E-04  (-0.1001553E-04)
 number of electron     144.0000006 magnetization 
 augmentation part      144.0000006 magnetization 

 Free energy of the ion-electron system (eV)
  ---------------------------------------------------
  alpha Z        PSCENC =       182.20216268
  Ewald energy   TEWEN  =     14168.75486563
  -Hartree energ DENC   =    -20599.18573235
  -exchange      EXHF   =         0.00000000
  -V(xc)+E(xc)   XCENC  =        47.86297257
  PAW double counting   =      3870.05451552    -3575.52578058
  entropy T*S    EENTRO =         0.00000000
  eigenvalues    EBANDS =     -1454.61659017
  atomic energy  EATOM  =      7269.15145414
  Solvation  Ediel_sol  =         0.00000000
  ---------------------------------------------------
  free energy    TOTEN  =       -91.30213256 eV

  energy without entropy =      -91.30213256  energy(sigma->0) =      -91.30213256


--------------------------------------------------------------------------------------------------------




--------------------------------------- Iteration      1(   9)  ---------------------------------------


     EDDAV:  cpu time    4.4050: real time    4.4164
 BZINTS: Fermi energy: -0.827500;144.000000 electrons
         Band energy:***********;  BLOECHL correction:  0.000000
       DOS:  cpu time    0.0072: real time    0.0072
    --------------------------------------------
      LOOP:  cpu time    4.4122: real time    4.4236

 eigenvalue-minimisations  :  4000
 total energy-change (2. order) :-0.5336915E-06  (-0.5336777E-06)
 number of electron     144.0000006 magnetization 
 augmentation part      144.0000006 magnetization 

 Free energy of the ion-electron system (eV)
  ---------------------------------------------------
  alpha Z        PSCENC =       182.20216268
  Ewald energy   TEWEN  =     14168.75486563
  -Hartree energ DENC   =    -20599.18573235
  -exchange      EXHF   =         0.00000000
  -V(xc)+E(xc)   XCENC  =        47.86297257
  PAW double counting   =      3870.05451552    -3575.52578058
  entropy T*S    EENTRO =         0.00000000
  eigenvalues    EBANDS =     -1454.61659070
  atomic energy  EATOM  =      7269.15145414
  Solvation  Ediel_sol  =         0.00000000
  ---------------------------------------------------
  free energy    TOTEN  =       -91.30213309 eV

  energy without entropy =      -91.30213309  energy(sigma->0) =      -91.30213309


--------------------------------------------------------------------------------------------------------




 average (electrostatic) potential at core
  the test charge radii are     1.2192  0.9892
  (the norm of the test charge is              1.0000)
       1 -41.4232       2 -41.4234       3 -40.2630       4 -40.2629       5 -40.3147
       6 -40.3147       7 -40.3606       8 -40.3606       9 -89.1108      10 -89.1107
      11 -89.4090      12 -89.4091      13 -89.1109      14 -89.1110      15 -89.4098
      16 -89.4097      17 -89.5522      18 -89.5525      19 -89.0641      20 -89.0641
      21 -89.1137      22 -89.1138      23 -89.4807      24 -89.4807
 
 
 
 E-fermi :  -0.8275     XC(G=0):  -4.3109     alpha+bet : -4.1101


 k-point     1 :       0.0000    0.0000    0.0000
  band No.  band energies     occupation 
      1     -29.2833      2.00000
      2     -29.2831      2.00000
      3     -28.2645      2.00000
      4     -28.2573      2.00000
      5     -28.2288      2.00000
      6     -28.2189      2.00000
      7     -28.1601      2.00000
      8     -28.1494      2.00000
      9     -14.6636      2.00000
     10     -14.6618      2.00000
     11     -14.5836      2.00000
     12     -14.5825      2.00000
     13     -14.5065      2.00000
     14     -14.5060      2.00000
     15     -13.9553      2.00000
     16     -13.8542      2.00000
     17     -13.7916      2.00000
     18     -13.7703      2.00000
     19     -13.7115      2.00000
     20     -13.6883      2.00000
     21     -13.6717      2.00000
     22     -13.6155      2.00000
     23     -13.6003      2.00000
     24     -13.5751      2.00000
     25     -13.5596      2.00000
     26     -13.5456      2.00000
     27     -13.4377      2.00000
     28     -13.4165      2.00000
     29     -13.3876      2.00000
     30     -13.3780      2.00000
     31     -13.3482      2.00000
     32     -13.3478      2.00000
     33     -11.3917      2.00000
     34     -11.2809      2.00000
     35     -10.9145      2.00000
     36     -10.8930      2.00000
     37      -6.6743      2.00000
     38      -6.6440      2.00000
     39      -6.4992      2.00000
     40      -6.4590      2.00000
     41      -6.4400      2.00000
     42      -6.4381      2.00000
     43      -6.2250      2.00000
     44      -6.1744      2.00000
     45      -6.1500      2.00000
     46      -6.0714      2.00000
     47      -5.8350      2.00000
     48      -5.8145      2.00000
     49      -3.8216      2.00000
     50      -3.3972      2.00000
     51      -2.9150      2.00000
     52      -2.9010      2.00000
     53      -2.6501      2.00000
     54      -2.4552      2.00000
     55      -2.3019      2.00000
     56      -2.2811      2.00000
     57      -2.1397      2.00000
     58      -2.0830      2.00000
     59      -1.9722      2.00000
     60      -1.9671      2.00000
     61      -1.7622      2.00000
     62      -1.7280      2.00000
     63      -1.6607      2.00000
     64      -1.6448      2.00000
     65      -1.5387      2.00000
     66      -1.4268      2.00000
     67      -1.4087      2.00000
     68      -1.2933      2.00000
     69      -1.2506      2.00000
     70      -1.2266      2.00000
     71      -1.0063      2.00000
     72      -0.8320      2.00000
     73       0.4690      0.00000
     74       0.5029      0.00000
     75       0.5136      0.00000
     76       0.5261      0.00000
     77       0.5566      0.00000
     78       0.6715      0.00000
     79       0.8390      0.00000
     80       0.9367      0.00000
     81       1.0581      0.00000
     82       1.2043      0.00000
     83       1.2507      0.00000
     84       1.3555      0.00000
     85       1.4033      0.00000
     86       1.5576      0.00000
     87       1.5688      0.00000
     88       1.6812      0.00000

 k-point     2 :       0.0000    0.1250    0.0000
  band No.  band energies     occupation 
      1     -29.2833      2.00000
      2     -29.2831      2.00000
      3     -28.2635      2.00000
      4     -28.2569      2.00000
      5     -28.2286      2.00000
      6     -28.2193      2.00000
      7     -28.1603      2.00000
      8     -28.1503      2.00000
      9     -14.6623      2.00000
     10     -14.6606      2.00000
     11     -14.5843      2.00000
     12     -14.5833      2.00000
     13     -14.5120      2.00000
     14     -14.5116      2.00000
     15     -13.9517      2.00000
     16     -13.8558      2.00000
     17     -13.8234      2.00000
     18     -13.7386      2.00000
     19     -13.7364      2.00000
     20     -13.6825      2.00000
     21     -13.6724      2.00000
     22     -13.6543      2.00000
     23     -13.5917      2.00000
     24     -13.5578      2.00000
     25     -13.5537      2.00000
     26     -13.5508      2.00000
     27     -13.4290      2.00000
     28     -13.4172      2.00000
     29     -13.3850      2.00000
     30     -13.3718      2.00000
     31     -13.3511      2.00000
     32     -13.3492      2.00000
     33     -11.3708      2.00000
     34     -11.2734      2.00000
     35     -10.9029      2.00000
     36     -10.8831      2.00000
     37      -6.6454      2.00000
     38      -6.6092      2.00000
     39      -6.5128      2.00000
     40      -6.5030      2.00000
     41      -6.4489      2.00000
     42      -6.4177      2.00000
     43      -6.2144      2.00000
     44      -6.1570      2.00000
     45      -6.1282      2.00000
     46      -6.0758      2.00000
     47      -5.8837      2.00000
     48      -5.8561      2.00000
     49      -3.6876      2.00000
     50      -3.3000      2.00000
     51      -2.8753      2.00000
     52      -2.8297      2.00000
     53      -2.6374      2.00000
     54      -2.4613      2.00000
     55      -2.3308      2.00000
     56      -2.2913      2.00000
     57      -2.1146      2.00000
     58      -2.1065      2.00000
     59      -2.0519      2.00000
     60      -1.9793      2.00000
     61      -1.8428      2.00000
     62      -1.7054      2.00000
     63      -1.6915      2.00000
     64      -1.5583      2.00000
     65      -1.5476      2.00000
     66      -1.5116      2.00000
     67      -1.3460      2.00000
     68      -1.3168      2.00000
     69      -1.2909      2.00000
     70      -1.2490      2.00000
     71      -0.9659      2.00000
     72      -0.8727      2.00000
     73       0.3412      0.00000
     74       0.3527      0.00000
     75       0.5771      0.00000
     76       0.5966      0.00000
     77       0.6693      0.00000
     78       0.7573      0.00000
     79       0.7878      0.00000
     80       0.9671      0.00000
     81       0.9906      0.00000
     82       1.0744      0.00000
     83       1.2532      0.00000
     84       1.3196      0.00000
     85       1.4017      0.00000
     86       1.5026      0.00000
     87       1.6239      0.00000
     88       1.6422      0.00000

 k-point     3 :       0.0000    0.2500    0.0000
  band No.  band energies     occupation 
      1     -29.2832      2.00000
      2     -29.2830      2.00000
      3     -28.2610      2.00000
      4     -28.2560      2.00000
      5     -28.2279      2.00000
      6     -28.2204      2.00000
      7     -28.1606      2.00000
      8     -28.1526      2.00000
      9     -14.6590      2.00000
     10     -14.6577      2.00000
     11     -14.5859      2.00000
     12     -14.5854      2.00000
     13     -14.5253      2.00000
     14     -14.5251      2.00000
     15     -13.9424      2.00000
     16     -13.8637      2.00000
     17     -13.8480      2.00000
     18     -13.7729      2.00000
     19     -13.7412      2.00000
     20     -13.7026      2.00000
     21     -13.6650      2.00000
     22     -13.6589      2.00000
     23     -13.5930      2.00000
     24     -13.5590      2.00000
     25     -13.5572      2.00000
     26     -13.5458      2.00000
     27     -13.4148      2.00000
     28     -13.4053      2.00000
     29     -13.3785      2.00000
     30     -13.3572      2.00000
     31     -13.3561      2.00000
     32     -13.3524      2.00000
     33     -11.3220      2.00000
     34     -11.2563      2.00000
     35     -10.8733      2.00000
     36     -10.8588      2.00000
     37      -6.6560      2.00000
     38      -6.5764      2.00000
     39      -6.5264      2.00000
     40      -6.5085      2.00000
     41      -6.4063      2.00000
     42      -6.3953      2.00000
     43      -6.1879      2.00000
     44      -6.1156      2.00000
     45      -6.1013      2.00000
     46      -6.0876      2.00000
     47      -5.9761      2.00000
     48      -5.9338      2.00000
     49      -3.3701      2.00000
     50      -3.0723      2.00000
     51      -2.8190      2.00000
     52      -2.6309      2.00000
     53      -2.6212      2.00000
     54      -2.4731      2.00000
     55      -2.3861      2.00000
     56      -2.2661      2.00000
     57      -2.1844      2.00000
     58      -2.1751      2.00000
     59      -2.0493      2.00000
     60      -2.0089      2.00000
     61      -1.8922      2.00000
     62      -1.8536      2.00000
     63      -1.7460      2.00000
     64      -1.6701      2.00000
     65      -1.5727      2.00000
     66      -1.4990      2.00000
     67      -1.3519      2.00000
     68      -1.3257      2.00000
     69      -1.2563      2.00000
     70      -1.2048      2.00000
     71      -0.9781      2.00000
     72      -0.9607      2.00000
     73       0.2021      0.00000
     74       0.2997      0.00000
     75       0.4069      0.00000
     76       0.6122      0.00000
     77       0.6608      0.00000
     78       0.7999      0.00000
     79       0.9126      0.00000
     80       0.9541      0.00000
     81       1.0053      0.00000
     82       1.0228      0.00000
     83       1.1046      0.00000
     84       1.3474      0.00000
     85       1.4206      0.00000
     86       1.5228      0.00000
     87       1.5769      0.00000
     88       1.6867      0.00000

 k-point     4 :       0.0000    0.3750    0.0000
  band No.  band energies     occupation 
      1     -29.2832      2.00000
      2     -29.2830      2.00000
      3     -28.2581      2.00000
      4     -28.2555      2.00000
      5     -28.2266      2.00000
      6     -28.2223      2.00000
      7     -28.1603      2.00000
      8     -28.1558      2.00000
      9     -14.6552      2.00000
     10     -14.6545      2.00000
     11     -14.5876      2.00000
     12     -14.5874      2.00000
     13     -14.5388      2.00000
     14     -14.5386      2.00000
     15     -13.9283      2.00000
     16     -13.8820      2.00000
     17     -13.8527      2.00000
     18     -13.8057      2.00000
     19     -13.7627      2.00000
     20     -13.7365      2.00000
     21     -13.6412      2.00000
     22     -13.6344      2.00000
     23     -13.6066      2.00000
     24     -13.5768      2.00000
     25     -13.5610      2.00000
     26     -13.5496      2.00000
     27     -13.3979      2.00000
     28     -13.3826      2.00000
     29     -13.3738      2.00000
     30     -13.3588      2.00000
     31     -13.3570      2.00000
     32     -13.3464      2.00000
     33     -11.2738      2.00000
     34     -11.2426      2.00000
     35     -10.8413      2.00000
     36     -10.8340      2.00000
     37      -6.7230      2.00000
     38      -6.6709      2.00000
     39      -6.4465      2.00000
     40      -6.4184      2.00000
     41      -6.3663      2.00000
     42      -6.3399      2.00000
     43      -6.1742      2.00000
     44      -6.1617      2.00000
     45      -6.0785      2.00000
     46      -6.0604      2.00000
     47      -6.0068      2.00000
     48      -5.9880      2.00000
     49      -3.0395      2.00000
     50      -2.8665      2.00000
     51      -2.7639      2.00000
     52      -2.5907      2.00000
     53      -2.5489      2.00000
     54      -2.4844      2.00000
     55      -2.3739      2.00000
     56      -2.2694      2.00000
     57      -2.2559      2.00000
     58      -2.1934      2.00000
     59      -2.0667      2.00000
     60      -2.0190      2.00000
     61      -1.9496      2.00000
     62      -1.8794      2.00000
     63      -1.8475      2.00000
     64      -1.8172      2.00000
     65      -1.6318      2.00000
     66      -1.5337      2.00000
     67      -1.3187      2.00000
     68      -1.2761      2.00000
     69      -1.2067      2.00000
     70      -1.1527      2.00000
     71      -1.0554      2.00000
     72      -1.0496      2.00000
     73       0.1148      0.00000
     74       0.2089      0.00000
     75       0.2463      0.00000
     76       0.5080      0.00000
     77       0.7399      0.00000
     78       0.7714      0.00000
     79       0.9046      0.00000
     80       0.9661      0.00000
     81       0.9864      0.00000
     82       1.1516      0.00000
     83       1.2021      0.00000
     84       1.2144      0.00000
     85       1.4308      0.00000
     86       1.4350      0.00000
     87       1.5193      0.00000
     88       1.5971      0.00000

 k-point     5 :       0.0000    0.5000    0.0000
  band No.  band energies     occupation 
      1     -29.2831      2.00000
      2     -29.2829      2.00000
      3     -28.2561      2.00000
      4     -28.2560      2.00000
      5     -28.2247      2.00000
      6     -28.2246      2.00000
      7     -28.1587      2.00000
      8     -28.1585      2.00000
      9     -14.6533      2.00000
     10     -14.6531      2.00000
     11     -14.5884      2.00000
     12     -14.5882      2.00000
     13     -14.5445      2.00000
     14     -14.5443      2.00000
     15     -13.9079      2.00000
     16     -13.9074      2.00000
     17     -13.8351      2.00000
     18     -13.8351      2.00000
     19     -13.7601      2.00000
     20     -13.7600      2.00000
     21     -13.6226      2.00000
     22     -13.6223      2.00000
     23     -13.6051      2.00000
     24     -13.6047      2.00000
     25     -13.5571      2.00000
     26     -13.5570      2.00000
     27     -13.3818      2.00000
     28     -13.3818      2.00000
     29     -13.3674      2.00000
     30     -13.3670      2.00000
     31     -13.3490      2.00000
     32     -13.3487      2.00000
     33     -11.2460      2.00000
     34     -11.2458      2.00000
     35     -10.8255      2.00000
     36     -10.8254      2.00000
     37      -6.7317      2.00000
     38      -6.7300      2.00000
     39      -6.4024      2.00000
     40      -6.4017      2.00000
     41      -6.3207      2.00000
     42      -6.3201      2.00000
     43      -6.1929      2.00000
     44      -6.1912      2.00000
     45      -6.0494      2.00000
     46      -6.0491      2.00000
     47      -6.0081      2.00000
     48      -6.0079      2.00000
     49      -2.8374      2.00000
     50      -2.8371      2.00000
     51      -2.6949      2.00000
     52      -2.6938      2.00000
     53      -2.5088      2.00000
     54      -2.5080      2.00000
     55      -2.3386      2.00000
     56      -2.3386      2.00000
     57      -2.1885      2.00000
     58      -2.1878      2.00000
     59      -2.0734      2.00000
     60      -2.0721      2.00000
     61      -1.9657      2.00000
     62      -1.9655      2.00000
     63      -1.7967      2.00000
     64      -1.7955      2.00000
     65      -1.6341      2.00000
     66      -1.6330      2.00000
     67      -1.2674      2.00000
     68      -1.2665      2.00000
     69      -1.1651      2.00000
     70      -1.1648      2.00000
     71      -1.0821      2.00000
     72      -1.0807      2.00000
     73       0.0492      0.00000
     74       0.0515      0.00000
     75       0.3814      0.00000
     76       0.3819      0.00000
     77       0.7545      0.00000
     78       0.7562      0.00000
     79       0.9259      0.00000
     80       0.9276      0.00000
     81       1.1112      0.00000
     82       1.1121      0.00000
     83       1.2551      0.00000
     84       1.2557      0.00000
     85       1.4097      0.00000
     86       1.4337      0.00000
     87       1.5063      0.00000
     88       1.5487      0.00000

 k-point     6 :       0.0000    0.0000    0.2000
  band No.  band energies     occupation 
      1     -29.2833      2.00000
      2     -29.2831      2.00000
      3     -28.2641      2.00000
      4     -28.2577      2.00000
      5     -28.2288      2.00000
      6     -28.2189      2.00000
      7     -28.1599      2.00000
      8     -28.1495      2.00000
      9     -14.6641      2.00000
     10     -14.6612      2.00000
     11     -14.5835      2.00000
     12     -14.5825      2.00000
     13     -14.5065      2.00000
     14     -14.5060      2.00000
     15     -13.9527      2.00000
     16     -13.8562      2.00000
     17     -13.7860      2.00000
     18     -13.7597      2.00000
     19     -13.7215      2.00000
     20     -13.6905      2.00000
     21     -13.6751      2.00000
     22     -13.6380      2.00000
     23     -13.5782      2.00000
     24     -13.5693      2.00000
     25     -13.5606      2.00000
     26     -13.5459      2.00000
     27     -13.4486      2.00000
     28     -13.4124      2.00000
     29     -13.3864      2.00000
     30     -13.3808      2.00000
     31     -13.3496      2.00000
     32     -13.3463      2.00000
     33     -11.3762      2.00000
     34     -11.2817      2.00000
     35     -10.9239      2.00000
     36     -10.8955      2.00000
     37      -6.6831      2.00000
     38      -6.6249      2.00000
     39      -6.4989      2.00000
     40      -6.4673      2.00000
     41      -6.4506      2.00000
     42      -6.4231      2.00000
     43      -6.2451      2.00000
     44      -6.1987      2.00000
     45      -6.1619      2.00000
     46      -6.0338      2.00000
     47      -5.8362      2.00000
     48      -5.8194      2.00000
     49      -3.7379      2.00000
     50      -3.3586      2.00000
     51      -2.9444      2.00000
     52      -2.8435      2.00000
     53      -2.6885      2.00000
     54      -2.4590      2.00000
     55      -2.2841      2.00000
     56      -2.2801      2.00000
     57      -2.1147      2.00000
     58      -2.0956      2.00000
     59      -2.0263      2.00000
     60      -1.9616      2.00000
     61      -1.7990      2.00000
     62      -1.7333      2.00000
     63      -1.7146      2.00000
     64      -1.6493      2.00000
     65      -1.6418      2.00000
     66      -1.4255      2.00000
     67      -1.4234      2.00000
     68      -1.2929      2.00000
     69      -1.2388      2.00000
     70      -1.2309      2.00000
     71      -1.0207      2.00000
     72      -0.8400      2.00000
     73       0.4271      0.00000
     74       0.4846      0.00000
     75       0.5415      0.00000
     76       0.5783      0.00000
     77       0.6058      0.00000
     78       0.7388      0.00000
     79       0.8431      0.00000
     80       0.9644      0.00000
     81       1.0774      0.00000
     82       1.2338      0.00000
     83       1.2973      0.00000
     84       1.3206      0.00000
     85       1.4784      0.00000
     86       1.4819      0.00000
     87       1.5601      0.00000
     88       1.7064      0.00000

 k-point     7 :       0.0000    0.1250    0.2000
  band No.  band energies     occupation 
      1     -29.2833      2.00000
      2     -29.2831      2.00000
      3     -28.2632      2.00000
      4     -28.2573      2.00000
      5     -28.2286      2.00000
      6     -28.2193      2.00000
      7     -28.1601      2.00000
      8     -28.1504      2.00000
      9     -14.6628      2.00000
     10     -14.6601      2.00000
     11     -14.5842      2.00000
     12     -14.5833      2.00000
     13     -14.5120      2.00000
     14     -14.5116      2.00000
     15     -13.9481      2.00000
     16     -13.8573      2.00000
     17     -13.8176      2.00000
     18     -13.7493      2.00000
     19     -13.7342      2.00000
     20     -13.6865      2.00000
     21     -13.6720      2.00000
     22     -13.6444      2.00000
     23     -13.5941      2.00000
     24     -13.5595      2.00000
     25     -13.5563      2.00000
     26     -13.5513      2.00000
     27     -13.4342      2.00000
     28     -13.4123      2.00000
     29     -13.3840      2.00000
     30     -13.3735      2.00000
     31     -13.3502      2.00000
     32     -13.3500      2.00000
     33     -11.3576      2.00000
     34     -11.2743      2.00000
     35     -10.9104      2.00000
     36     -10.8854      2.00000
     37      -6.6554      2.00000
     38      -6.5994      2.00000
     39      -6.5212      2.00000
     40      -6.5009      2.00000
     41      -6.4439      2.00000
     42      -6.4224      2.00000
     43      -6.2283      2.00000
     44      -6.1770      2.00000
     45      -6.1391      2.00000
     46      -6.0392      2.00000
     47      -5.8767      2.00000
     48      -5.8578      2.00000
     49      -3.6141      2.00000
     50      -3.2631      2.00000
     51      -2.8906      2.00000
     52      -2.7973      2.00000
     53      -2.6706      2.00000
     54      -2.4686      2.00000
     55      -2.3150      2.00000
     56      -2.2653      2.00000
     57      -2.1363      2.00000
     58      -2.1091      2.00000
     59      -2.0615      2.00000
     60      -2.0342      2.00000
     61      -1.8875      2.00000
     62      -1.7418      2.00000
     63      -1.6784      2.00000
     64      -1.6498      2.00000
     65      -1.5694      2.00000
     66      -1.4837      2.00000
     67      -1.3968      2.00000
     68      -1.3162      2.00000
     69      -1.2799      2.00000
     70      -1.1957      2.00000
     71      -0.9960      2.00000
     72      -0.8594      2.00000
     73       0.3759      0.00000
     74       0.4088      0.00000
     75       0.5082      0.00000
     76       0.6243      0.00000
     77       0.6900      0.00000
     78       0.7653      0.00000
     79       0.7850      0.00000
     80       0.9961      0.00000
     81       1.0302      0.00000
     82       1.0820      0.00000
     83       1.2686      0.00000
     84       1.3098      0.00000
     85       1.3908      0.00000
     86       1.5081      0.00000
     87       1.6178      0.00000
     88       1.7295      0.00000

 k-point     8 :       0.0000    0.2500    0.2000
  band No.  band energies     occupation 
      1     -29.2832      2.00000
      2     -29.2830      2.00000
      3     -28.2608      2.00000
      4     -28.2563      2.00000
      5     -28.2280      2.00000
      6     -28.2204      2.00000
      7     -28.1605      2.00000
      8     -28.1528      2.00000
      9     -14.6594      2.00000
     10     -14.6573      2.00000
     11     -14.5858      2.00000
     12     -14.5853      2.00000
     13     -14.5253      2.00000
     14     -14.5250      2.00000
     15     -13.9366      2.00000
     16     -13.8635      2.00000
     17     -13.8459      2.00000
     18     -13.7883      2.00000
     19     -13.7339      2.00000
     20     -13.7062      2.00000
     21     -13.6745      2.00000
     22     -13.6344      2.00000
     23     -13.5990      2.00000
     24     -13.5623      2.00000
     25     -13.5600      2.00000
     26     -13.5509      2.00000
     27     -13.4139      2.00000
     28     -13.4022      2.00000
     29     -13.3766      2.00000
     30     -13.3588      2.00000
     31     -13.3558      2.00000
     32     -13.3524      2.00000
     33     -11.3142      2.00000
     34     -11.2574      2.00000
     35     -10.8769      2.00000
     36     -10.8603      2.00000
     37      -6.6622      2.00000
     38      -6.5815      2.00000
     39      -6.5524      2.00000
     40      -6.5071      2.00000
     41      -6.4072      2.00000
     42      -6.3990      2.00000
     43      -6.1918      2.00000
     44      -6.1299      2.00000
     45      -6.0900      2.00000
     46      -6.0568      2.00000
     47      -5.9513      2.00000
     48      -5.9316      2.00000
     49      -3.3239      2.00000
     50      -3.0483      2.00000
     51      -2.8209      2.00000
     52      -2.6811      2.00000
     53      -2.6080      2.00000
     54      -2.4767      2.00000
     55      -2.3751      2.00000
     56      -2.2711      2.00000
     57      -2.2219      2.00000
     58      -2.1599      2.00000
     59      -2.1267      2.00000
     60      -2.0504      2.00000
     61      -1.9442      2.00000
     62      -1.7894      2.00000
     63      -1.7200      2.00000
     64      -1.6618      2.00000
     65      -1.6118      2.00000
     66      -1.4442      2.00000
     67      -1.4029      2.00000
     68      -1.3569      2.00000
     69      -1.2441      2.00000
     70      -1.1440      2.00000
     71      -1.0112      2.00000
     72      -0.9380      2.00000
     73       0.2366      0.00000
     74       0.3439      0.00000
     75       0.4384      0.00000
     76       0.5588      0.00000
     77       0.6582      0.00000
     78       0.7763      0.00000
     79       0.8577      0.00000
     80       0.9299      0.00000
     81       1.0024      0.00000
     82       1.0585      0.00000
     83       1.1159      0.00000
     84       1.3626      0.00000
     85       1.3714      0.00000
     86       1.5083      0.00000
     87       1.5774      0.00000
     88       1.7177      0.00000

 k-point     9 :       0.0000    0.3750    0.2000
  band No.  band energies     occupation 
      1     -29.2832      2.00000
      2     -29.2830      2.00000
      3     -28.2580      2.00000
      4     -28.2555      2.00000
      5     -28.2267      2.00000
      6     -28.2223      2.00000
      7     -28.1602      2.00000
      8     -28.1559      2.00000
      9     -14.6554      2.00000
     10     -14.6543      2.00000
     11     -14.5876      2.00000
     12     -14.5874      2.00000
     13     -14.5387      2.00000
     14     -14.5385      2.00000
     15     -13.9215      2.00000
     16     -13.8787      2.00000
     17     -13.8544      2.00000
     18     -13.8183      2.00000
     19     -13.7532      2.00000
     20     -13.7373      2.00000
     21     -13.6651      2.00000
     22     -13.6247      2.00000
     23     -13.6057      2.00000
     24     -13.5698      2.00000
     25     -13.5604      2.00000
     26     -13.5500      2.00000
     27     -13.4027      2.00000
     28     -13.3814      2.00000
     29     -13.3677      2.00000
     30     -13.3652      2.00000
     31     -13.3528      2.00000
     32     -13.3457      2.00000
     33     -11.2708      2.00000
     34     -11.2435      2.00000
     35     -10.8420      2.00000
     36     -10.8344      2.00000
     37      -6.7270      2.00000
     38      -6.6784      2.00000
     39      -6.4951      2.00000
     40      -6.4185      2.00000
     41      -6.4000      2.00000
     42      -6.3496      2.00000
     43      -6.1496      2.00000
     44      -6.1085      2.00000
     45      -6.0687      2.00000
     46      -6.0292      2.00000
     47      -5.9948      2.00000
     48      -5.9879      2.00000
     49      -3.0343      2.00000
     50      -2.8808      2.00000
     51      -2.7744      2.00000
     52      -2.6515      2.00000
     53      -2.5425      2.00000
     54      -2.5029      2.00000
     55      -2.4427      2.00000
     56      -2.3804      2.00000
     57      -2.2007      2.00000
     58      -2.1332      2.00000
     59      -2.0910      2.00000
     60      -2.0584      2.00000
     61      -1.9169      2.00000
     62      -1.9021      2.00000
     63      -1.7412      2.00000
     64      -1.6962      2.00000
     65      -1.6601      2.00000
     66      -1.4652      2.00000
     67      -1.3627      2.00000
     68      -1.3197      2.00000
     69      -1.1695      2.00000
     70      -1.1557      2.00000
     71      -1.0745      2.00000
     72      -1.0484      2.00000
     73       0.1249      0.00000
     74       0.1968      0.00000
     75       0.2547      0.00000
     76       0.4941      0.00000
     77       0.6750      0.00000
     78       0.7613      0.00000
     79       0.8917      0.00000
     80       0.9603      0.00000
     81       0.9745      0.00000
     82       1.1225      0.00000
     83       1.1878      0.00000
     84       1.2184      0.00000
     85       1.4445      0.00000
     86       1.4804      0.00000
     87       1.5876      0.00000
     88       1.6760      0.00000

 k-point    10 :       0.0000    0.5000    0.2000
  band No.  band energies     occupation 
      1     -29.2831      2.00000
      2     -29.2829      2.00000
      3     -28.2561      2.00000
      4     -28.2560      2.00000
      5     -28.2247      2.00000
      6     -28.2246      2.00000
      7     -28.1587      2.00000
      8     -28.1585      2.00000
      9     -14.6533      2.00000
     10     -14.6531      2.00000
     11     -14.5884      2.00000
     12     -14.5882      2.00000
     13     -14.5444      2.00000
     14     -14.5442      2.00000
     15     -13.9022      2.00000
     16     -13.9017      2.00000
     17     -13.8413      2.00000
     18     -13.8408      2.00000
     19     -13.7564      2.00000
     20     -13.7560      2.00000
     21     -13.6486      2.00000
     22     -13.6481      2.00000
     23     -13.5827      2.00000
     24     -13.5824      2.00000
     25     -13.5570      2.00000
     26     -13.5570      2.00000
     27     -13.3867      2.00000
     28     -13.3864      2.00000
     29     -13.3652      2.00000
     30     -13.3650      2.00000
     31     -13.3467      2.00000
     32     -13.3465      2.00000
     33     -11.2458      2.00000
     34     -11.2456      2.00000
     35     -10.8253      2.00000
     36     -10.8252      2.00000
     37      -6.7376      2.00000
     38      -6.7358      2.00000
     39      -6.4430      2.00000
     40      -6.4428      2.00000
     41      -6.3506      2.00000
     42      -6.3483      2.00000
     43      -6.1195      2.00000
     44      -6.1173      2.00000
     45      -6.0362      2.00000
     46      -6.0354      2.00000
     47      -6.0022      2.00000
     48      -6.0020      2.00000
     49      -2.8712      2.00000
     50      -2.8707      2.00000
     51      -2.7110      2.00000
     52      -2.7097      2.00000
     53      -2.5567      2.00000
     54      -2.5559      2.00000
     55      -2.4337      2.00000
     56      -2.4332      2.00000
     57      -2.1227      2.00000
     58      -2.1211      2.00000
     59      -2.0623      2.00000
     60      -2.0614      2.00000
     61      -1.9198      2.00000
     62      -1.9184      2.00000
     63      -1.7384      2.00000
     64      -1.7360      2.00000
     65      -1.5687      2.00000
     66      -1.5684      2.00000
     67      -1.3131      2.00000
     68      -1.3117      2.00000
     69      -1.1517      2.00000
     70      -1.1510      2.00000
     71      -1.1021      2.00000
     72      -1.1004      2.00000
     73       0.0417      0.00000
     74       0.0440      0.00000
     75       0.3540      0.00000
[...]
     78       0.7296      0.00000
     79       0.8065      0.00000
     80       0.8655      0.00000
     81       0.9717      0.00000
     82       1.0883      0.00000
     83       1.1370      0.00000
     84       1.2135      0.00000
     85       1.4285      0.00000
     86       1.5345      0.00000
     87       1.5966      0.00000
     88       1.7829      0.00000

 k-point    21 :       0.0000   -0.1250    0.4000
  band No.  band energies     occupation 
      1     -29.2833      2.00000
      2     -29.2831      2.00000
      3     -28.2625      2.00000
      4     -28.2580      2.00000
      5     -28.2287      2.00000
      6     -28.2192      2.00000
      7     -28.1597      2.00000
      8     -28.1507      2.00000
      9     -14.6633      2.00000
     10     -14.6596      2.00000
     11     -14.5840      2.00000
     12     -14.5834      2.00000
     13     -14.5119      2.00000
     14     -14.5116      2.00000
     15     -13.9417      2.00000
     16     -13.8606      2.00000
     17     -13.8059      2.00000
     18     -13.7697      2.00000
     19     -13.7202      2.00000
     20     -13.6991      2.00000
     21     -13.6651      2.00000
     22     -13.6436      2.00000
     23     -13.5861      2.00000
     24     -13.5666      2.00000
     25     -13.5596      2.00000
     26     -13.5561      2.00000
     27     -13.4387      2.00000
     28     -13.4035      2.00000
     29     -13.3849      2.00000
     30     -13.3778      2.00000
     31     -13.3526      2.00000
     32     -13.3471      2.00000
     33     -11.3333      2.00000
     34     -11.2781      2.00000
     35     -10.9233      2.00000
     36     -10.8892      2.00000
     37      -6.6620      2.00000
     38      -6.5948      2.00000
     39      -6.5320      2.00000
     40      -6.4979      2.00000
     41      -6.4361      2.00000
     42      -6.4326      2.00000
     43      -6.2346      2.00000
     44      -6.2043      2.00000
     45      -6.1600      2.00000
     46      -5.9924      2.00000
     47      -5.8709      2.00000
     48      -5.8573      2.00000
     49      -3.4636      2.00000
     50      -3.2065      2.00000
     51      -2.9091      2.00000
     52      -2.7815      2.00000
     53      -2.7020      2.00000
     54      -2.4934      2.00000
     55      -2.2941      2.00000
     56      -2.2275      2.00000
     57      -2.1796      2.00000
     58      -2.1254      2.00000
     59      -2.1178      2.00000
     60      -2.0503      2.00000
     61      -1.9640      2.00000
     62      -1.8696      2.00000
     63      -1.7035      2.00000
     64      -1.6639      2.00000
     65      -1.5676      2.00000
     66      -1.4517      2.00000
     67      -1.4134      2.00000
     68      -1.3419      2.00000
     69      -1.2901      2.00000
     70      -1.1623      2.00000
     71      -1.0278      2.00000
     72      -0.8590      2.00000
     73       0.4198      0.00000
     74       0.4507      0.00000
     75       0.5740      0.00000
     76       0.6478      0.00000
     77       0.7188      0.00000
     78       0.7349      0.00000
     79       0.8093      0.00000
     80       0.9772      0.00000
     81       1.0299      0.00000
     82       1.1469      0.00000
     83       1.1687      0.00000
     84       1.2987      0.00000
     85       1.4825      0.00000
     86       1.5012      0.00000
     87       1.6824      0.00000
     88       1.7643      0.00000


--------------------------------------------------------------------------------------------------------


 soft charge-density along one line, spin component           1
         0         1         2         3         4         5         6         7         8         9
 total charge-density along one line
 
 pseudopotential strength for first ion, spin component:           1
  4.699  -5.489  -0.000  -0.008  -0.020  -0.000  -0.006  -0.016
 -5.489  -2.764   0.000   0.001   0.002  -0.000  -0.001  -0.003
 -0.000   0.000  -6.859   0.000  -0.000   1.830  -0.000  -0.000
 -0.008   0.001   0.000  -6.854  -0.001  -0.000   1.841  -0.003
 -0.020   0.002  -0.000  -0.001  -6.853  -0.000  -0.003   1.844
 -0.000  -0.000   1.830  -0.000  -0.000   7.274  -0.000  -0.000
 -0.006  -0.001  -0.000   1.841  -0.003  -0.000   7.275  -0.000
 -0.016  -0.003  -0.000  -0.003   1.844  -0.000  -0.000   7.275
 -0.000   0.000  -0.010  -0.000  -0.000  -0.007  -0.000  -0.000
 -0.000   0.000  -0.003  -0.000  -0.000  -0.001  -0.000  -0.000
  0.002  -0.001   0.000  -0.004   0.006   0.000  -0.003   0.004
 -0.002   0.001  -0.000  -0.010  -0.003  -0.000  -0.007  -0.002
  0.004  -0.001   0.000  -0.000  -0.010   0.000  -0.000  -0.007
  0.000   0.000   0.000   0.000   0.000   0.000   0.000   0.000
  0.000   0.000   0.000   0.000   0.000   0.000   0.000   0.000
 -0.000  -0.000  -0.000   0.000  -0.000  -0.000   0.000  -0.000
  0.000   0.000   0.000   0.000   0.000   0.000   0.000   0.000
 -0.000  -0.000  -0.000   0.000   0.000  -0.000   0.000   0.000
 total augmentation occupancy for first ion, spin component:           1
  2.355  -0.912   0.000   0.000   0.000   0.000   0.000   0.000   0.000   0.000   0.000   0.000   0.000   0.000   0.000   0.000
 -0.912   2.345   0.000   0.000   0.000   0.000   0.000   0.000   0.000   0.000   0.000   0.000   0.000   0.000   0.000   0.000
  0.000   0.000   2.000   0.000   0.000   0.000   0.000   0.000   0.000   0.000   0.000   0.000   0.000   0.000   0.000   0.000
  0.000   0.000   0.000   2.000   0.000   0.000   0.000   0.000   0.000   0.000   0.000   0.000   0.000   0.000   0.000   0.000
  0.000   0.000   0.000   0.000   2.000   0.000   0.000   0.000   0.000   0.000   0.000   0.000   0.000   0.000   0.000   0.000
  0.000   0.000   0.000   0.000   0.000   0.000   0.000   0.000   0.000   0.000   0.000   0.000   0.000   0.000   0.000   0.000
  0.000   0.000   0.000   0.000   0.000   0.000   0.000   0.000   0.000   0.000   0.000   0.000   0.000   0.000   0.000   0.000
  0.000   0.000   0.000   0.000   0.000   0.000   0.000   0.000   0.000   0.000   0.000   0.000   0.000   0.000   0.000   0.000
  0.000   0.000   0.000   0.000   0.000   0.000   0.000   0.000   0.002   0.000   0.000   0.000   0.000   0.000   0.000   0.000
  0.000   0.000   0.000   0.000   0.000   0.000   0.000   0.000   0.000   0.002   0.000   0.000   0.000   0.000   0.000   0.000
  0.000   0.000   0.000   0.000   0.000   0.000   0.000   0.000   0.000   0.000   0.002   0.000   0.000   0.000   0.000   0.000
  0.000   0.000   0.000   0.000   0.000   0.000   0.000   0.000   0.000   0.000   0.000   0.002   0.000   0.000   0.000   0.000
  0.000   0.000   0.000   0.000   0.000   0.000   0.000   0.000   0.000   0.000   0.000   0.000   0.002   0.000   0.000   0.000
  0.000   0.000   0.000   0.000   0.000   0.000   0.000   0.000   0.000   0.000   0.000   0.000   0.000   0.000   0.000   0.000
  0.000   0.000   0.000   0.000   0.000   0.000   0.000   0.000   0.000   0.000   0.000   0.000   0.000   0.000   0.000   0.000
  0.000   0.000   0.000   0.000   0.000   0.000   0.000   0.000   0.000   0.000   0.000   0.000   0.000   0.000   0.000   0.000
  0.000   0.000   0.000   0.000   0.000   0.000   0.000   0.000   0.000   0.000   0.000   0.000   0.000   0.000   0.000   0.000
  0.000   0.000   0.000   0.000   0.000   0.000   0.000   0.000   0.000   0.000   0.000   0.000   0.000   0.000   0.000   0.000


------------------------ aborting loop because EDIFF is reached ----------------------------------------


 


 total charge     
 
# of ion       s       p       d       tot
------------------------------------------
    1        2.019   5.567   0.318   7.905
    2        2.019   5.567   0.318   7.905
    3        2.020   5.582   0.328   7.930
    4        2.020   5.582   0.328   7.930
    5        2.016   5.577   0.347   7.940
    6        2.016   5.577   0.347   7.940
    7        2.014   5.577   0.344   7.935
    8        2.014   5.577   0.344   7.935
    9        0.832   0.803   0.000   1.635
   10        0.832   0.803   0.000   1.635
   11        0.799   0.874   0.000   1.672
   12        0.799   0.874   0.000   1.672
   13        0.832   0.803   0.000   1.635
   14        0.832   0.803   0.000   1.635
   15        0.799   0.874   0.000   1.672
   16        0.799   0.874   0.000   1.672
   17        0.816   0.816   0.000   1.632
   18        0.816   0.816   0.000   1.632
   19        0.792   0.855   0.000   1.648
   20        0.792   0.855   0.000   1.648
   21        0.790   0.875   0.000   1.664
   22        0.790   0.875   0.000   1.664
   23        0.825   0.807   0.000   1.631
   24        0.825   0.807   0.000   1.631
--------------------------------------------------
tot         29.107  58.018   2.673  89.798
 
    CHARGE:  cpu time    0.2614: real time    0.2621
    FORLOC:  cpu time    0.0105: real time    0.0105
    FORNL :  cpu time    0.9052: real time    0.9074
    STRESS:  cpu time    2.7971: real time    2.8039
    FORCOR:  cpu time    2.4147: real time    2.4204
    FORHAR:  cpu time    0.0194: real time    0.0195
    OFIELD:  cpu time    0.0001: real time    0.0001

  FORCE on cell =-STRESS in cart. coord.  units (eV):
  Direction    XX          YY          ZZ          XY          YZ          ZX
  --------------------------------------------------------------------------------------
  Alpha Z   182.20216   182.20216   182.20216
  Ewald  -22349.57712 18464.17551 18054.14140     0.44121     0.11044   128.44059
  Hartree-19081.23941 19998.58288 19681.71242     0.19729     0.00871    91.84641
  E(xc)    -464.31855  -465.82094  -465.91108     0.00054     0.00058     0.01806
  Local   39998.77212-39910.86127-39177.10468    -0.62966    -0.12931  -216.67238
  n-local   335.92647   339.16393   341.17940    -0.01322     0.01597    -1.22229
  augment  -167.74293  -168.58653  -168.62579    -0.00104    -0.00060     0.29536
  Kinetic  1545.85743  1561.04413  1552.41067     0.06648     0.00160    -2.58569
  Fock        0.00000     0.00000     0.00000     0.00000     0.00000     0.00000
  -------------------------------------------------------------------------------------
  Total      -0.11982    -0.10011     0.00450     0.06161     0.00740     0.12006
  in kB      -0.10869    -0.09080     0.00408     0.05588     0.00671     0.10891
  external pressure =       -0.07 kB  Pullay stress =        0.00 kB


 VOLUME and BASIS-vectors are now :
 -----------------------------------------------------------------------------
  energy-cutoff  :      500.00
  volume of cell :     1766.34
      direct lattice vectors                 reciprocal lattice vectors
    24.009468079  0.000000000  0.000000000     0.041650236  0.000000000  0.000000000
     0.000000000  6.540361940  0.000000000     0.000000000  0.152896737  0.000000000
     0.000000000  0.000000000 11.248405831     0.000000000  0.000000000  0.088901487

  length of vectors
    24.009468079  6.540361940 11.248405831     0.041650236  0.152896737  0.088901487


 FORCES acting on ions
    electron-ion (+dipol)            ewald-force                    non-local-force                 convergence-correction
 -----------------------------------------------------------------------------------------------
   0.864E+03 0.110E-01 0.331E+02   -.860E+03 -.807E-02 -.319E+02   -.396E+01 -.275E-02 -.120E+01   0.950E-02 -.686E-03 0.105E-02
   -.864E+03 -.110E-01 -.331E+02   0.860E+03 0.807E-02 0.319E+02   0.396E+01 0.275E-02 0.120E+01   -.628E-02 0.496E-03 -.207E-02
   0.856E+02 -.110E-01 -.336E+02   -.855E+02 0.701E-02 0.331E+02   -.613E-01 0.353E-02 0.592E+00   0.549E-02 -.164E-02 -.230E-02
   -.856E+02 0.110E-01 0.336E+02   0.855E+02 -.702E-02 -.331E+02   0.613E-01 -.353E-02 -.592E+00   -.238E-02 0.121E-04 0.886E-03
   0.587E+03 0.433E-01 -.303E+02   -.586E+03 -.454E-01 0.302E+02   -.723E+00 0.140E-02 0.745E-01   0.492E-02 -.127E-02 -.289E-03
   -.587E+03 -.433E-01 0.303E+02   0.586E+03 0.454E-01 -.302E+02   0.723E+00 -.140E-02 -.745E-01   -.909E-02 0.167E-02 0.215E-02
   0.377E+03 -.180E-01 -.971E+01   -.376E+03 0.115E-01 0.926E+01   -.817E+00 0.471E-02 0.450E+00   0.112E-02 0.801E-03 0.241E-02
   -.377E+03 0.180E-01 0.971E+01   0.376E+03 -.115E-01 -.926E+01   0.817E+00 -.471E-02 -.450E+00   -.500E-02 -.513E-03 0.894E-03
   0.320E+03 0.363E+02 -.433E+02   -.320E+03 -.379E+02 0.441E+02   -.320E+00 0.152E+01 -.875E+00   0.162E-02 0.762E-03 -.598E-03
   -.320E+03 -.363E+02 0.433E+02   0.320E+03 0.379E+02 -.441E+02   0.320E+00 -.152E+01 0.875E+00   -.186E-02 -.849E-03 0.404E-03
   0.142E+03 -.309E+02 0.633E+01   -.141E+03 0.321E+02 -.561E+01   -.754E+00 -.110E+01 -.728E+00   0.148E-02 0.210E-03 0.387E-03
   -.142E+03 0.309E+02 -.633E+01   0.141E+03 -.321E+02 0.561E+01   0.754E+00 0.110E+01 0.728E+00   -.177E-02 0.114E-03 -.542E-03
   -.320E+03 0.364E+02 0.432E+02   0.320E+03 -.379E+02 -.441E+02   0.327E+00 0.151E+01 0.882E+00   -.221E-02 0.676E-03 0.664E-03
   0.320E+03 -.364E+02 -.432E+02   -.320E+03 0.379E+02 0.441E+02   -.327E+00 -.151E+01 -.882E+00   0.211E-02 -.513E-03 -.813E-03
   -.142E+03 -.310E+02 -.625E+01   0.141E+03 0.321E+02 0.552E+01   0.760E+00 -.110E+01 0.731E+00   -.182E-02 0.560E-04 -.733E-03
   0.142E+03 0.310E+02 0.625E+01   -.141E+03 -.321E+02 -.552E+01   -.760E+00 0.110E+01 -.731E+00   0.185E-02 -.279E-03 0.286E-03
   0.368E+03 -.396E-02 0.302E+02   -.369E+03 0.597E-02 -.298E+02   0.167E+01 -.344E-02 -.435E+00   0.236E-02 0.169E-03 0.327E-03
   -.368E+03 0.395E-02 -.302E+02   0.369E+03 -.597E-02 0.298E+02   -.167E+01 0.344E-02 0.435E+00   -.253E-02 0.309E-04 -.555E-03
   0.687E+02 0.317E-01 -.739E+01   -.666E+02 -.278E-01 0.721E+01   -.215E+01 -.967E-02 0.181E+00   0.110E-02 0.612E-03 -.566E-03
   -.687E+02 -.317E-01 0.739E+01   0.666E+02 0.278E-01 -.721E+01   0.215E+01 0.967E-02 -.181E+00   -.600E-03 -.467E-03 0.616E-03
   0.296E+03 -.360E-01 0.717E+01   -.297E+03 0.369E-01 -.870E+01   0.370E+00 -.261E-02 0.153E+01   0.206E-02 0.288E-03 -.208E-03
   -.296E+03 0.359E-01 -.717E+01   0.297E+03 -.369E-01 0.870E+01   -.370E+00 0.261E-02 -.153E+01   -.261E-02 -.325E-03 -.140E-04
   0.221E+03 0.475E-01 0.592E+02   -.221E+03 -.516E-01 -.613E+02   -.715E+00 0.558E-02 0.209E+01   0.198E-02 -.107E-03 0.777E-03
   -.221E+03 -.475E-01 -.592E+02   0.221E+03 0.516E-01 0.613E+02   0.715E+00 -.558E-02 -.209E+01   -.258E-02 0.650E-04 -.253E-03
 -----------------------------------------------------------------------------------------------
   0.130E-03 0.951E-04 0.833E-04   0.853E-13 0.173E-13 -.711E-14   0.000E+00 0.000E+00 0.000E+00   -.314E-02 -.685E-03 0.191E-02
 
 
 POSITION                                       TOTAL-FORCE (eV/Angst)
 -----------------------------------------------------------------------------------
      0.24668      1.75847      8.04631        -0.000468     -0.000441     -0.007919
      8.76278      5.01938      3.55583         0.000468      0.000441      0.007919
      4.25602      5.02493      2.35470        -0.000510     -0.001263     -0.003459
      4.75345      1.75292      9.24744         0.000510      0.001263      0.003459
      2.07622      5.02752     10.46608        -0.001422     -0.002216     -0.002318
      6.93325      1.75033      1.13606         0.001422      0.002216      0.002318
      3.13155      1.75546      4.60789         0.001379     -0.001153      0.003129
      5.87792      5.02239      6.99425        -0.001379      0.001153     -0.003129
      1.52662      0.55457      1.86569         0.000306      0.001068     -0.003678
      7.48285      6.22328      9.73645        -0.000306     -0.001068      0.003678
      2.77266      6.22674      7.38899         0.002853      0.004989     -0.001706
      6.23681      0.55111      4.21315        -0.002853     -0.004989      0.001706
      7.48126      3.82064      9.73506        -0.001674      0.000269      0.001996
      1.52821      2.95720      1.86708         0.001674     -0.000269     -0.001996
      6.23579      2.94767      4.21022        -0.002630      0.000795     -0.001191
      2.77368      3.83018      7.39192         0.002630     -0.000795      0.001191
      0.67598      5.02852      7.09321        -0.002887     -0.001359     -0.000992
      8.33348      1.74933      4.50893         0.002887      0.001359      0.000992
      3.53847      1.75629      1.09498        -0.000633     -0.005248     -0.003371
      5.47100      5.02156     10.50716         0.000633      0.005248      0.003371
      1.51773      1.75741     11.02077         0.000847     -0.001322     -0.001410
      7.49174      5.02044      0.58137        -0.000847      0.001322      0.001410
      2.33842      5.02508      5.32627        -0.000919      0.001357     -0.005852
      6.67104      1.75277      6.27587         0.000919     -0.001357      0.005852
 -----------------------------------------------------------------------------------
    total drift:                               -0.003014     -0.000590      0.001991


--------------------------------------------------------------------------------------------------------



  FREE ENERGIE OF THE ION-ELECTRON SYSTEM (eV)
  ---------------------------------------------------
  free  energy   TOTEN  =       -91.30213309 eV

  energy  without entropy=      -91.30213309  energy(sigma->0) =      -91.30213309
 


--------------------------------------------------------------------------------------------------------


    POTLOK:  cpu time    2.8863: real time    2.8932


--------------------------------------------------------------------------------------------------------


 writing wavefunctions
     LOOP+:  cpu time   67.0151: real time   68.6473
    4ORBIT:  cpu time    0.0001: real time    0.0003
 


 total charge     
 
# of ion       s       p       d       tot
------------------------------------------
    1        2.019   5.567   0.318   7.905
    2        2.019   5.567   0.318   7.905
    3        2.020   5.582   0.328   7.930
    4        2.020   5.582   0.328   7.930
    5        2.016   5.577   0.347   7.940
    6        2.016   5.577   0.347   7.940
    7        2.014   5.577   0.344   7.935
    8        2.014   5.577   0.344   7.935
    9        0.832   0.803   0.000   1.635
   10        0.832   0.803   0.000   1.635
   11        0.799   0.874   0.000   1.672
   12        0.799   0.874   0.000   1.672
   13        0.832   0.803   0.000   1.635
   14        0.832   0.803   0.000   1.635
   15        0.799   0.874   0.000   1.672
   16        0.799   0.874   0.000   1.672
   17        0.816   0.816   0.000   1.632
   18        0.816   0.816   0.000   1.632
   19        0.792   0.855   0.000   1.648
   20        0.792   0.855   0.000   1.648
   21        0.790   0.875   0.000   1.664
   22        0.790   0.875   0.000   1.664
   23        0.825   0.807   0.000   1.631
   24        0.825   0.807   0.000   1.631
--------------------------------------------------
tot         29.107  58.018   2.673  89.798
 
 BZINTS: Fermi energy: -0.827500;144.000000 electrons
         Band energy:***********;  BLOECHL correction:  0.000000

 total amount of memory used by VASP MPI-rank0    88132. kBytes
=======================================================================

   base      :      30000. kBytes
   nonlr-proj:       2554. kBytes
   fftplans  :       5320. kBytes
   grid      :       7942. kBytes
   one-center:         93. kBytes
   wavefun   :      42223. kBytes
 
  
  
 General timing and accounting informations for this job:
 ========================================================
  
                  Total CPU time used (sec):       79.101
                            User time (sec):       77.061
                          System time (sec):        2.041
                         Elapsed time (sec):       84.195
  
                   Maximum memory used (kb):      307672.
                   Average memory used (kb):           0.
  
                          Minor page faults:        29318
                          Major page faults:          288
                 Voluntary context switches:        12823
