 vasp.5.4.4.18Apr17-6-g9f103f2a35 (build Nov 21 2017 15:30:27) complex          
  
 executed on             LinuxIFC date 2020.11.09  12:04:21
 running on   64 total cores
 distrk:  each k-point on   32 cores,    2 groups
 distr:  one band on NCORES_PER_BAND=   4 cores,    8 groups


--------------------------------------------------------------------------------------------------------


 INCAR:
 POTCAR:   PAW_PBE Ba_sv 06Sep2000                
 POTCAR:   PAW_PBE Si 05Jan2001                   

 ----------------------------------------------------------------------------- 
|                                                                             |
|           W    W    AA    RRRRR   N    N  II  N    N   GGGG   !!!           |
|           W    W   A  A   R    R  NN   N  II  NN   N  G    G  !!!           |
|           W    W  A    A  R    R  N N  N  II  N N  N  G       !!!           |
|           W WW W  AAAAAA  RRRRR   N  N N  II  N  N N  G  GGG   !            |
|           WW  WW  A    A  R   R   N   NN  II  N   NN  G    G                |
|           W    W  A    A  R    R  N    N  II  N    N   GGGG   !!!           |
|                                                                             |
|      You have enabled k-point parallelism (KPAR>1).                         |
|      This developmental code was originally  written by Paul Kent at ORNL,  |
|      and carefully double checked in Vienna.                                |
|      GW as well as linear response parallelism added by Martijn Marsman     |
|      and Georg Kresse.                                                      |
|      Carefully verify results versus KPAR=1.                                |
|      Report problems to Paul Kent and Vienna.                               |
|                                                                             |
 ----------------------------------------------------------------------------- 


 ----------------------------------------------------------------------------- 
|                                                                             |
|  ADVICE TO THIS USER RUNNING 'VASP/VAMP'   (HEAR YOUR MASTER'S VOICE ...):  |
|                                                                             |
|      You have switched on vdW-DFT.                                          |
|      This routine was written and supplied by Jiri Klimes.                  |
|      We recommed that you carefully read and cite the following             |
|      publication                                                            |
|      J. Klimes, D.R. Bowler, A. Michelides                                  |
|        J. Phys.: Cond Matt. 22 022201 (2010)                                |
|      J. Klimes, D.R. Bowler, A. Michelides                                  |
|        Phys. Rev. B. 83, 195131 (2011)                                      |
|      and references therein.                                                |
|                                                                             |
 ----------------------------------------------------------------------------- 

 POTCAR:   PAW_PBE Ba_sv 06Sep2000                
   VRHFIN =Ba: 5s5p6s                                                           
   LEXCH  = PE                                                                  
   EATOM  =   700.2255 eV,   51.4651 Ry                                         
                                                                                
   TITEL  = PAW_PBE Ba_sv 06Sep2000                                             
   LULTRA =        F    use ultrasoft PP ?                                      
   IUNSCR =        1    unscreen: 0-lin 1-nonlin 2-no                           
   RPACOR =    2.400    partial core radius                                     
   POMASS =  137.327; ZVAL   =   10.000    mass and valenz                      
   RCORE  =    2.800    outmost cutoff radius                                   
   RWIGS  =    3.740; RWIGS  =    1.979    wigner-seitz radius (au A)           
   ENMAX  =  187.210; ENMIN  =  140.408 eV                                      
   RCLOC  =    2.516    cutoff for local pot                                    
   LCOR   =        T    correct aug charges                                     
   LPAW   =        T    paw PP                                                  
   EAUG   =  351.165                                                            
   DEXC   =     .000                                                            
   RMAX   =    3.370    core radius for proj-oper                               
   RAUG   =    1.300    factor for augmentation sphere                          
   RDEP   =    2.976    radius for radial grids                                 
   QCUT   =   -3.709; QGAM   =    7.419    optimization parameters              
                                                                                
   Description                                                                  
     l     E      TYP  RCUT    TYP  RCUT                                        
     0   .000     23  2.800                                                     
     0   .000     23  2.800                                                     
     1   .000     23  2.700                                                     
     1  2.000     23  2.700                                                     
     2   .000     23  2.700                                                     
     2   .000     23  2.700                                                     
  local pseudopotential read in
  partial core-charges read in
  atomic valenz-charges read in
  non local Contribution for L=           0  read in
    real space projection operators read in
  non local Contribution for L=           0  read in
    real space projection operators read in
  non local Contribution for L=           1  read in
    real space projection operators read in
  non local Contribution for L=           1  read in
    real space projection operators read in
  non local Contribution for L=           2  read in
    real space projection operators read in
  non local Contribution for L=           2  read in
    real space projection operators read in
    PAW grid and wavefunctions read in
 
   number of l-projection  operators is LMAX  =           6
   number of lm-projection operators is LMMAX =          18
 
 POTCAR:   PAW_PBE Si 05Jan2001                   
   VRHFIN =Si: s2p2                                                             
   LEXCH  = PE                                                                  
   EATOM  =   103.0669 eV,    7.5752 Ry                                         
                                                                                
   TITEL  = PAW_PBE Si 05Jan2001                                                
   LULTRA =        F    use ultrasoft PP ?                                      
   IUNSCR =        1    unscreen: 0-lin 1-nonlin 2-no                           
   RPACOR =    1.500    partial core radius                                     
   POMASS =   28.085; ZVAL   =    4.000    mass and valenz                      
   RCORE  =    1.900    outmost cutoff radius                                   
   RWIGS  =    2.480; RWIGS  =    1.312    wigner-seitz radius (au A)           
   ENMAX  =  245.345; ENMIN  =  184.009 eV                                      
   ICORE  =        2    local potential                                         
   LCOR   =        T    correct aug charges                                     
   LPAW   =        T    paw PP                                                  
   EAUG   =  322.069                                                            
   DEXC   =    -.007                                                            
   RMAX   =    2.944    core radius for proj-oper                               
   RAUG   =    1.300    factor for augmentation sphere                          
   RDEP   =    1.993    radius for radial grids                                 
   QCUT   =   -4.246; QGAM   =    8.493    optimization parameters              
                                                                                
   Description                                                                  
     l     E      TYP  RCUT    TYP  RCUT                                        
     0   .000     23  1.900                                                     
     0   .000     23  1.900                                                     
     1   .000     23  1.900                                                     
     1   .000     23  1.900                                                     
     2   .000      7  1.900                                                     
  local pseudopotential read in
  partial core-charges read in
  atomic valenz-charges read in
  non local Contribution for L=           0  read in
    real space projection operators read in
  non local Contribution for L=           0  read in
    real space projection operators read in
  non local Contribution for L=           1  read in
    real space projection operators read in
  non local Contribution for L=           1  read in
    real space projection operators read in
    PAW grid and wavefunctions read in
 
   number of l-projection  operators is LMAX  =           4
   number of lm-projection operators is LMMAX =           8
 
 Optimization of the real space projectors (new method)

 maximal supplied QI-value         = 13.42
 optimisation between [QCUT,QGAM] = [ 11.40, 22.81] = [ 36.42,145.68] Ry 
 Optimized for a Real-space Cutoff    1.56 Angstroem

   l    n(q)    QCUT    max X(q) W(low)/X(q) W(high)/X(q)  e(spline) 
   0     11    11.404     7.198    0.14E-04    0.26E-04    0.99E-07
   0     11    11.404    15.603    0.29E-04    0.72E-04    0.44E-06
   1     10    11.404     3.746    0.20E-04    0.24E-04    0.43E-07
   1     10    11.404     4.362    0.22E-03    0.97E-04    0.22E-06
   2     10    11.404     5.782    0.83E-04    0.62E-05    0.27E-06
   2     10    11.404    65.505    0.42E-03    0.31E-04    0.12E-05
 Optimization of the real space projectors (new method)

 maximal supplied QI-value         = 19.84
 optimisation between [QCUT,QGAM] = [ 11.31, 22.82] = [ 35.82,145.81] Ry 
 Optimized for a Real-space Cutoff    1.16 Angstroem

   l    n(q)    QCUT    max X(q) W(low)/X(q) W(high)/X(q)  e(spline) 
   0      8    11.310     8.708    0.14E-04    0.11E-04    0.43E-08
   0      8    11.310   106.241    0.27E-03    0.30E-03    0.38E-07
   1      7    11.310     5.901    0.82E-05    0.48E-04    0.19E-07
   1      7    11.310    73.241    0.27E-03    0.27E-03    0.74E-07

 ----------------------------------------------------------------------------- 
|                                                                             |
|  ADVICE TO THIS USER RUNNING 'VASP/VAMP'   (HEAR YOUR MASTER'S VOICE ...):  |
|                                                                             |
|      You enforced a specific xc-type in the INCAR file,                     |
|      a different type was found on the POTCAR file                          |
|          I HOPE YOU KNOW, WHAT YOU ARE  DOING                               |
|                                                                             |
 ----------------------------------------------------------------------------- 

 PAW_PBE Ba_sv 06Sep2000                :
 energy of atom  1       EATOM= -700.2255
 kinetic energy error for atom=    0.0005 (will be added to EATOM!!)
 PAW_PBE Si 05Jan2001                   :
 energy of atom  2       EATOM= -103.0669
 kinetic energy error for atom=    0.0006 (will be added to EATOM!!)
 
 
 POSCAR: ba8 si16                                
  positions in direct lattice
  velocities in cartesian coordinates
 exchange correlation table for  LEXCH =       43
   RHO(1)=    0.500       N(1)  =     2000
   RHO(2)=  100.500       N(2)  =     4000
 


--------------------------------------------------------------------------------------------------------


 ion  position               nearest neighbor table
   1  0.009  0.250  0.698-  41 3.27  24 3.33  19 3.33  33 3.47  33 3.47   9 4.42   9 4.42  11 4.45
                             4 4.52
   2  0.536  0.750  0.302-  42 3.27  28 3.33  31 3.33  34 3.47  34 3.47  10 4.42  10 4.42  16 4.45
                             7 4.52
   3  0.129  0.750  0.191-  36 3.41  20 3.41  23 3.41  17 3.42  22 3.42  46 3.48  35 3.60  35 3.60
                            43 3.60   9 3.93  11 4.21  11 4.21
   4  0.141  0.250  0.808-  35 3.27  24 3.41  19 3.41  29 3.44  26 3.44  44 3.48  41 3.50  36 3.57
                            36 3.57  14 4.30  12 4.31  12 4.31   9 4.44   9 4.44   1 4.52   5 4.69
   5  0.278  0.250  0.690-  38 3.35  29 3.36  26 3.36  44 3.39  32 3.41  27 3.41  45 3.48  37 3.56
                            37 3.56  13 4.35  13 4.35  15 4.35   4 4.69  12 4.73  12 4.73
   6  0.268  0.750  0.310-  37 3.35  25 3.36  30 3.36  47 3.39  20 3.41  23 3.41  46 3.48  38 3.56
                            38 3.56  14 4.35  14 4.35  12 4.35   7 4.69  15 4.73  15 4.73
   7  0.404  0.750  0.192-  40 3.27  28 3.41  31 3.41  25 3.44  30 3.44  47 3.48  42 3.50  39 3.57
                            39 3.57  13 4.30  15 4.31  15 4.31  10 4.44  10 4.44   2 4.52   6 4.69
   8  0.417  0.250  0.809-  39 3.41  32 3.41  27 3.41  21 3.42  18 3.42  45 3.48  40 3.60  40 3.60
                            48 3.60  10 3.93  16 4.21  16 4.21
   9  0.059  0.750  0.911-  36 3.37  41 3.39  41 3.39  19 3.41  24 3.41  17 3.43  22 3.43  33 3.59
                             3 3.93   1 4.42   1 4.42   4 4.44   4 4.44
  10  0.487  0.250  0.089-  39 3.37  42 3.39  42 3.39  31 3.41  28 3.41  21 3.43  18 3.43  34 3.59
                             8 3.93   2 4.42   2 4.42   7 4.44   7 4.44
  11  0.094  0.250  0.394-  23 3.35  20 3.35  22 3.42  17 3.42  43 3.49  43 3.49  44 3.52  24 3.53
                            19 3.53  35 3.60   3 4.21   3 4.21   1 4.45
  12  0.180  0.750  0.596-  44 3.40  44 3.40  19 3.41  24 3.41  26 3.46  29 3.46  20 3.49  23 3.49
                            36 3.61  37 3.83  43 3.92   4 4.31   4 4.31   6 4.35   5 4.73   5 4.73
  13  0.318  0.750  0.907-  45 3.39  45 3.39  26 3.43  29 3.43  27 3.45  32 3.45  25 3.45  30 3.45
                            46 3.56  37 3.65  40 3.84   7 4.30   5 4.35   5 4.35
  14  0.228  0.250  0.093-  46 3.39  46 3.39  30 3.43  25 3.43  23 3.45  20 3.45  29 3.45  26 3.45
                            45 3.56  38 3.65  35 3.84   4 4.30   6 4.35   6 4.35
  15  0.365  0.250  0.404-  47 3.40  47 3.40  31 3.41  28 3.41  30 3.46  25 3.46  32 3.49  27 3.49
                            39 3.61  38 3.83  48 3.92   7 4.31   7 4.31   5 4.35   6 4.73   6 4.73
  16  0.451  0.750  0.606-  27 3.35  32 3.35  18 3.42  21 3.42  48 3.49  48 3.49  47 3.52  28 3.53
                            31 3.53  40 3.60   8 4.21   8 4.21   2 4.45
  17  0.049  0.070  0.145-  22 2.39  41 2.41  35 2.48  11 3.42   3 3.42   9 3.43
  18  0.497  0.930  0.855-  21 2.39  42 2.41  40 2.48  16 3.42   8 3.42  10 3.43
  19  0.085  0.930  0.640-  24 2.39  43 2.43  33 2.44   1 3.33  12 3.41   9 3.41   4 3.41  11 3.53

  20  0.188  0.068  0.353-  44 2.41  23 2.41  38 2.42  11 3.35   6 3.41   3 3.41  14 3.45  12 3.49

  21  0.497  0.570  0.855-  18 2.39  42 2.41  40 2.48  16 3.42   8 3.42  10 3.43
  22  0.049  0.430  0.145-  17 2.39  41 2.41  35 2.48  11 3.42   3 3.42   9 3.43
  23  0.188  0.432  0.353-  44 2.41  20 2.41  38 2.42  11 3.35   6 3.41   3 3.41  14 3.45  12 3.49

  24  0.085  0.570  0.640-  19 2.39  43 2.43  33 2.44   1 3.33  12 3.41   9 3.41   4 3.41  11 3.53

  25  0.323  0.069  0.146-  30 2.41  45 2.41  39 2.41   6 3.36  14 3.43   7 3.44  13 3.45  15 3.46

  26  0.222  0.931  0.854-  29 2.41  46 2.41  36 2.41   5 3.36  13 3.43   4 3.44  14 3.45  12 3.46

  27  0.358  0.932  0.647-  47 2.41  32 2.41  37 2.42  16 3.35   5 3.41   8 3.41  13 3.45  15 3.49

  28  0.461  0.070  0.360-  31 2.39  48 2.43  34 2.44   2 3.33  15 3.41  10 3.41   7 3.41  16 3.53

  29  0.222  0.569  0.854-  26 2.41  46 2.41  36 2.41   5 3.36  13 3.43   4 3.44  14 3.45  12 3.46

  30  0.323  0.431  0.146-  25 2.41  45 2.41  39 2.41   6 3.36  14 3.43   7 3.44  13 3.45  15 3.46

  31  0.461  0.430  0.360-  28 2.39  48 2.43  34 2.44   2 3.33  15 3.41  10 3.41   7 3.41  16 3.53

  32  0.358  0.568  0.647-  47 2.41  27 2.41  37 2.42  16 3.35   5 3.41   8 3.41  13 3.45  15 3.49

  33  0.020  0.750  0.616-  43 2.44  19 2.44  24 2.44   1 3.47   1 3.47   9 3.59
  34  0.525  0.250  0.384-  48 2.44  31 2.44  28 2.44   2 3.47   2 3.47  10 3.59
  35  0.111  0.250  0.082-  41 2.45  22 2.48  17 2.48   4 3.27   3 3.60   3 3.60  11 3.60  14 3.84

  36  0.162  0.750  0.908-  26 2.41  29 2.41  46 2.42   9 3.37   3 3.41   4 3.57   4 3.57  12 3.61

  37  0.297  0.750  0.593-  27 2.42  32 2.42  47 2.45   6 3.35   5 3.56   5 3.56  13 3.65  12 3.83

  38  0.249  0.250  0.407-  23 2.42  20 2.42  44 2.45   5 3.35   6 3.56   6 3.56  14 3.65  15 3.83

  39  0.384  0.250  0.092-  30 2.41  25 2.41  45 2.42  10 3.37   8 3.41   7 3.57   7 3.57  15 3.61

  40  0.435  0.750  0.918-  42 2.45  18 2.48  21 2.48   7 3.27   8 3.60   8 3.60  16 3.60  13 3.84

  41  0.049  0.250  0.961-  22 2.41  17 2.41  35 2.45   1 3.27   9 3.39   9 3.39   4 3.50
  42  0.497  0.750  0.039-  18 2.41  21 2.41  40 2.45   2 3.27  10 3.39  10 3.39   7 3.50
  43  0.071  0.750  0.459-  19 2.43  24 2.43  33 2.44  11 3.49  11 3.49   3 3.60  12 3.92
  44  0.189  0.250  0.536-  23 2.41  20 2.41  38 2.45   5 3.39  12 3.40  12 3.40   4 3.48  11 3.52

  45  0.326  0.250  0.963-  30 2.41  25 2.41  39 2.42  13 3.39  13 3.39   8 3.48   5 3.48  14 3.56

  46  0.220  0.750  0.037-  26 2.41  29 2.41  36 2.42  14 3.39  14 3.39   3 3.48   6 3.48  13 3.56

  47  0.356  0.750  0.464-  27 2.41  32 2.41  37 2.45   6 3.39  15 3.40  15 3.40   7 3.48  16 3.52

  48  0.475  0.250  0.541-  31 2.43  28 2.43  34 2.44  16 3.49  16 3.49   8 3.60  15 3.92
 
  LATTYP: Found a simple monoclinic cell.
 ALAT       =    34.7976803893
 B/A-ratio  =     0.1909071279
 C/A-ratio  =     1.1489048559
 COS(beta)  =    -0.9630505124
  
  Lattice vectors:
  
 A1 = ( -32.8927182617,   0.0000000000, -11.3555116939)
 A2 = (   0.0000000000,  -6.6431252206,   0.0000000000)
 A3 = (  32.8805923069,   0.0000000000,  22.7421414807)


Analysis of symmetry for initial positions (statically):
=====================================================================
 Subroutine PRICEL returns:
 Original cell was already a primitive cell.
 

 Routine SETGRP: Setting up the symmetry group for a 
 simple monoclinic supercell.


 Subroutine GETGRP returns: Found  4 space group operations
 (whereof  1 operations were pure point group operations)
 out of a pool of  4 trial point group operations.


The static configuration has the point symmetry C_1 .
 The point group associated with its full space group is C_2h.


Analysis of symmetry for dynamics (positions and initial velocities):
=====================================================================
 Subroutine PRICEL returns:
 Original cell was already a primitive cell.
 

 Routine SETGRP: Setting up the symmetry group for a 
 simple monoclinic supercell.


 Subroutine GETGRP returns: Found  4 space group operations
 (whereof  1 operations were pure point group operations)
 out of a pool of  4 trial point group operations.


The dynamic configuration has the point symmetry C_1 .
 The point group associated with its full space group is C_2h.


 Subroutine INISYM returns: Found  4 space group operations
 (whereof  1 operations are pure point group operations),
 and found     1 'primitive' translations

 
 
 KPOINTS: k-points along high symmetry lines      
  interpolating k-points between supplied coordinates
  k-points in reciprocal lattice
Space group operators:
 irot       det(A)        alpha          n_x          n_y          n_z        tau_x        tau_y        tau_z
    1     1.000000     0.000000     1.000000     0.000000     0.000000     0.000000     0.000000     0.000000
    2    -1.000000     0.000000     1.000000     0.000000     0.000000    -0.454285     0.000000    -0.000000
    3     1.000000   180.000000     0.000000     1.000000     0.000000    -0.454285    -0.500000    -0.000000
    4    -1.000000   180.000000     0.000000     1.000000     0.000000     0.000000    -0.500000     0.000000


--------------------------------------------------------------------------------------------------------




 Dimension of arrays:
   k-points           NKPTS =     80   k-points in BZ     NKDIM =     80   number of bands    NBANDS=    176
   number of dos      NEDOS =    301   number of ions     NIONS =     48
   non local maximal  LDIM  =      6   non local SUM 2l+1 LMDIM =     18
   total plane-waves  NPLWV = 414720
   max r-space proj   IRMAX =   2721   max aug-charges    IRDMAX=  10628
   dimension x,y,z NGX =   180 NGY =   36 NGZ =   64
   dimension x,y,z NGXF=   360 NGYF=   72 NGZF=  128
   support grid    NGXF=   360 NGYF=   72 NGZF=  128
   ions per type =              16  32
   NGX,Y,Z   is equivalent  to a cutoff of   9.09,  9.01,  9.34 a.u.
   NGXF,Y,Z  is equivalent  to a cutoff of  18.19, 18.02, 18.69 a.u.

 SYSTEM =  unknown system                          
 POSCAR =  ba8 si16                                

 Startparameter for this run:
   NWRITE =      2    write-flag & timer
   PREC   = normal    normal or accurate (medium, high low for compatibility)
   ISTART =      0    job   : 0-new  1-cont  2-samecut
   ICHARG =     11    charge: 1-file 2-atom 10-const
   ISPIN  =      1    spin polarized calculation?
   LNONCOLLINEAR =      F non collinear calculations
   LSORBIT =      F    spin-orbit coupling
   INIWAV =      1    electr: 0-lowe 1-rand  2-diag
   LASPH  =      T    aspherical Exc in radial PAW
   METAGGA=      F    non-selfconsistent MetaGGA calc.

 Electronic Relaxation 1
   ENCUT  =  500.0 eV  36.75 Ry    6.06 a.u.  59.99 12.11 20.76*2*pi/ulx,y,z
   ENINI  =  500.0     initial cutoff
   ENAUG  =  351.2 eV  augmentation charge cutoff
   NELM   =    100;   NELMIN=  2; NELMDL= -5     # of ELM steps 
   EDIFF  = 0.1E-05   stopping-criterion for ELM
   LREAL  =      T    real-space projection
   NLSPLINE    = F    spline interpolate recip. space projectors
   LCOMPAT=      F    compatible to vasp.4.4
   GGA_COMPAT  = T    GGA compatible to vasp.4.4-vasp.4.6
   LMAXPAW     = -100 max onsite density
   LMAXMIX     =    2 max onsite mixed and CHGCAR
   VOSKOWN=      0    Vosko Wilk Nusair interpolation
   ROPT   =   -0.00050  -0.00050
 Ionic relaxation
   EDIFFG = -.1E-01   stopping-criterion for IOM
   NSW    =      0    number of steps for IOM
   NBLOCK =      1;   KBLOCK =      1    inner block; outer block 
   IBRION =     -1    ionic relax: 0-MD 1-quasi-New 2-CG
   NFREE  =      0    steps in history (QN), initial steepest desc. (CG)
   ISIF   =      2    stress and relaxation
   IWAVPR =     10    prediction:  0-non 1-charg 2-wave 3-comb
   ISYM   =      2    0-nonsym 1-usesym 2-fastsym
   LCORR  =      T    Harris-Foulkes like correction to forces

   POTIM  = 0.3000    time-step for ionic-motion
   TEIN   =    0.0    initial temperature
   TEBEG  =    0.0;   TEEND  =   0.0 temperature during run
   SMASS  =  -3.00    Nose mass-parameter (am)
   estimated Nose-frequenzy (Omega)   =  0.10E-29 period in steps =****** mass=  -0.247E-25a.u.
   SCALEE = 1.0000    scale energy and forces
   NPACO  =    256;   APACO  = 16.0  distance and # of slots for P.C.
   PSTRESS=    0.0 pullay stress

  Mass of Ions in am
   POMASS = 137.33 28.09
  Ionic Valenz
   ZVAL   =  10.00  4.00
  Atomic Wigner-Seitz radii
   RWIGS  =  -1.00 -1.00
  virtual crystal weights 
   VCA    =   1.00  1.00
   NELECT =     288.0000    total number of electrons
   NUPDOWN=      -1.0000    fix difference up-down

 DOS related values:
   EMIN   =  10.00;   EMAX   =-10.00  energy-range for DOS
   EFERMI =   0.00
   ISMEAR =     0;   SIGMA  =   0.01  broadening in eV -4-tet -1-fermi 0-gaus

 Electronic relaxation 2 (details)
   IALGO  =     38    algorithm
   LDIAG  =      T    sub-space diagonalisation (order eigenvalues)
   LSUBROT=      F    optimize rotation matrix (better conditioning)
   TURBO    =      0    0=normal 1=particle mesh
   IRESTART =      0    0=no restart 2=restart with 2 vectors
   NREBOOT  =      0    no. of reboots
   NMIN     =      0    reboot dimension
   EREF     =   0.00    reference energy to select bands
   IMIX   =      4    mixing-type and parameters
     AMIX     =   0.40;   BMIX     =  1.00
     AMIX_MAG =   1.60;   BMIX_MAG =  1.00
     AMIN     =   0.10
     WC   =   100.;   INIMIX=   1;  MIXPRE=   1;  MAXMIX= -45

 Intra band minimization:
   WEIMIN = 0.0000     energy-eigenvalue tresh-hold
   EBREAK =  0.14E-08  absolut break condition
   DEPER  =   0.30     relativ break condition  

   TIME   =   0.40     timestep for ELM

  volume/ion in A,a.u.               =      51.85       349.93
  Fermi-wavevector in a.u.,A,eV,Ry     =   0.797744  1.507517  8.658677  0.636395
  Thomas-Fermi vector in A             =   1.904520
 
 Write flags
   LWAVE        =      T    write WAVECAR
   LDOWNSAMPLE  =      F    k-point downsampling of WAVECAR
   LCHARG       =      T    write CHGCAR
   LVTOT        =      F    write LOCPOT, total local potential
   LVHAR        =      F    write LOCPOT, Hartree potential only
   LELF         =      F    write electronic localiz. function (ELF)
   LORBIT       =      0    0 simple, 1 ext, 2 COOP (PROOUT), +10 PAW based schemes


 Dipole corrections
   LMONO  =      F    monopole corrections only (constant potential shift)
   LDIPOL =      F    correct potential (dipole corrections)
   IDIPOL =      0    1-x, 2-y, 3-z, 4-all directions 
   EPSILON=  1.0000000 bulk dielectric constant

 Exchange correlation treatment:
   GGA     =    MK    GGA type
   LEXCH   =    43    internal setting for exchange type
   VOSKOWN=      0    Vosko Wilk Nusair interpolation
   LHFCALC =     F    Hartree Fock is set to
   LHFONE  =     F    Hartree Fock one center treatment
   AEXX    =    0.0000 exact exchange contribution

 vdW DFT:
   LUSE_VDW   =     T    switch on vdW DFT
   Zab_VDW    =******    correlation parameter
   PARAM1     =0.1234
   PARAM2     =0.7114
   PARAM3     =0.0000
   -- rVV10 --
   BPARAM     = 6.3000
   CPARAM     = 0.0093

 Linear response parameters
   LEPSILON=     F    determine dielectric tensor
   LRPA    =     F    only Hartree local field effects (RPA)
   LNABLA  =     F    use nabla operator in PAW spheres
   LVEL    =     F    velocity operator in full k-point grid
   LINTERFAST=   F  fast interpolation
   KINTER  =     0    interpolate to denser k-point grid
   CSHIFT  =0.1000    complex shift for real part using Kramers Kronig
   OMEGAMAX=  -1.0    maximum frequency
   DEG_THRESHOLD= 0.2000000E-02 threshold for treating states as degnerate
   RTIME   =   -0.100 relaxation time in fs
  (WPLASMAI=    0.000 imaginary part of plasma frequency in eV, 0.658/RTIME)
   DFIELD  = 0.0000000 0.0000000 0.0000000 field for delta impulse in time
 
 Orbital magnetization related:
   ORBITALMAG=     F  switch on orbital magnetization
   LCHIMAG   =     F  perturbation theory with respect to B field
   DQ        =  0.001000  dq finite difference perturbation B field
   LLRAUG    =     F  two centre corrections for induced B field



--------------------------------------------------------------------------------------------------------


 Static calculation
 charge density and potential remain constant during run
 non-spin polarized calculation
 Variant of blocked Davidson
 Davidson routine will perform the subspace rotation
 perform sub-space diagonalisation
    after iterative eigenvector-optimisation
 no mixing
 using additional bands           32
 real space projection scheme for non local part
 use partial core corrections
 calculate Harris-corrections to forces 
   (improved forces if not selfconsistent)
 use gradient corrections 
 WARNING: stress and forces are not correct
  (second derivative of E(xc) not defined)
 use of overlap-Matrix (Vanderbilt PP)
 Gauss-broadening in eV      SIGMA  =   0.01


--------------------------------------------------------------------------------------------------------


  energy-cutoff  :      500.00
  volume of cell :     2489.01
      direct lattice vectors                 reciprocal lattice vectors
    32.904844216  0.000000000 -0.031118093     0.030390693  0.000000000  0.000032364
     0.000000000  6.643125221  0.000000000     0.000000000  0.150531560  0.000000000
    -0.012125955  0.000000000 11.386629787     0.000083054  0.000000000  0.087822387

  length of vectors
    32.904858931  6.643125221 11.386636243     0.030390710  0.150531560  0.087822426


 
 k-points in units of 2pi/SCALE and weight: k-points along high symmetry lines      
   0.00000000  0.00000000  0.00000000       0.013
   0.00000000  0.00396136  0.00000000       0.013
   0.00000000  0.00792271  0.00000000       0.013
   0.00000000  0.01188407  0.00000000       0.013
   0.00000000  0.01584543  0.00000000       0.013
   0.00000000  0.01980678  0.00000000       0.013
   0.00000000  0.02376814  0.00000000       0.013
   0.00000000  0.02772950  0.00000000       0.013
   0.00000000  0.03169085  0.00000000       0.013
   0.00000000  0.03565221  0.00000000       0.013
   0.00000000  0.03961357  0.00000000       0.013
   0.00000000  0.04357493  0.00000000       0.013
   0.00000000  0.04753628  0.00000000       0.013
   0.00000000  0.05149764  0.00000000       0.013
   0.00000000  0.05545900  0.00000000       0.013
   0.00000000  0.05942035  0.00000000       0.013
   0.00000000  0.06338171  0.00000000       0.013
   0.00000000  0.06734307  0.00000000       0.013
   0.00000000  0.07130442  0.00000000       0.013
   0.00000000  0.07526578  0.00000000       0.013
   0.00000000  0.07526578  0.00000000       0.013
   0.00000219  0.07526578  0.00231112       0.013
   0.00000437  0.07526578  0.00462223       0.013
   0.00000656  0.07526578  0.00693335       0.013
   0.00000874  0.07526578  0.00924446       0.013
   0.00001093  0.07526578  0.01155558       0.013
   0.00001311  0.07526578  0.01386669       0.013
   0.00001530  0.07526578  0.01617781       0.013
   0.00001748  0.07526578  0.01848892       0.013
   0.00001967  0.07526578  0.02080004       0.013
   0.00002186  0.07526578  0.02311115       0.013
   0.00002404  0.07526578  0.02542227       0.013
   0.00002623  0.07526578  0.02773339       0.013
   0.00002841  0.07526578  0.03004450       0.013
   0.00003060  0.07526578  0.03235562       0.013
   0.00003278  0.07526578  0.03466673       0.013
   0.00003497  0.07526578  0.03697785       0.013
   0.00003716  0.07526578  0.03928896       0.013
   0.00003934  0.07526578  0.04160008       0.013
   0.00004153  0.07526578  0.04391119       0.013
   0.00004153  0.07526578  0.04391119       0.013
   0.00004153  0.07130442  0.04391119       0.013
   0.00004153  0.06734307  0.04391119       0.013
   0.00004153  0.06338171  0.04391119       0.013
   0.00004153  0.05942035  0.04391119       0.013
   0.00004153  0.05545900  0.04391119       0.013
   0.00004153  0.05149764  0.04391119       0.013
   0.00004153  0.04753628  0.04391119       0.013
   0.00004153  0.04357493  0.04391119       0.013
   0.00004153  0.03961357  0.04391119       0.013
   0.00004153  0.03565221  0.04391119       0.013
   0.00004153  0.03169085  0.04391119       0.013
   0.00004153  0.02772950  0.04391119       0.013
   0.00004153  0.02376814  0.04391119       0.013
   0.00004153  0.01980678  0.04391119       0.013
   0.00004153  0.01584543  0.04391119       0.013
   0.00004153  0.01188407  0.04391119       0.013
   0.00004153  0.00792271  0.04391119       0.013
   0.00004153  0.00396136  0.04391119       0.013
   0.00004153  0.00000000  0.04391119       0.013
   0.00004153  0.00000000  0.04391119       0.013
   0.00003934  0.00000000  0.04160008       0.013
   0.00003716  0.00000000  0.03928896       0.013
   0.00003497  0.00000000  0.03697785       0.013
   0.00003278  0.00000000  0.03466673       0.013
   0.00003060  0.00000000  0.03235562       0.013
   0.00002841  0.00000000  0.03004450       0.013
   0.00002623  0.00000000  0.02773339       0.013
   0.00002404  0.00000000  0.02542227       0.013
   0.00002186  0.00000000  0.02311115       0.013
   0.00001967  0.00000000  0.02080004       0.013
   0.00001748  0.00000000  0.01848892       0.013
   0.00001530  0.00000000  0.01617781       0.013
   0.00001311  0.00000000  0.01386669       0.013
   0.00001093  0.00000000  0.01155558       0.013
   0.00000874  0.00000000  0.00924446       0.013
   0.00000656  0.00000000  0.00693335       0.013
   0.00000437  0.00000000  0.00462223       0.013
   0.00000219  0.00000000  0.00231112       0.013
   0.00000000  0.00000000  0.00000000       0.013
 
 k-points in reciprocal lattice and weights: k-points along high symmetry lines      
   0.00000000  0.00000000  0.00000000       0.013
   0.00000000  0.02631579  0.00000000       0.013
   0.00000000  0.05263158  0.00000000       0.013
   0.00000000  0.07894737  0.00000000       0.013
   0.00000000  0.10526316  0.00000000       0.013
   0.00000000  0.13157895  0.00000000       0.013
   0.00000000  0.15789474  0.00000000       0.013
   0.00000000  0.18421053  0.00000000       0.013
   0.00000000  0.21052632  0.00000000       0.013
   0.00000000  0.23684211  0.00000000       0.013
   0.00000000  0.26315789  0.00000000       0.013
   0.00000000  0.28947368  0.00000000       0.013
   0.00000000  0.31578947  0.00000000       0.013
   0.00000000  0.34210526  0.00000000       0.013
   0.00000000  0.36842105  0.00000000       0.013
   0.00000000  0.39473684  0.00000000       0.013
   0.00000000  0.42105263  0.00000000       0.013
   0.00000000  0.44736842  0.00000000       0.013
   0.00000000  0.47368421  0.00000000       0.013
   0.00000000  0.50000000  0.00000000       0.013
   0.00000000  0.50000000  0.00000000       0.013
   0.00000000  0.50000000  0.02631579       0.013
   0.00000000  0.50000000  0.05263158       0.013
   0.00000000  0.50000000  0.07894737       0.013
   0.00000000  0.50000000  0.10526316       0.013
   0.00000000  0.50000000  0.13157895       0.013
   0.00000000  0.50000000  0.15789474       0.013
   0.00000000  0.50000000  0.18421053       0.013
   0.00000000  0.50000000  0.21052632       0.013
   0.00000000  0.50000000  0.23684211       0.013
   0.00000000  0.50000000  0.26315789       0.013
   0.00000000  0.50000000  0.28947368       0.013
   0.00000000  0.50000000  0.31578947       0.013
   0.00000000  0.50000000  0.34210526       0.013
   0.00000000  0.50000000  0.36842105       0.013
   0.00000000  0.50000000  0.39473684       0.013
   0.00000000  0.50000000  0.42105263       0.013
   0.00000000  0.50000000  0.44736842       0.013
   0.00000000  0.50000000  0.47368421       0.013
   0.00000000  0.50000000  0.50000000       0.013
   0.00000000  0.50000000  0.50000000       0.013
   0.00000000  0.47368421  0.50000000       0.013
   0.00000000  0.44736842  0.50000000       0.013
   0.00000000  0.42105263  0.50000000       0.013
   0.00000000  0.39473684  0.50000000       0.013
   0.00000000  0.36842105  0.50000000       0.013
   0.00000000  0.34210526  0.50000000       0.013
   0.00000000  0.31578947  0.50000000       0.013
   0.00000000  0.28947368  0.50000000       0.013
   0.00000000  0.26315789  0.50000000       0.013
   0.00000000  0.23684211  0.50000000       0.013
   0.00000000  0.21052632  0.50000000       0.013
   0.00000000  0.18421053  0.50000000       0.013
   0.00000000  0.15789474  0.50000000       0.013
   0.00000000  0.13157895  0.50000000       0.013
   0.00000000  0.10526316  0.50000000       0.013
   0.00000000  0.07894737  0.50000000       0.013
   0.00000000  0.05263158  0.50000000       0.013
   0.00000000  0.02631579  0.50000000       0.013
   0.00000000  0.00000000  0.50000000       0.013
   0.00000000  0.00000000  0.50000000       0.013
   0.00000000  0.00000000  0.47368421       0.013
   0.00000000  0.00000000  0.44736842       0.013
   0.00000000  0.00000000  0.42105263       0.013
   0.00000000  0.00000000  0.39473684       0.013
   0.00000000  0.00000000  0.36842105       0.013
   0.00000000  0.00000000  0.34210526       0.013
   0.00000000  0.00000000  0.31578947       0.013
   0.00000000  0.00000000  0.28947368       0.013
   0.00000000  0.00000000  0.26315789       0.013
   0.00000000  0.00000000  0.23684211       0.013
   0.00000000  0.00000000  0.21052632       0.013
   0.00000000  0.00000000  0.18421053       0.013
   0.00000000  0.00000000  0.15789474       0.013
   0.00000000  0.00000000  0.13157895       0.013
   0.00000000  0.00000000  0.10526316       0.013
   0.00000000  0.00000000  0.07894737       0.013
   0.00000000  0.00000000  0.05263158       0.013
   0.00000000  0.00000000  0.02631579       0.013
   0.00000000  0.00000000  0.00000000       0.013
 
 position of ions in fractional coordinates (direct lattice) 
   0.00938449  0.25000000  0.69807423
   0.53633076  0.75000002  0.30192577
   0.12879642  0.75000002  0.19118719
   0.14136631  0.25000000  0.80844098
   0.27766054  0.25000000  0.68973616
   0.26805468  0.75000002  0.31026384
   0.40434891  0.75000002  0.19155900
   0.41691880  0.25000000  0.80881279
   0.05905771  0.75000002  0.91068601
   0.48665752  0.25000000  0.08931397
   0.09433010  0.25000000  0.39447157
   0.18034407  0.75000002  0.59575735
   0.31819228  0.75000002  0.90696590
   0.22752295  0.25000000  0.09303407
   0.36537116  0.25000000  0.40424269
   0.45138512  0.75000002  0.60552847
   0.04872576  0.06998604  0.14511706
   0.49698947  0.93001395  0.85488292
   0.08463346  0.93012269  0.64036268
   0.18813032  0.06824984  0.35288031
   0.49698947  0.56998605  0.85488292
   0.04872576  0.43001395  0.14511706
   0.18813032  0.43175016  0.35288031
   0.08463346  0.56987731  0.64036268
   0.32337645  0.06870185  0.14622564
   0.22233879  0.93129814  0.85377434
   0.35758489  0.93175016  0.64711969
   0.46108177  0.06987730  0.35963732
   0.22233879  0.56870186  0.85377434
   0.32337645  0.43129814  0.14622564
   0.46108177  0.43012269  0.35963732
   0.35758489  0.56824984  0.64711969
   0.02045863  0.75000002  0.61558028
   0.52525656  0.25000000  0.38441972
   0.11080589  0.25000000  0.08168962
   0.16159192  0.75000002  0.90771910
   0.29670109  0.75000002  0.59250165
   0.24901413  0.25000000  0.40749835
   0.38412331  0.25000000  0.09228088
   0.43490934  0.75000002  0.91831036
   0.04904360  0.25000000  0.96124476
   0.49667161  0.75000002  0.03875526
   0.07084034  0.75000002  0.45903034
   0.18938180  0.25000000  0.53604450
   0.32572300  0.25000000  0.96264124
   0.21999224  0.75000002  0.03735877
   0.35633341  0.75000002  0.46395542
   0.47487490  0.25000000  0.54096958
 
 position of ions in cartesian coordinates  (Angst):
   0.30033041  1.66078131  7.94842074
  17.64421906  4.98234403  3.42122743
   4.23570790  4.98234403  2.17296987
   4.64183344  1.66078131  9.20101911
   9.12801313  1.66078131  7.84513005
   8.81653536  4.98234403  3.52451812
  13.30271505  4.98234403  2.16862883
  13.70884060  1.66078131  9.19667806
   1.93224175  4.98234403 10.36780663
  16.01230674  1.66078131  1.00184130
   3.09913405  1.66078131  4.48876633
   5.92696934  4.98234403  6.77805647
  10.45906948  4.98234403 10.31738345
   7.48547902  1.66078131  1.05226449
  12.01757916  1.66078131  4.59159217
  14.84541445  4.98234403  6.88088231
   1.60155402  0.46492600  1.65087800
  16.34299495  6.17819916  9.71876993
   2.77708594  6.17892147  7.28893919
   6.18611972  0.45339221  4.01226321
  16.34299495  3.78648867  9.71876993
   1.60155402  2.85663655  1.65087800
   6.18611972  2.86817035  4.01226321
   2.77708594  3.78576636  7.28893919
  10.63887843  0.45639501  1.65495433
   7.30567053  6.18673015  9.71469361
  11.75842830  6.18973296  7.35738496
  15.16746303  0.46420369  4.08070898
   7.30567053  3.77795768  9.71469361
  10.63887843  2.86516754  1.65495433
  15.16746303  2.85735886  4.08070898
  11.75842830  3.77495487  7.35738496
   0.66572347  4.98234403  7.00874807
  17.27882390  1.66078131  4.36090010
   3.64506013  1.66078131  0.92672134
   5.30614989  4.98234403 10.33083293
   9.75571855  4.98234403  6.73736422
   8.18882995  1.66078131  4.63228395
  12.63839861  1.66078131  1.03881500
  14.29948860  4.98234403 10.44292659
   1.60211590  1.66078131 10.94381203
  16.34243200  4.98234403  0.42583631
   2.32542414  4.98234403  5.22460412
   6.22507857  1.66078131  6.09784706
  10.70619165  1.66078131 10.95110356
   7.23835732  4.98234403  0.41854478
  11.71946945  4.98234403  5.27180017
  15.61912483  1.66078131  6.14504311
 


--------------------------------------------------------------------------------------------------------


 k-point  1 :   0.0000 0.0000 0.0000  plane waves:   63067
 k-point  2 :   0.0000 0.0263 0.0000  plane waves:   63071
 k-point  3 :   0.0000 0.0526 0.0000  plane waves:   63085
 k-point  4 :   0.0000 0.0789 0.0000  plane waves:   63119
 k-point  5 :   0.0000 0.1053 0.0000  plane waves:   63119
 k-point  6 :   0.0000 0.1316 0.0000  plane waves:   63154
 k-point  7 :   0.0000 0.1579 0.0000  plane waves:   63192
 k-point  8 :   0.0000 0.1842 0.0000  plane waves:   63200
 k-point  9 :   0.0000 0.2105 0.0000  plane waves:   63236
 k-point 10 :   0.0000 0.2368 0.0000  plane waves:   63214
 k-point 11 :   0.0000 0.2632 0.0000  plane waves:   63204
 k-point 12 :   0.0000 0.2895 0.0000  plane waves:   63224
 k-point 13 :   0.0000 0.3158 0.0000  plane waves:   63240
 k-point 14 :   0.0000 0.3421 0.0000  plane waves:   63248
 k-point 15 :   0.0000 0.3684 0.0000  plane waves:   63218
 k-point 16 :   0.0000 0.3947 0.0000  plane waves:   63220
 k-point 17 :   0.0000 0.4211 0.0000  plane waves:   63242
 k-point 18 :   0.0000 0.4474 0.0000  plane waves:   63218
 k-point 19 :   0.0000 0.4737 0.0000  plane waves:   63248
 k-point 20 :   0.0000 0.5000 0.0000  plane waves:   63260
 k-point 21 :   0.0000 0.5000 0.0000  plane waves:   63260
 k-point 22 :   0.0000 0.5000 0.0263  plane waves:   63248
 k-point 23 :   0.0000 0.5000 0.0526  plane waves:   63250
 k-point 24 :   0.0000 0.5000 0.0789  plane waves:   63252
 k-point 25 :   0.0000 0.5000 0.1053  plane waves:   63232
 k-point 26 :   0.0000 0.5000 0.1316  plane waves:   63242
 k-point 27 :   0.0000 0.5000 0.1579  plane waves:   63256
 k-point 28 :   0.0000 0.5000 0.1842  plane waves:   63252
 k-point 29 :   0.0000 0.5000 0.2105  plane waves:   63246
 k-point 30 :   0.0000 0.5000 0.2368  plane waves:   63246
 k-point 31 :   0.0000 0.5000 0.2632  plane waves:   63236
 k-point 32 :   0.0000 0.5000 0.2895  plane waves:   63230
 k-point 33 :   0.0000 0.5000 0.3158  plane waves:   63222
 k-point 34 :   0.0000 0.5000 0.3421  plane waves:   63230
 k-point 35 :   0.0000 0.5000 0.3684  plane waves:   63218
 k-point 36 :   0.0000 0.5000 0.3947  plane waves:   63210
 k-point 37 :   0.0000 0.5000 0.4211  plane waves:   63202
 k-point 38 :   0.0000 0.5000 0.4474  plane waves:   63202
 k-point 39 :   0.0000 0.5000 0.4737  plane waves:   63198
 k-point 40 :   0.0000 0.5000 0.5000  plane waves:   63220
 k-point 41 :   0.0000 0.5000 0.5000  plane waves:   63220
 k-point 42 :   0.0000 0.4737 0.5000  plane waves:   63226
 k-point 43 :   0.0000 0.4474 0.5000  plane waves:   63224
 k-point 44 :   0.0000 0.4211 0.5000  plane waves:   63242
 k-point 45 :   0.0000 0.3947 0.5000  plane waves:   63244
 k-point 46 :   0.0000 0.3684 0.5000  plane waves:   63220
 k-point 47 :   0.0000 0.3421 0.5000  plane waves:   63198
 k-point 48 :   0.0000 0.3158 0.5000  plane waves:   63196
 k-point 49 :   0.0000 0.2895 0.5000  plane waves:   63198
 k-point 50 :   0.0000 0.2632 0.5000  plane waves:   63186
 k-point 51 :   0.0000 0.2368 0.5000  plane waves:   63180
 k-point 52 :   0.0000 0.2105 0.5000  plane waves:   63134
 k-point 53 :   0.0000 0.1842 0.5000  plane waves:   63150
 k-point 54 :   0.0000 0.1579 0.5000  plane waves:   63116
 k-point 55 :   0.0000 0.1316 0.5000  plane waves:   63130
 k-point 56 :   0.0000 0.1053 0.5000  plane waves:   63148
 k-point 57 :   0.0000 0.0789 0.5000  plane waves:   63136
 k-point 58 :   0.0000 0.0526 0.5000  plane waves:   63164
 k-point 59 :   0.0000 0.0263 0.5000  plane waves:   63192
 k-point 60 :   0.0000 0.0000 0.5000  plane waves:   63190
 k-point 61 :   0.0000 0.0000 0.5000  plane waves:   63190
 k-point 62 :   0.0000 0.0000 0.4737  plane waves:   63183
 k-point 63 :   0.0000 0.0000 0.4474  plane waves:   63201
 k-point 64 :   0.0000 0.0000 0.4211  plane waves:   63221
 k-point 65 :   0.0000 0.0000 0.3947  plane waves:   63201
 k-point 66 :   0.0000 0.0000 0.3684  plane waves:   63187
 k-point 67 :   0.0000 0.0000 0.3421  plane waves:   63188
 k-point 68 :   0.0000 0.0000 0.3158  plane waves:   63172
 k-point 69 :   0.0000 0.0000 0.2895  plane waves:   63141
 k-point 70 :   0.0000 0.0000 0.2632  plane waves:   63141
 k-point 71 :   0.0000 0.0000 0.2368  plane waves:   63143
 k-point 72 :   0.0000 0.0000 0.2105  plane waves:   63148
 k-point 73 :   0.0000 0.0000 0.1842  plane waves:   63137
 k-point 74 :   0.0000 0.0000 0.1579  plane waves:   63121
 k-point 75 :   0.0000 0.0000 0.1316  plane waves:   63099
 k-point 76 :   0.0000 0.0000 0.1053  plane waves:   63099
 k-point 77 :   0.0000 0.0000 0.0789  plane waves:   63070
 k-point 78 :   0.0000 0.0000 0.0526  plane waves:   63055
 k-point 79 :   0.0000 0.0000 0.0263  plane waves:   63059
 k-point 80 :   0.0000 0.0000 0.0000  plane waves:   63067

 maximum and minimum number of plane-waves per node :     15950    15697

 maximum number of plane-waves:     63260
 maximum index in each direction: 
   IXMAX=   59   IYMAX=   12   IZMAX=   20
   IXMIN=  -59   IYMIN=  -12   IZMIN=  -21


 real space projection operators:
  total allocation   :       7965.28 KBytes
  max/ min on nodes  :       2001.80       1982.91


 parallel 3D FFT for wavefunctions:
    minimum data exchange during FFTs selected (reduces bandwidth)
 parallel 3D FFT for charge:
    minimum data exchange during FFTs selected (reduces bandwidth)


 total amount of memory used by VASP MPI-rank0   500732. kBytes
=======================================================================

   base      :      30000. kBytes
   nonlr-proj:       4645. kBytes
   fftplans  :       6934. kBytes
   grid      :      10435. kBytes
   one-center:        186. kBytes
   wavefun   :     448532. kBytes
 
     INWAV:  cpu time    0.0001: real time    0.0003
 initial charge density was supplied:
 number of electron     287.9999965 magnetization 
 keeping initial charge density in first step


--------------------------------------------------------------------------------------------------------


 Maximum index for non-local projection operator          665
 Maximum index for augmentation-charges          682 (set IRDMAX)


--------------------------------------------------------------------------------------------------------


 First call to EWALD:  gamma=   0.131
 Maximum number of real-space cells 1x 5x 3
 Maximum number of reciprocal cells 6x 2x 2

    FEWALD:  cpu time    0.2976: real time    0.2983


--------------------------------------- Iteration      1(   1)  ---------------------------------------


vdW kernel read from vdw_kernel.bindat
  0.0000  0.2424  0.5071  0.7962  1.1119  1.4567  1.8333  2.2446  2.6937  3.1842
  3.7199  4.3049  4.9438  5.6415  6.4036  7.2358  8.1446  9.1372 10.2212 11.4050
 12.6979 14.1099 15.6519 17.3360 19.1751 21.1837 23.3773 25.7729 28.3892 31.2465
 34.3669 37.7748 41.4965 45.5611 50.0000
 
    POTLOK:  cpu time    3.4641: real time    3.5885
    SETDIJ:  cpu time    0.2200: real time    0.2209
     EDDAV:  cpu time   47.2211: real time   47.9682
       DOS:  cpu time    0.0039: real time    0.0041
    --------------------------------------------
      LOOP:  cpu time   50.9092: real time   51.7818

 eigenvalue-minimisations  : 28736
 total energy-change (2. order) : 0.2108666E+04  (-0.1018272E+05)
 number of electron     287.9999965 magnetization 
 augmentation part      287.9999965 magnetization 

 Free energy of the ion-electron system (eV)
  ---------------------------------------------------
  alpha Z        PSCENC =       517.20388186
  Ewald energy   TEWEN  =     44338.08918132
  -Hartree energ DENC   =    -57687.87592091
  -exchange      EXHF   =         0.00000000
  -V(xc)+E(xc)   XCENC  =        96.99956676
  PAW double counting   =      7735.85313748    -7146.97976309
  entropy T*S    EENTRO =        -0.00100742
  eigenvalues    EBANDS =      -282.92624223
  atomic energy  EATOM  =     14538.30290828
  Solvation  Ediel_sol  =         0.00000000
  ---------------------------------------------------
  free energy    TOTEN  =      2108.66574205 eV

  energy without entropy =     2108.66674946  energy(sigma->0) =     2108.66624576


--------------------------------------------------------------------------------------------------------




--------------------------------------- Iteration      1(   2)  ---------------------------------------


     EDDAV:  cpu time   60.7856: real time   61.6795
       DOS:  cpu time    0.0043: real time    0.0043
    --------------------------------------------
      LOOP:  cpu time   60.7899: real time   61.6837

 eigenvalue-minimisations  : 39680
 total energy-change (2. order) :-0.2007955E+04  (-0.1948247E+04)
 number of electron     287.9999965 magnetization 
 augmentation part      287.9999965 magnetization 

 Free energy of the ion-electron system (eV)
  ---------------------------------------------------
  alpha Z        PSCENC =       517.20388186
  Ewald energy   TEWEN  =     44338.08918132
  -Hartree energ DENC   =    -57687.87592091
  -exchange      EXHF   =         0.00000000
  -V(xc)+E(xc)   XCENC  =        96.99956676
  PAW double counting   =      7735.85313748    -7146.97976309
  entropy T*S    EENTRO =        -0.00006668
  eigenvalues    EBANDS =     -2290.88212758
  atomic energy  EATOM  =     14538.30290828
  Solvation  Ediel_sol  =         0.00000000
  ---------------------------------------------------
  free energy    TOTEN  =       100.71079743 eV

  energy without entropy =      100.71086411  energy(sigma->0) =      100.71083077


--------------------------------------------------------------------------------------------------------




--------------------------------------- Iteration      1(   3)  ---------------------------------------


     EDDAV:  cpu time   55.4152: real time   56.2210
       DOS:  cpu time    0.0027: real time    0.0027
    --------------------------------------------
      LOOP:  cpu time   55.4179: real time   56.2237

 eigenvalue-minimisations  : 34792
 total energy-change (2. order) :-0.2769624E+03  (-0.2744014E+03)
 number of electron     287.9999965 magnetization 
 augmentation part      287.9999965 magnetization 

 Free energy of the ion-electron system (eV)
  ---------------------------------------------------
  alpha Z        PSCENC =       517.20388186
  Ewald energy   TEWEN  =     44338.08918132
  -Hartree energ DENC   =    -57687.87592091
  -exchange      EXHF   =         0.00000000
  -V(xc)+E(xc)   XCENC  =        96.99956676
  PAW double counting   =      7735.85313748    -7146.97976309
  entropy T*S    EENTRO =        -0.00000000
  eigenvalues    EBANDS =     -2567.84460379
  atomic energy  EATOM  =     14538.30290828
  Solvation  Ediel_sol  =         0.00000000
  ---------------------------------------------------
  free energy    TOTEN  =      -176.25161210 eV

  energy without entropy =     -176.25161210  energy(sigma->0) =     -176.25161210


--------------------------------------------------------------------------------------------------------




--------------------------------------- Iteration      1(   4)  ---------------------------------------


     EDDAV:  cpu time   62.6419: real time   63.5516
       DOS:  cpu time    0.0032: real time    0.0032
    --------------------------------------------
      LOOP:  cpu time   62.6451: real time   63.5548

 eigenvalue-minimisations  : 40752
 total energy-change (2. order) :-0.1176867E+02  (-0.1171922E+02)
 number of electron     287.9999965 magnetization 
 augmentation part      287.9999965 magnetization 

 Free energy of the ion-electron system (eV)
  ---------------------------------------------------
  alpha Z        PSCENC =       517.20388186
  Ewald energy   TEWEN  =     44338.08918132
  -Hartree energ DENC   =    -57687.87592091
  -exchange      EXHF   =         0.00000000
  -V(xc)+E(xc)   XCENC  =        96.99956676
  PAW double counting   =      7735.85313748    -7146.97976309
  entropy T*S    EENTRO =        -0.00000000
  eigenvalues    EBANDS =     -2579.61327325
  atomic energy  EATOM  =     14538.30290828
  Solvation  Ediel_sol  =         0.00000000
  ---------------------------------------------------
  free energy    TOTEN  =      -188.02028156 eV

  energy without entropy =     -188.02028156  energy(sigma->0) =     -188.02028156


--------------------------------------------------------------------------------------------------------




--------------------------------------- Iteration      1(   5)  ---------------------------------------


     EDDAV:  cpu time   66.8054: real time   67.7847
       DOS:  cpu time    0.0018: real time    0.0018
    --------------------------------------------
      LOOP:  cpu time   66.8072: real time   67.7865

 eigenvalue-minimisations  : 44216
 total energy-change (2. order) :-0.5328364E+00  (-0.5325097E+00)
 number of electron     287.9999965 magnetization 
 augmentation part      287.9999965 magnetization 

 Free energy of the ion-electron system (eV)
  ---------------------------------------------------
  alpha Z        PSCENC =       517.20388186
  Ewald energy   TEWEN  =     44338.08918132
  -Hartree energ DENC   =    -57687.87592091
  -exchange      EXHF   =         0.00000000
  -V(xc)+E(xc)   XCENC  =        96.99956676
  PAW double counting   =      7735.85313748    -7146.97976309
  entropy T*S    EENTRO =        -0.00000000
  eigenvalues    EBANDS =     -2580.14610961
  atomic energy  EATOM  =     14538.30290828
  Solvation  Ediel_sol  =         0.00000000
  ---------------------------------------------------
  free energy    TOTEN  =      -188.55311792 eV

  energy without entropy =     -188.55311792  energy(sigma->0) =     -188.55311792


--------------------------------------------------------------------------------------------------------




--------------------------------------- Iteration      1(   6)  ---------------------------------------


     EDDAV:  cpu time   61.6787: real time   62.5760
       DOS:  cpu time    0.0019: real time    0.0019
    --------------------------------------------
      LOOP:  cpu time   61.6807: real time   62.5780

 eigenvalue-minimisations  : 39800
 total energy-change (2. order) :-0.1193002E-01  (-0.1192621E-01)
 number of electron     287.9999965 magnetization 
 augmentation part      287.9999965 magnetization 

 Free energy of the ion-electron system (eV)
  ---------------------------------------------------
  alpha Z        PSCENC =       517.20388186
  Ewald energy   TEWEN  =     44338.08918132
  -Hartree energ DENC   =    -57687.87592091
  -exchange      EXHF   =         0.00000000
  -V(xc)+E(xc)   XCENC  =        96.99956676
  PAW double counting   =      7735.85313748    -7146.97976309
  entropy T*S    EENTRO =        -0.00000000
  eigenvalues    EBANDS =     -2580.15803963
  atomic energy  EATOM  =     14538.30290828
  Solvation  Ediel_sol  =         0.00000000
  ---------------------------------------------------
  free energy    TOTEN  =      -188.56504794 eV

  energy without entropy =     -188.56504794  energy(sigma->0) =     -188.56504794


--------------------------------------------------------------------------------------------------------




--------------------------------------- Iteration      1(   7)  ---------------------------------------


     EDDAV:  cpu time   67.1127: real time   68.0892
       DOS:  cpu time    0.0019: real time    0.0019
    --------------------------------------------
      LOOP:  cpu time   67.1146: real time   68.0911

 eigenvalue-minimisations  : 44248
 total energy-change (2. order) :-0.5284612E-03  (-0.5283543E-03)
 number of electron     287.9999965 magnetization 
 augmentation part      287.9999965 magnetization 

 Free energy of the ion-electron system (eV)
  ---------------------------------------------------
  alpha Z        PSCENC =       517.20388186
  Ewald energy   TEWEN  =     44338.08918132
  -Hartree energ DENC   =    -57687.87592091
  -exchange      EXHF   =         0.00000000
  -V(xc)+E(xc)   XCENC  =        96.99956676
  PAW double counting   =      7735.85313748    -7146.97976309
  entropy T*S    EENTRO =        -0.00000000
  eigenvalues    EBANDS =     -2580.15856809
  atomic energy  EATOM  =     14538.30290828
  Solvation  Ediel_sol  =         0.00000000
  ---------------------------------------------------
  free energy    TOTEN  =      -188.56557640 eV

  energy without entropy =     -188.56557640  energy(sigma->0) =     -188.56557640


--------------------------------------------------------------------------------------------------------




--------------------------------------- Iteration      1(   8)  ---------------------------------------


     EDDAV:  cpu time   58.8207: real time   59.6799
       DOS:  cpu time    0.0026: real time    0.0026
    --------------------------------------------
      LOOP:  cpu time   58.8233: real time   59.6825

 eigenvalue-minimisations  : 37672
 total energy-change (2. order) :-0.2074787E-04  (-0.2074536E-04)
 number of electron     287.9999965 magnetization 
 augmentation part      287.9999965 magnetization 

 Free energy of the ion-electron system (eV)
  ---------------------------------------------------
  alpha Z        PSCENC =       517.20388186
  Ewald energy   TEWEN  =     44338.08918132
  -Hartree energ DENC   =    -57687.87592091
  -exchange      EXHF   =         0.00000000
  -V(xc)+E(xc)   XCENC  =        96.99956676
  PAW double counting   =      7735.85313748    -7146.97976309
  entropy T*S    EENTRO =        -0.00000000
  eigenvalues    EBANDS =     -2580.15858884
  atomic energy  EATOM  =     14538.30290828
  Solvation  Ediel_sol  =         0.00000000
  ---------------------------------------------------
  free energy    TOTEN  =      -188.56559715 eV

  energy without entropy =     -188.56559715  energy(sigma->0) =     -188.56559715


--------------------------------------------------------------------------------------------------------




--------------------------------------- Iteration      1(   9)  ---------------------------------------


     EDDAV:  cpu time   51.8455: real time   52.6010
       DOS:  cpu time    0.0020: real time    0.0020
    --------------------------------------------
      LOOP:  cpu time   51.8475: real time   52.6030

 eigenvalue-minimisations  : 31976
 total energy-change (2. order) :-0.1061911E-05  (-0.1061765E-05)
 number of electron     287.9999965 magnetization 
 augmentation part      287.9999965 magnetization 

 Free energy of the ion-electron system (eV)
  ---------------------------------------------------
  alpha Z        PSCENC =       517.20388186
  Ewald energy   TEWEN  =     44338.08918132
  -Hartree energ DENC   =    -57687.87592091
  -exchange      EXHF   =         0.00000000
  -V(xc)+E(xc)   XCENC  =        96.99956676
  PAW double counting   =      7735.85313748    -7146.97976309
  entropy T*S    EENTRO =        -0.00000000
  eigenvalues    EBANDS =     -2580.15858990
  atomic energy  EATOM  =     14538.30290828
  Solvation  Ediel_sol  =         0.00000000
  ---------------------------------------------------
  free energy    TOTEN  =      -188.56559821 eV

  energy without entropy =     -188.56559821  energy(sigma->0) =     -188.56559821


--------------------------------------------------------------------------------------------------------




--------------------------------------- Iteration      1(  10)  ---------------------------------------


     EDDAV:  cpu time   38.4983: real time   39.0562
       DOS:  cpu time    0.0023: real time    0.0023
    --------------------------------------------
      LOOP:  cpu time   38.5005: real time   39.0585

 eigenvalue-minimisations  : 21224
 total energy-change (2. order) :-0.5319453E-07  (-0.5321434E-07)
 number of electron     287.9999965 magnetization 
 augmentation part      287.9999965 magnetization 

 Free energy of the ion-electron system (eV)
  ---------------------------------------------------
  alpha Z        PSCENC =       517.20388186
  Ewald energy   TEWEN  =     44338.08918132
  -Hartree energ DENC   =    -57687.87592091
  -exchange      EXHF   =         0.00000000
  -V(xc)+E(xc)   XCENC  =        96.99956676
  PAW double counting   =      7735.85313748    -7146.97976309
  entropy T*S    EENTRO =        -0.00000000
  eigenvalues    EBANDS =     -2580.15858995
  atomic energy  EATOM  =     14538.30290828
  Solvation  Ediel_sol  =         0.00000000
  ---------------------------------------------------
  free energy    TOTEN  =      -188.56559826 eV

  energy without entropy =     -188.56559826  energy(sigma->0) =     -188.56559826


--------------------------------------------------------------------------------------------------------




 average (electrostatic) potential at core
  the test charge radii are     1.2192  0.9892
  (the norm of the test charge is              1.0000)
       1 -40.2917       2 -40.2914       3 -39.1261       4 -39.0494       5 -39.0927
       6 -39.0927       7 -39.0490       8 -39.1258       9 -39.2711      10 -39.2706
      11 -39.2435      12 -39.2776      13 -39.1767      14 -39.1768      15 -39.2776
      16 -39.2430      17 -87.9722      18 -87.9717      19 -88.2492      20 -88.3092
      21 -87.9717      22 -87.9722      23 -88.3092      24 -88.2492      25 -88.2557
      26 -88.2556      27 -88.3093      28 -88.2485      29 -88.2556      30 -88.2557
      31 -88.2485      32 -88.3093      33 -88.3453      34 -88.3449      35 -87.9419
      36 -88.3270      37 -88.4030      38 -88.4029      39 -88.3265      40 -87.9413
      41 -87.9558      42 -87.9554      43 -88.3354      44 -88.2536      45 -88.2480
      46 -88.2480      47 -88.2538      48 -88.3348
 
 
 
 E-fermi :   0.2922     XC(G=0):  -5.5698     alpha+bet : -5.8335


 k-point     1 :       0.0000    0.0000    0.0000
  band No.  band energies     occupation 
      1     -28.1485      2.00000
      2     -28.1483      2.00000
      3     -27.1667      2.00000
      4     -27.1663      2.00000
      5     -27.1606      2.00000
      6     -27.1601      2.00000
      7     -27.1320      2.00000
      8     -27.1316      2.00000
      9     -27.0687      2.00000
     10     -27.0631      2.00000
     11     -27.0193      2.00000
     12     -27.0190      2.00000
     13     -27.0058      2.00000
     14     -27.0056      2.00000
     15     -26.9611      2.00000
     16     -26.9607      2.00000
     17     -13.5250      2.00000
     18     -13.5247      2.00000
     19     -13.4515      2.00000
     20     -13.4512      2.00000
     21     -13.3614      2.00000
     22     -13.3611      2.00000
     23     -12.7787      2.00000
     24     -12.7745      2.00000
     25     -12.7046      2.00000
     26     -12.6636      2.00000
     27     -12.6521      2.00000
     28     -12.6398      2.00000
     29     -12.6157      2.00000
     30     -12.6052      2.00000
     31     -12.5755      2.00000
     32     -12.5684      2.00000
     33     -12.5543      2.00000
     34     -12.5462      2.00000
     35     -12.5444      2.00000
     36     -12.5249      2.00000
     37     -12.5221      2.00000
     38     -12.5189      2.00000
     39     -12.5067      2.00000
     40     -12.4939      2.00000
     41     -12.4900      2.00000
     42     -12.4865      2.00000
     43     -12.4859      2.00000
     44     -12.4793      2.00000
     45     -12.4748      2.00000
     46     -12.4312      2.00000
     47     -12.4263      2.00000
     48     -12.3977      2.00000
     49     -12.3413      2.00000
     50     -12.3357      2.00000
     51     -12.3140      2.00000
     52     -12.3130      2.00000
     53     -12.3121      2.00000
     54     -12.3019      2.00000
     55     -12.2964      2.00000
     56     -12.2795      2.00000
     57     -12.2748      2.00000
     58     -12.2730      2.00000
     59     -12.2605      2.00000
     60     -12.2585      2.00000
     61     -12.2563      2.00000
     62     -12.2552      2.00000
     63     -12.2437      2.00000
     64     -12.2414      2.00000
     65     -10.3657      2.00000
     66     -10.2180      2.00000
     67     -10.1281      2.00000
     68     -10.1057      2.00000
     69     -10.0918      2.00000
     70     -10.0912      2.00000
     71      -9.7199      2.00000
     72      -9.7194      2.00000
     73      -5.7781      2.00000
     74      -5.7077      2.00000
     75      -5.6101      2.00000
     76      -5.4811      2.00000
     77      -5.4749      2.00000
     78      -5.4226      2.00000
     79      -5.3904      2.00000
     80      -5.3750      2.00000
     81      -5.3176      2.00000
     82      -5.3169      2.00000
     83      -5.3106      2.00000
     84      -5.2619      2.00000
     85      -5.2600      2.00000
     86      -5.2451      2.00000
     87      -5.2032      2.00000
     88      -5.1931      2.00000
     89      -5.1875      2.00000
     90      -5.1467      2.00000
     91      -5.0242      2.00000
     92      -5.0056      2.00000
     93      -4.9521      2.00000
     94      -4.8947      2.00000
     95      -4.6785      2.00000
     96      -4.6781      2.00000
     97      -2.9956      2.00000
     98      -2.5798      2.00000
     99      -2.2633      2.00000
    100      -2.0822      2.00000
    101      -2.0427      2.00000
    102      -2.0259      2.00000
    103      -1.9005      2.00000
    104      -1.7168      2.00000
    105      -1.6704      2.00000
    106      -1.5414      2.00000
    107      -1.4580      2.00000
    108      -1.3810      2.00000
    109      -1.2876      2.00000
    110      -1.2672      2.00000
    111      -1.2454      2.00000
    112      -1.1395      2.00000
    113      -1.1077      2.00000
    114      -1.0981      2.00000
    115      -1.0733      2.00000
    116      -1.0636      2.00000
    117      -0.9934      2.00000
    118      -0.9740      2.00000
    119      -0.9482      2.00000
    120      -0.9298      2.00000
    121      -0.9046      2.00000
    122      -0.7547      2.00000
    123      -0.7446      2.00000
    124      -0.6929      2.00000
    125      -0.6546      2.00000
    126      -0.6516      2.00000
    127      -0.6359      2.00000
    128      -0.5763      2.00000
    129      -0.5761      2.00000
    130      -0.5698      2.00000
    131      -0.5020      2.00000
    132      -0.3356      2.00000
    133      -0.2959      2.00000
    134      -0.2554      2.00000
    135      -0.2386      2.00000
    136      -0.2016      2.00000
    137      -0.1837      2.00000
    138      -0.1130      2.00000
    139      -0.0724      2.00000
    140      -0.0063      2.00000
    141       0.0889      2.00000
    142       0.1108      2.00000
    143       0.1478      2.00000
    144       0.1984      2.00000
    145       1.4061      0.00000
    146       1.5111      0.00000
    147       1.5880      0.00000
    148       1.6025      0.00000
    149       1.6685      0.00000
    150       1.6729      0.00000
    151       1.6800      0.00000
    152       1.7128      0.00000
    153       1.8385      0.00000
    154       1.8636      0.00000
    155       1.9319      0.00000
    156       1.9360      0.00000
    157       2.0457      0.00000
    158       2.0816      0.00000
    159       2.1352      0.00000
    160       2.2658      0.00000
    161       2.2661      0.00000
    162       2.2910      0.00000
    163       2.2925      0.00000
    164       2.4038      0.00000
    165       2.5901      0.00000
    166       2.6397      0.00000
    167       2.6415      0.00000
    168       2.7084      0.00000
    169       2.7911      0.00000
    170       2.8394      0.00000
    171       2.8639      0.00000
    172       2.9987      0.00000
    173       3.0521      0.00000
    174       3.0814      0.00000
    175       3.1186      0.00000
    176       3.1365      0.00000

 k-point     2 :       0.0000    0.0263    0.0000
  band No.  band energies     occupation 
      1     -28.1485      2.00000
      2     -28.1483      2.00000
      3     -27.1667      2.00000
      4     -27.1662      2.00000
      5     -27.1606      2.00000
      6     -27.1601      2.00000
      7     -27.1320      2.00000
      8     -27.1316      2.00000
      9     -27.0686      2.00000
     10     -27.0630      2.00000
     11     -27.0193      2.00000
     12     -27.0190      2.00000
     13     -27.0058      2.00000
     14     -27.0056      2.00000
     15     -26.9611      2.00000
     16     -26.9607      2.00000
     17     -13.5249      2.00000
     18     -13.5247      2.00000
     19     -13.4515      2.00000
     20     -13.4512      2.00000
     21     -13.3616      2.00000
     22     -13.3613      2.00000
     23     -12.7786      2.00000
     24     -12.7746      2.00000
     25     -12.7049      2.00000
     26     -12.6658      2.00000
     27     -12.6534      2.00000
     28     -12.6364      2.00000
     29     -12.6167      2.00000
     30     -12.6040      2.00000
     31     -12.5757      2.00000
     32     -12.5697      2.00000
     33     -12.5549      2.00000
     34     -12.5473      2.00000
     35     -12.5443      2.00000
     36     -12.5273      2.00000
     37     -12.5226      2.00000
     38     -12.5178      2.00000
     39     -12.5073      2.00000
     40     -12.4951      2.00000
     41     -12.4932      2.00000
     42     -12.4857      2.00000
     43     -12.4833      2.00000
     44     -12.4801      2.00000
     45     -12.4718      2.00000
     46     -12.4292      2.00000
     47     -12.4267      2.00000
     48     -12.3975      2.00000
     49     -12.3413      2.00000
     50     -12.3358      2.00000
     51     -12.3140      2.00000
     52     -12.3138      2.00000
     53     -12.3110      2.00000
     54     -12.3030      2.00000
     55     -12.2952      2.00000
     56     -12.2794      2.00000
     57     -12.2746      2.00000
     58     -12.2731      2.00000
     59     -12.2606      2.00000
     60     -12.2584      2.00000
     61     -12.2570      2.00000
     62     -12.2543      2.00000
     63     -12.2435      2.00000
     64     -12.2415      2.00000
     65     -10.3643      2.00000
     66     -10.2172      2.00000
     67     -10.1278      2.00000
     68     -10.1053      2.00000
     69     -10.0915      2.00000
     70     -10.0911      2.00000
     71      -9.7195      2.00000
     72      -9.7190      2.00000
     73      -5.7761      2.00000
     74      -5.7066      2.00000
     75      -5.6090      2.00000
     76      -5.4802      2.00000
     77      -5.4784      2.00000
     78      -5.4185      2.00000
     79      -5.3905      2.00000
     80      -5.3741      2.00000
     81      -5.3179      2.00000
     82      -5.3169      2.00000
     83      -5.3129      2.00000
     84      -5.2656      2.00000
     85      -5.2601      2.00000
     86      -5.2402      2.00000
     87      -5.2085      2.00000
     88      -5.1897      2.00000
     89      -5.1871      2.00000
     90      -5.1497      2.00000
     91      -5.0231      2.00000
     92      -5.0049      2.00000
     93      -4.9514      2.00000
     94      -4.8948      2.00000
     95      -4.6805      2.00000
     96      -4.6799      2.00000
     97      -2.9889      2.00000
     98      -2.5747      2.00000
     99      -2.2594      2.00000
    100      -2.0783      2.00000
    101      -2.0402      2.00000
    102      -2.0235      2.00000
    103      -1.9004      2.00000
    104      -1.7148      2.00000
    105      -1.6699      2.00000
    106      -1.5408      2.00000
    107      -1.4587      2.00000
    108      -1.3852      2.00000
    109      -1.2955      2.00000
    110      -1.2669      2.00000
    111      -1.2371      2.00000
    112      -1.1362      2.00000
    113      -1.1141      2.00000
    114      -1.0950      2.00000
    115      -1.0739      2.00000
    116      -1.0679      2.00000
    117      -0.9945      2.00000
    118      -0.9724      2.00000
    119      -0.9485      2.00000
    120      -0.9285      2.00000
    121      -0.9067      2.00000
    122      -0.7610      2.00000
    123      -0.7459      2.00000
    124      -0.6934      2.00000
    125      -0.6638      2.00000
    126      -0.6440      2.00000
    127      -0.6338      2.00000
    128      -0.5795      2.00000
    129      -0.5695      2.00000
    130      -0.5676      2.00000
    131      -0.5003      2.00000
    132      -0.3353      2.00000
    133      -0.3002      2.00000
    134      -0.2516      2.00000
    135      -0.2410      2.00000
    136      -0.2035      2.00000
    137      -0.1858      2.00000
    138      -0.1118      2.00000
    139      -0.0809      2.00000
    140      -0.0093      2.00000
    141       0.0893      2.00000
    142       0.1101      2.00000
    143       0.1538      2.00000
    144       0.1996      2.00000
    145       1.4062      0.00000
    146       1.5017      0.00000
    147       1.5808      0.00000
    148       1.6056      0.00000
    149       1.6590      0.00000
    150       1.6700      0.00000
    151       1.6859      0.00000
    152       1.7181      0.00000
    153       1.8402      0.00000
    154       1.8595      0.00000
    155       1.9361      0.00000
    156       1.9381      0.00000
    157       2.0496      0.00000
    158       2.0759      0.00000
    159       2.1401      0.00000
    160       2.2493      0.00000
    161       2.2660      0.00000
    162       2.2816      0.00000
    163       2.2987      0.00000
    164       2.4146      0.00000
    165       2.5804      0.00000
    166       2.6417      0.00000
    167       2.6525      0.00000
    168       2.6988      0.00000
    169       2.7961      0.00000
    170       2.8453      0.00000
    171       2.8658      0.00000
    172       2.9851      0.00000
    173       3.0542      0.00000
    174       3.0965      0.00000
    175       3.1165      0.00000
    176       3.1355      0.00000

 k-point     3 :       0.0000    0.0526    0.0000
  band No.  band energies     occupation 
      1     -28.1485      2.00000
      2     -28.1482      2.00000
      3     -27.1667      2.00000
      4     -27.1662      2.00000
      5     -27.1606      2.00000
      6     -27.1601      2.00000
      7     -27.1320      2.00000
      8     -27.1316      2.00000
      9     -27.0686      2.00000
     10     -27.0630      2.00000
     11     -27.0194      2.00000
     12     -27.0190      2.00000
     13     -27.0059      2.00000
     14     -27.0056      2.00000
     15     -26.9611      2.00000
     16     -26.9607      2.00000
     17     -13.5248      2.00000
     18     -13.5245      2.00000
     19     -13.4516      2.00000
     20     -13.4514      2.00000
     21     -13.3623      2.00000
     22     -13.3620      2.00000
     23     -12.7782      2.00000
     24     -12.7747      2.00000
     25     -12.7059      2.00000
     26     -12.6712      2.00000
     27     -12.6550      2.00000
     28     -12.6295      2.00000
     29     -12.6188      2.00000
     30     -12.6017      2.00000
     31     -12.5762      2.00000
     32     -12.5734      2.00000
     33     -12.5569      2.00000
     34     -12.5504      2.00000
     35     -12.5445      2.00000
     36     -12.5316      2.00000
     37     -12.5240      2.00000
     38     -12.5166      2.00000
     39     -12.5104      2.00000
     40     -12.4973      2.00000
     41     -12.4957      2.00000
     42     -12.4899      2.00000
     43     -12.4772      2.00000
     44     -12.4765      2.00000
     45     -12.4678      2.00000
     46     -12.4280      2.00000
     47     -12.4239      2.00000
     48     -12.3967      2.00000
     49     -12.3413      2.00000
     50     -12.3362      2.00000
     51     -12.3149      2.00000
     52     -12.3137      2.00000
     53     -12.3095      2.00000
     54     -12.3050      2.00000
     55     -12.2928      2.00000
     56     -12.2791      2.00000
     57     -12.2738      2.00000
     58     -12.2732      2.00000
     59     -12.2607      2.00000
     60     -12.2584      2.00000
     61     -12.2577      2.00000
     62     -12.2529      2.00000
     63     -12.2431      2.00000
     64     -12.2419      2.00000
     65     -10.3600      2.00000
     66     -10.2149      2.00000
     67     -10.1270      2.00000
     68     -10.1041      2.00000
     69     -10.0909      2.00000
     70     -10.0908      2.00000
     71      -9.7182      2.00000
     72      -9.7177      2.00000
     73      -5.7704      2.00000
     74      -5.7034      2.00000
     75      -5.6057      2.00000
     76      -5.4885      2.00000
     77      -5.4758      2.00000
     78      -5.4086      2.00000
     79      -5.3912      2.00000
     80      -5.3712      2.00000
     81      -5.3205      2.00000
     82      -5.3185      2.00000
     83      -5.3151      2.00000
     84      -5.2754      2.00000
     85      -5.2561      2.00000
     86      -5.2324      2.00000
     87      -5.2185      2.00000
     88      -5.1860      2.00000
     89      -5.1849      2.00000
     90      -5.1587      2.00000
     91      -5.0199      2.00000
     92      -5.0029      2.00000
     93      -4.9494      2.00000
     94      -4.8951      2.00000
     95      -4.6868      2.00000
     96      -4.6850      2.00000
     97      -2.9691      2.00000
     98      -2.5598      2.00000
     99      -2.2479      2.00000
    100      -2.0669      2.00000
    101      -2.0326      2.00000
    102      -2.0164      2.00000
    103      -1.9000      2.00000
    104      -1.7087      2.00000
    105      -1.6686      2.00000
    106      -1.5389      2.00000
    107      -1.4606      2.00000
    108      -1.3977      2.00000
    109      -1.3077      2.00000
    110      -1.2661      2.00000
    111      -1.2228      2.00000
    112      -1.1282      2.00000
    113      -1.1271      2.00000
    114      -1.0919      2.00000
    115      -1.0809      2.00000
    116      -1.0729      2.00000
    117      -0.9979      2.00000
    118      -0.9685      2.00000
    119      -0.9497      2.00000
    120      -0.9252      2.00000
    121      -0.9124      2.00000
    122      -0.7772      2.00000
    123      -0.7501      2.00000
    124      -0.6954      2.00000
    125      -0.6754      2.00000
    126      -0.6366      2.00000
    127      -0.6297      2.00000
    128      -0.5757      2.00000
    129      -0.5680      2.00000
    130      -0.5557      2.00000
    131      -0.4960      2.00000
    132      -0.3344      2.00000
    133      -0.3088      2.00000
    134      -0.2498      2.00000
    135      -0.2483      2.00000
    136      -0.2043      2.00000
    137      -0.1910      2.00000
    138      -0.1090      2.00000
    139      -0.1036      2.00000
    140      -0.0175      2.00000
    141       0.0909      2.00000
    142       0.1082      2.00000
    143       0.1686      2.00000
    144       0.2029      2.00000
    145       1.4062      0.00000
    146       1.4760      0.00000
    147       1.5620      0.00000
    148       1.6144      0.00000
    149       1.6456      0.00000
    150       1.6505      0.00000
[...]
    150       1.6729      0.00000
    151       1.6800      0.00000
    152       1.7128      0.00000
    153       1.8385      0.00000
    154       1.8636      0.00000
    155       1.9319      0.00000
    156       1.9360      0.00000
    157       2.0457      0.00000
    158       2.0816      0.00000
    159       2.1352      0.00000
    160       2.2658      0.00000
    161       2.2661      0.00000
    162       2.2910      0.00000
    163       2.2925      0.00000
    164       2.4038      0.00000
    165       2.5902      0.00000
    166       2.6397      0.00000
    167       2.6415      0.00000
    168       2.7083      0.00000
    169       2.7915      0.00000
    170       2.8407      0.00000
    171       2.8643      0.00000
    172       3.0011      0.00000
    173       3.0525      0.00000
    174       3.0805      0.00000
    175       3.1194      0.00000
    176       3.1590      0.00000


--------------------------------------------------------------------------------------------------------


 soft charge-density along one line, spin component           1
         0         1         2         3         4         5         6         7         8         9
 total charge-density along one line
 
 pseudopotential strength for first ion, spin component:           1
  4.174  -5.277  -0.000  -0.008  -0.019  -0.000  -0.005  -0.016
 -5.277  -2.773   0.000   0.001   0.002  -0.000  -0.001  -0.003
 -0.000   0.000  -6.984  -0.000  -0.000   1.681  -0.000  -0.000
 -0.008   0.001  -0.000  -6.978  -0.001  -0.000   1.693  -0.003
 -0.019   0.002  -0.000  -0.001  -6.978  -0.000  -0.003   1.695
 -0.000  -0.000   1.681  -0.000  -0.000   7.300  -0.000  -0.000
 -0.005  -0.001  -0.000   1.693  -0.003  -0.000   7.301  -0.000
 -0.016  -0.003  -0.000  -0.003   1.695  -0.000  -0.000   7.301
 -0.000   0.000  -0.010  -0.000  -0.000  -0.007  -0.000  -0.000
 -0.000   0.000  -0.003  -0.000  -0.000  -0.001  -0.000  -0.000
  0.002  -0.001   0.000  -0.004   0.006   0.000  -0.004   0.004
 -0.002   0.001  -0.000  -0.010  -0.003  -0.000  -0.007  -0.002
  0.004  -0.002   0.000  -0.000  -0.009   0.000  -0.000  -0.006
  0.000   0.000   0.000   0.000   0.000   0.000   0.000   0.000
  0.000   0.000   0.000   0.000   0.000   0.000   0.000   0.000
 -0.000  -0.000  -0.000   0.000  -0.000  -0.000   0.000  -0.000
  0.000   0.000   0.000   0.000   0.000   0.000   0.000   0.000
 -0.000  -0.000  -0.000   0.000   0.000  -0.000   0.000   0.000
 total augmentation occupancy for first ion, spin component:           1
  2.355  -0.912   0.000   0.000   0.000   0.000   0.000   0.000   0.000   0.000   0.000   0.000   0.000   0.000   0.000   0.000
 -0.912   2.345   0.000   0.000   0.000   0.000   0.000   0.000   0.000   0.000   0.000   0.000   0.000   0.000   0.000   0.000
  0.000   0.000   2.000   0.000   0.000   0.000   0.000   0.000   0.000   0.000   0.000   0.000   0.000   0.000   0.000   0.000
  0.000   0.000   0.000   2.000   0.000   0.000   0.000   0.000   0.000   0.000   0.000   0.000   0.000   0.000   0.000   0.000
  0.000   0.000   0.000   0.000   2.000   0.000   0.000   0.000   0.000   0.000   0.000   0.000   0.000   0.000   0.000   0.000
  0.000   0.000   0.000   0.000   0.000   0.000   0.000   0.000   0.000   0.000   0.000   0.000   0.000   0.000   0.000   0.000
  0.000   0.000   0.000   0.000   0.000   0.000   0.000   0.000   0.000   0.000   0.000   0.000   0.000   0.000   0.000   0.000
  0.000   0.000   0.000   0.000   0.000   0.000   0.000   0.000   0.000   0.000   0.000   0.000   0.000   0.000   0.000   0.000
  0.000   0.000   0.000   0.000   0.000   0.000   0.000   0.000   0.002   0.000   0.000   0.000   0.000   0.000   0.000   0.000
  0.000   0.000   0.000   0.000   0.000   0.000   0.000   0.000   0.000   0.002   0.000   0.000   0.000   0.000   0.000   0.000
  0.000   0.000   0.000   0.000   0.000   0.000   0.000   0.000   0.000   0.000   0.002   0.000   0.000   0.000   0.000   0.000
  0.000   0.000   0.000   0.000   0.000   0.000   0.000   0.000   0.000   0.000   0.000   0.002   0.000   0.000   0.000   0.000
  0.000   0.000   0.000   0.000   0.000   0.000   0.000   0.000   0.000   0.000   0.000   0.000   0.002   0.000   0.000   0.000
  0.000   0.000   0.000   0.000   0.000   0.000   0.000   0.000   0.000   0.000   0.000   0.000   0.000   0.000   0.000   0.000
  0.000   0.000   0.000   0.000   0.000   0.000   0.000   0.000   0.000   0.000   0.000   0.000   0.000   0.000   0.000   0.000
  0.000   0.000   0.000   0.000   0.000   0.000   0.000   0.000   0.000   0.000   0.000   0.000   0.000   0.000   0.000   0.000
  0.000   0.000   0.000   0.000   0.000   0.000   0.000   0.000   0.000   0.000   0.000   0.000   0.000   0.000   0.000   0.000
  0.000   0.000   0.000   0.000   0.000   0.000   0.000   0.000   0.000   0.000   0.000   0.000   0.000   0.000   0.000   0.000


------------------------ aborting loop because EDIFF is reached ----------------------------------------


    CHARGE:  cpu time    2.2357: real time    2.2949
    FORLOC:  cpu time    0.0230: real time    0.0231
    FORNL :  cpu time    9.6172: real time    9.8652
    STRESS:  cpu time   28.6824: real time   29.3952
    FORCOR:  cpu time    3.2768: real time    3.2846
    FORHAR:  cpu time    0.0353: real time    0.0354
    OFIELD:  cpu time    0.0002: real time    0.0002

  FORCE on cell =-STRESS in cart. coord.  units (eV):
  Direction    XX          YY          ZZ          XY          YZ          ZX
  --------------------------------------------------------------------------------------
  Alpha Z   517.20388   517.20388   517.20388
  Ewald  -61088.69145 52947.51065 52479.22697    -0.00003     0.00001   -10.06670
  Hartree-54949.76131 56510.04282 56136.97708     0.00000    -0.00000   -40.03167
  E(xc)    -930.96536  -932.52747  -932.55068    -0.00000     0.00000     0.02277
  Local  113010.06090************************     0.00002    -0.00001    53.65370
  n-local   676.87174   678.49165   680.71328    -0.00000    -0.00001    -1.32958
  augment  -335.29598  -335.47826  -335.53291    -0.00000    -0.00000     0.32191
  Kinetic  3100.31475  3116.02938  3102.87446    -0.00001     0.00000    -2.48793
  Fock        0.00000     0.00000     0.00000     0.00000     0.00000     0.00000
  -------------------------------------------------------------------------------------
  Total      -0.26282    -1.02152    -0.70055     0.00000     0.00000     0.08251
  in kB      -0.16918    -0.65755    -0.45094     0.00000     0.00000     0.05311
  external pressure =       -0.43 kB  Pullay stress =        0.00 kB


 VOLUME and BASIS-vectors are now :
 -----------------------------------------------------------------------------
  energy-cutoff  :      500.00
  volume of cell :     2489.01
      direct lattice vectors                 reciprocal lattice vectors
    32.904844216  0.000000000 -0.031118093     0.030390693  0.000000000  0.000032364
     0.000000000  6.643125221  0.000000000     0.000000000  0.150531560  0.000000000
    -0.012125955  0.000000000 11.386629787     0.000083054  0.000000000  0.087822387

  length of vectors
    32.904858931  6.643125221 11.386636243     0.030390710  0.150531560  0.087822426


 FORCES acting on ions
    electron-ion (+dipol)            ewald-force                    non-local-force                 convergence-correction
 -----------------------------------------------------------------------------------------------
   0.135E+04 0.568E-05 0.362E+02   -.135E+04 0.108E-04 -.351E+02   -.383E+01 0.750E-22 -.118E+01   -.995E-01 -.872E-05 0.333E-01
   -.135E+04 -.652E-04 -.362E+02   0.135E+04 -.140E-04 0.351E+02   0.383E+01 0.743E-22 0.118E+01   0.100E+00 0.380E-04 -.324E-01
   0.836E+03 -.633E-04 -.285E+02   -.835E+03 -.196E-04 0.280E+02   -.295E-01 0.196E-22 0.443E+00   -.942E-01 0.409E-04 -.140E-01
   0.735E+03 0.702E-05 0.318E+01   -.735E+03 0.151E-04 -.262E+01   0.436E+00 -.887E-23 -.628E+00   -.121E+00 -.127E-04 0.808E-01
   -.301E+02 0.662E-05 0.771E+01   0.298E+02 0.141E-04 -.788E+01   0.378E+00 0.109E-21 0.978E-01   0.120E-01 -.119E-04 0.386E-01
   0.301E+02 -.639E-04 -.771E+01   -.298E+02 -.199E-04 0.788E+01   -.378E+00 0.132E-21 -.978E-01   -.204E-01 0.414E-04 -.385E-01
   -.735E+03 -.631E-04 -.318E+01   0.735E+03 -.205E-04 0.262E+01   -.436E+00 0.840E-23 0.628E+00   0.125E+00 0.414E-04 -.822E-01
   -.836E+03 0.663E-05 0.285E+02   0.835E+03 0.141E-04 -.280E+02   0.295E-01 0.336E-22 -.443E+00   0.975E-01 -.119E-04 0.152E-01
   0.121E+04 -.631E-04 -.467E+02   -.121E+04 -.184E-04 0.464E+02   -.951E+00 0.660E-23 0.994E-01   -.178E+00 0.390E-04 0.204E+00
   -.121E+04 0.554E-05 0.467E+02   0.121E+04 0.165E-04 -.464E+02   0.951E+00 0.169E-22 -.994E-01   0.170E+00 -.135E-04 -.204E+00
   0.107E+04 0.670E-05 0.139E+02   -.107E+04 0.143E-04 -.141E+02   -.116E+01 -.484E-22 0.365E+00   -.127E+00 -.118E-04 -.837E-01
   0.509E+03 -.630E-04 0.254E+02   -.510E+03 -.179E-04 -.252E+02   0.748E+00 -.489E-22 -.212E+00   -.407E-01 0.394E-04 -.537E-01
   -.283E+03 -.632E-04 0.189E+01   0.283E+03 -.180E-04 -.185E+01   0.725E+00 0.311E-22 -.375E-01   0.789E-01 0.398E-04 0.216E-01
   0.283E+03 0.693E-05 -.189E+01   -.283E+03 0.171E-04 0.185E+01   -.725E+00 -.316E-22 0.375E-01   -.769E-01 -.142E-04 -.215E-01
   -.509E+03 0.681E-05 -.254E+02   0.510E+03 0.172E-04 0.252E+02   -.748E+00 0.221E-22 0.212E+00   0.443E-01 -.143E-04 0.532E-01
   -.107E+04 -.651E-04 -.139E+02   0.107E+04 -.148E-04 0.141E+02   0.116E+01 0.593E-22 -.365E+00   0.130E+00 0.388E-04 0.839E-01
   0.542E+03 0.358E+02 -.435E+02   -.541E+03 -.374E+02 0.444E+02   -.494E+00 0.155E+01 -.826E+00   -.758E-01 0.301E-01 -.270E-01
   -.542E+03 -.358E+02 0.435E+02   0.541E+03 0.374E+02 -.444E+02   0.494E+00 -.155E+01 0.826E+00   0.753E-01 -.301E-01 0.268E-01
   0.405E+03 -.288E+02 0.846E+01   -.404E+03 0.301E+02 -.777E+01   -.490E+00 -.133E+01 -.670E+00   -.421E-01 0.200E-01 -.167E-01
   0.207E+03 0.326E+02 0.175E+02   -.208E+03 -.340E+02 -.181E+02   0.509E+00 0.142E+01 0.639E+00   -.694E-01 0.216E-02 -.352E-01
   -.542E+03 0.358E+02 0.435E+02   0.541E+03 -.374E+02 -.444E+02   0.494E+00 0.155E+01 0.826E+00   0.753E-01 0.301E-01 0.268E-01
   0.542E+03 -.358E+02 -.435E+02   -.541E+03 0.374E+02 0.444E+02   -.494E+00 -.155E+01 -.826E+00   -.758E-01 -.301E-01 -.270E-01
   0.207E+03 -.326E+02 0.175E+02   -.208E+03 0.340E+02 -.181E+02   0.509E+00 -.142E+01 0.639E+00   -.694E-01 -.217E-02 -.352E-01
   0.405E+03 0.288E+02 0.846E+01   -.404E+03 -.301E+02 -.777E+01   -.490E+00 0.133E+01 -.670E+00   -.421E-01 -.200E-01 -.167E-01
   -.101E+03 0.297E+02 -.176E+02   0.101E+03 -.312E+02 0.183E+02   0.430E+00 0.149E+01 -.693E+00   -.137E-01 -.430E-02 -.159E-01
   0.101E+03 -.297E+02 0.176E+02   -.101E+03 0.312E+02 -.183E+02   -.430E+00 -.149E+01 0.693E+00   0.141E-01 0.461E-02 0.154E-01
   -.207E+03 -.326E+02 -.175E+02   0.208E+03 0.340E+02 0.181E+02   -.509E+00 -.142E+01 -.639E+00   0.701E-01 -.260E-02 0.352E-01
   -.405E+03 0.288E+02 -.846E+01   0.404E+03 -.301E+02 0.777E+01   0.490E+00 0.133E+01 0.670E+00   0.424E-01 -.196E-01 0.165E-01
   0.101E+03 0.297E+02 0.176E+02   -.101E+03 -.312E+02 -.183E+02   -.430E+00 0.149E+01 0.693E+00   0.141E-01 -.460E-02 0.154E-01
   -.101E+03 -.297E+02 -.176E+02   0.101E+03 0.312E+02 0.183E+02   0.430E+00 -.149E+01 -.693E+00   -.137E-01 0.430E-02 -.159E-01
   -.405E+03 -.288E+02 -.846E+01   0.404E+03 0.301E+02 0.777E+01   0.490E+00 -.133E+01 0.670E+00   0.424E-01 0.196E-01 0.165E-01
   -.207E+03 0.326E+02 -.175E+02   0.208E+03 -.340E+02 0.181E+02   -.509E+00 0.142E+01 -.639E+00   0.701E-01 0.261E-02 0.352E-01
   0.575E+03 -.708E-05 0.331E+02   -.576E+03 -.714E-05 -.325E+02   0.162E+01 -.267E-22 -.524E+00   -.967E-01 0.539E-05 -.574E-01
   -.575E+03 0.233E-05 -.331E+02   0.576E+03 0.740E-05 0.325E+02   -.162E+01 0.283E-22 0.524E+00   0.955E-01 -.601E-05 0.578E-01
   0.333E+03 0.571E-05 -.135E+02   -.331E+03 0.829E-05 0.129E+02   -.211E+01 0.984E-22 0.580E+00   -.822E-01 -.700E-05 0.858E-02
   0.285E+03 -.627E-05 -.491E+01   -.287E+03 -.792E-05 0.536E+01   0.197E+01 -.206E-21 -.519E+00   -.308E-01 0.748E-05 0.605E-01
   -.121E+02 -.558E-05 0.133E+01   0.102E+02 -.792E-05 -.205E+01   0.184E+01 0.246E-22 0.750E+00   0.669E-02 0.714E-05 -.131E-01
   0.121E+02 0.554E-05 -.133E+01   -.102E+02 0.816E-05 0.205E+01   -.184E+01 -.294E-22 -.750E+00   -.718E-02 -.693E-05 0.133E-01
   -.285E+03 0.539E-05 0.491E+01   0.287E+03 0.816E-05 -.536E+01   -.197E+01 0.209E-21 0.519E+00   0.321E-01 -.695E-05 -.606E-01
   -.333E+03 -.505E-05 0.135E+02   0.331E+03 -.791E-05 -.129E+02   0.211E+01 -.110E-21 -.580E+00   0.826E-01 0.708E-05 -.800E-02
   0.518E+03 0.318E-05 0.277E+01   -.518E+03 0.822E-05 -.434E+01   0.199E+00 -.116E-21 0.152E+01   -.561E-01 -.655E-05 0.594E-01
   -.518E+03 -.651E-05 -.277E+01   0.518E+03 -.822E-05 0.434E+01   -.199E+00 0.878E-22 -.152E+01   0.547E-01 0.667E-05 -.596E-01
   0.473E+03 -.545E-05 0.663E+02   -.472E+03 -.775E-05 -.683E+02   -.643E+00 0.117E-21 0.210E+01   -.838E-01 0.605E-05 -.539E-01
   0.199E+03 0.310E-05 -.299E+02   -.199E+03 0.869E-05 0.315E+02   0.109E+00 0.247E-21 -.168E+01   -.114E-01 -.707E-05 -.925E-02
   -.114E+03 0.298E-05 0.386E+02   0.114E+03 0.895E-05 -.401E+02   0.979E-01 -.495E-23 0.153E+01   0.387E-01 -.727E-05 -.287E-01
   0.114E+03 -.715E-05 -.386E+02   -.114E+03 -.938E-05 0.401E+02   -.979E-01 -.396E-22 -.153E+01   -.383E-01 0.753E-05 0.291E-01
   -.199E+03 -.734E-05 0.299E+02   0.199E+03 -.913E-05 -.315E+02   -.109E+00 0.231E-21 0.168E+01   0.123E-01 0.758E-05 0.983E-02
   -.473E+03 0.430E-05 -.663E+02   0.472E+03 0.750E-05 0.683E+02   0.643E+00 -.690E-22 -.210E+01   0.842E-01 -.616E-05 0.536E-01
 -----------------------------------------------------------------------------------------------
   -.104E-02 -.485E-03 -.141E-02   -.153E-11 -.476E-13 0.284E-13   0.000E+00 -.222E-15 -.888E-15   0.195E-02 0.209E-03 0.787E-03
 
 
 POSITION                                       TOTAL-FORCE (eV/Angst)
 -----------------------------------------------------------------------------------
      0.30033      1.66078      7.94842         0.021019      0.000000     -0.032420
     17.64422      4.98234      3.42123        -0.021019      0.000000      0.032420
      4.23571      4.98234      2.17297        -0.055637      0.000000     -0.025192
      4.64183      1.66078      9.20102         0.035073     -0.000000      0.016175
      9.12801      1.66078      7.84513         0.032389     -0.000000     -0.025816
      8.81654      4.98234      3.52452        -0.032389     -0.000000      0.025816
     13.30272      4.98234      2.16863        -0.035073     -0.000000     -0.016175
     13.70884      1.66078      9.19668         0.055637      0.000000      0.025192
      1.93224      4.98234     10.36781        -0.000584      0.000000     -0.003872
     16.01231      1.66078      1.00184         0.000584     -0.000000      0.003872
      3.09913      1.66078      4.48877        -0.027690     -0.000000      0.035697
      5.92697      4.98234      6.77806         0.012988      0.000000     -0.035209
     10.45907      4.98234     10.31738         0.014204     -0.000000      0.023893
      7.48548      1.66078      1.05226        -0.014204     -0.000000     -0.023893
     12.01758      1.66078      4.59159        -0.012988     -0.000000      0.035209
     14.84541      4.98234      6.88088         0.027690     -0.000000     -0.035697
      1.60155      0.46493      1.65088         0.018184      0.008259      0.012534
     16.34299      6.17820      9.71877        -0.018184     -0.008259     -0.012534
      2.77709      6.17892      7.28894        -0.018160     -0.041253     -0.003019
      6.18612      0.45339      4.01226         0.032109      0.026823      0.010195
     16.34299      3.78649      9.71877        -0.018184      0.008259     -0.012534
      1.60155      2.85664      1.65088         0.018184     -0.008259      0.012534
      6.18612      2.86817      4.01226         0.032109     -0.026823      0.010195
      2.77709      3.78577      7.28894        -0.018160      0.041253     -0.003019
     10.63888      0.45640      1.65495         0.033998      0.021988     -0.008711
      7.30567      6.18673      9.71469        -0.033998     -0.021988      0.008711
     11.75843      6.18973      7.35738        -0.032109     -0.026823     -0.010195
     15.16746      0.46420      4.08071         0.018160      0.041253      0.003019
      7.30567      3.77796      9.71469        -0.033998      0.021988      0.008711
     10.63888      2.86517      1.65495         0.033998     -0.021988     -0.008711
     15.16746      2.85736      4.08071         0.018160     -0.041253      0.003019
     11.75843      3.77495      7.35738        -0.032109      0.026823     -0.010195
      0.66572      4.98234      7.00875         0.027262      0.000000      0.022400
     17.27882      1.66078      4.36090        -0.027262      0.000000     -0.022400
      3.64506      1.66078      0.92672         0.034077     -0.000000     -0.006223
      5.30615      4.98234     10.33083        -0.003246     -0.000000     -0.005735
      9.75572      4.98234      6.73736        -0.001375     -0.000000      0.011480
      8.18883      1.66078      4.63228         0.001375     -0.000000     -0.011480
     12.63840      1.66078      1.03882         0.003246     -0.000000      0.005735
     14.29949      4.98234     10.44293        -0.034077     -0.000000      0.006223
      1.60212      1.66078     10.94381         0.012019     -0.000000      0.015229
     16.34243      4.98234      0.42584        -0.012019     -0.000000     -0.015229
      2.32542      4.98234      5.22460        -0.000474      0.000000     -0.006728
      6.22508      1.66078      6.09785        -0.009337     -0.000000     -0.004729
     10.70619      1.66078     10.95110        -0.016919     -0.000000     -0.000196
      7.23836      4.98234      0.41854         0.016919      0.000000      0.000196
     11.71947      4.98234      5.27180         0.009337      0.000000      0.004729
     15.61912      1.66078      6.14504         0.000474     -0.000000      0.006728
 -----------------------------------------------------------------------------------
    total drift:                                0.000914     -0.000277     -0.000621


--------------------------------------------------------------------------------------------------------



  FREE ENERGIE OF THE ION-ELECTRON SYSTEM (eV)
  ---------------------------------------------------
  free  energy   TOTEN  =      -188.56559826 eV

  energy  without entropy=     -188.56559826  energy(sigma->0) =     -188.56559826
 


--------------------------------------------------------------------------------------------------------


    POTLOK:  cpu time    3.6407: real time    3.6494


--------------------------------------------------------------------------------------------------------


 writing wavefunctions
     LOOP+:  cpu time  678.7031: real time  697.8671
    4ORBIT:  cpu time    0.0001: real time    0.0004

 total amount of memory used by VASP MPI-rank0   500732. kBytes
=======================================================================

   base      :      30000. kBytes
   nonlr-proj:       4645. kBytes
   fftplans  :       6934. kBytes
   grid      :      10435. kBytes
   one-center:        186. kBytes
   wavefun   :     448532. kBytes
 
  
  
 General timing and accounting informations for this job:
 ========================================================
  
                  Total CPU time used (sec):      748.797
                            User time (sec):      724.308
                          System time (sec):       24.490
                         Elapsed time (sec):      771.836
  
                   Maximum memory used (kb):      758976.
                   Average memory used (kb):           0.
  
                          Minor page faults:        34875
                          Major page faults:          282
                 Voluntary context switches:      1213352
