<?xml version="1.0" encoding="ISO-8859-1"?>
<modeling>
 <generator>
  <i name="program" type="string">vasp </i>
  <i name="version" type="string">5.4.4.18Apr17-6-g9f103f2a35  </i>
  <i name="subversion" type="string">(build Nov 21 2017 15:30:27) complex            parallel </i>
  <i name="platform" type="string">LinuxIFC </i>
  <i name="date" type="string">2020 11 09 </i>
  <i name="time" type="string">12:04:21 </i>
 </generator>
 <incar>
  <i type="string" name="PREC">normal</i>
  <i type="int" name="ICHARG">    11</i>
  <i type="int" name="NELM">   100</i>
  <i name="EDIFF">      0.00000100</i>
  <i name="EDIFFG">     -0.01000000</i>
  <i name="ENCUT">    500.00000000</i>
  <i name="POTIM">      0.30000000</i>
  <i type="string" name="LREAL"> Auto       ! Projection in reciprocal s</i>
  <i type="int" name="ISMEAR">     0</i>
  <i name="SIGMA">      0.01000000</i>
  <i type="logical" name="LWAVE"> T  </i>
  <i type="logical" name="LCHARG"> T  </i>
  <i type="logical" name="LASPH"> T  </i>
  <v type="int" name="KPOINT_BSE">    -1     0     0     0</v>
  <i type="int" name="NELM">   100</i>
  <i type="string" name="GGA"> MK</i>
  <i name="PARAM1">      0.12340000</i>
  <i name="PARAM2">      0.71135700</i>
  <i type="logical" name="LUSE_VDW"> T  </i>
  <i name="Zab_VDW">     -1.88670000</i>
  <i name="AGGAC">      0.00000000</i>
  <i type="logical" name="LASPH"> T  </i>
 </incar>
 <structure name="primitive_cell" >
  <crystal>
   <varray name="basis" >
    <v>      32.90484422       0.00000000      -0.03111809 </v>
    <v>       0.00000000       6.64312522       0.00000000 </v>
    <v>      -0.01212595       0.00000000      11.38662979 </v>
   </varray>
   <i name="volume">   2489.01229066 </i>
   <varray name="rec_basis" >
    <v>       0.03039069       0.00000000       0.00003236 </v>
    <v>       0.00000000       0.15053156       0.00000000 </v>
    <v>       0.00008305       0.00000000       0.08782239 </v>
   </varray>
  </crystal>
  <varray name="positions" >
   <v>       0.00938449       0.25000000      -0.30192577 </v>
   <v>       0.04904360       0.25000000      -0.03875524 </v>
   <v>       0.08463346      -0.43012269      -0.35963732 </v>
   <v>       0.08463346      -0.06987731      -0.35963732 </v>
   <v>       0.02045863      -0.24999998      -0.38441972 </v>
   <v>       0.05905771      -0.24999998      -0.08931399 </v>
   <v>       0.09433010       0.25000000       0.39447157 </v>
   <v>       0.14136631       0.25000000      -0.19155902 </v>
   <v>       0.07084034      -0.24999998       0.45903034 </v>
   <v>       0.04872576       0.43001395       0.14511706 </v>
   <v>       0.04872576       0.06998604       0.14511706 </v>
   <v>       0.11080589       0.25000000       0.08168962 </v>
   <v>       0.18938180       0.25000000      -0.46395550 </v>
   <v>       0.16159192      -0.24999998      -0.09228090 </v>
   <v>       0.18034407      -0.24999998      -0.40424265 </v>
   <v>       0.18813032       0.43175016       0.35288031 </v>
   <v>       0.18813032       0.06824984       0.35288031 </v>
   <v>       0.22233879      -0.43129814      -0.14622566 </v>
   <v>       0.22233879      -0.06870186      -0.14622566 </v>
   <v>       0.12879642      -0.24999998       0.19118719 </v>
   <v>       0.22752295       0.25000000       0.09303407 </v>
   <v>       0.24901413       0.25000000       0.40749835 </v>
   <v>       0.21999224      -0.24999998       0.03735877 </v>
   <v>       0.27766054       0.25000000      -0.31026384 </v>
   <v>       0.29670109      -0.24999998      -0.40749835 </v>
   <v>       0.26805468      -0.24999998       0.31026384 </v>
   <v>       0.32572300       0.25000000      -0.03735876 </v>
   <v>       0.31819228      -0.24999998      -0.09303410 </v>
   <v>       0.32337645       0.43129814       0.14622564 </v>
   <v>       0.32337645       0.06870185       0.14622564 </v>
   <v>       0.35758489      -0.43175016      -0.35288031 </v>
   <v>       0.35758489      -0.06824984      -0.35288031 </v>
   <v>       0.36537116       0.25000000       0.40424269 </v>
   <v>       0.35633341      -0.24999998       0.46395542 </v>
   <v>       0.38412331       0.25000000       0.09228088 </v>
   <v>       0.41691880       0.25000000      -0.19118721 </v>
   <v>       0.40434891      -0.24999998       0.19155900 </v>
   <v>       0.43490934      -0.24999998      -0.08168964 </v>
   <v>       0.45138512      -0.24999998      -0.39447153 </v>
   <v>       0.46108177       0.43012269       0.35963732 </v>
   <v>       0.46108177       0.06987730       0.35963732 </v>
   <v>       0.47487490       0.25000000      -0.45903042 </v>
   <v>       0.49698947      -0.43001395      -0.14511708 </v>
   <v>       0.49698947      -0.06998605      -0.14511708 </v>
   <v>       0.48665752       0.25000000       0.08931397 </v>
   <v>      -0.47474344       0.25000000       0.38441972 </v>
   <v>      -0.46366924      -0.24999998       0.30192577 </v>
   <v>       0.49667161      -0.24999998       0.03875526 </v>
  </varray>
 </structure>
 <varray name="primitive_index" >
  <v type="int" >        1 </v>
  <v type="int" >       41 </v>
  <v type="int" >       24 </v>
  <v type="int" >       19 </v>
  <v type="int" >       33 </v>
  <v type="int" >        9 </v>
  <v type="int" >       11 </v>
  <v type="int" >        4 </v>
  <v type="int" >       43 </v>
  <v type="int" >       22 </v>
  <v type="int" >       17 </v>
  <v type="int" >       35 </v>
  <v type="int" >       44 </v>
  <v type="int" >       36 </v>
  <v type="int" >       12 </v>
  <v type="int" >       23 </v>
  <v type="int" >       20 </v>
  <v type="int" >       29 </v>
  <v type="int" >       26 </v>
  <v type="int" >        3 </v>
  <v type="int" >       14 </v>
  <v type="int" >       38 </v>
  <v type="int" >       46 </v>
  <v type="int" >        5 </v>
  <v type="int" >       37 </v>
  <v type="int" >        6 </v>
  <v type="int" >       45 </v>
  <v type="int" >       13 </v>
  <v type="int" >       30 </v>
  <v type="int" >       25 </v>
  <v type="int" >       32 </v>
  <v type="int" >       27 </v>
  <v type="int" >       15 </v>
  <v type="int" >       47 </v>
  <v type="int" >       39 </v>
  <v type="int" >        8 </v>
  <v type="int" >        7 </v>
  <v type="int" >       40 </v>
  <v type="int" >       16 </v>
  <v type="int" >       31 </v>
  <v type="int" >       28 </v>
  <v type="int" >       48 </v>
  <v type="int" >       21 </v>
  <v type="int" >       18 </v>
  <v type="int" >       10 </v>
  <v type="int" >       34 </v>
  <v type="int" >        2 </v>
  <v type="int" >       42 </v>
 </varray>
 <kpoints>
  <generation param="listgenerated">
   <i name="divisions" type="int">      20 </i>
   <v>       0.00000000       0.00000000       0.00000000 </v>
   <v>       0.00000000       0.50000000       0.00000000 </v>
   <v>       0.00000000       0.50000000       0.50000000 </v>
   <v>       0.00000000       0.00000000       0.50000000 </v>
   <v>       0.00000000       0.00000000       0.00000000 </v>
  </generation>
  <varray name="kpointlist" >
   <v>       0.00000000       0.00000000       0.00000000 </v>
   <v>       0.00000000       0.02631579       0.00000000 </v>
   <v>       0.00000000       0.05263158       0.00000000 </v>
   <v>       0.00000000       0.07894737       0.00000000 </v>
   <v>       0.00000000       0.10526316       0.00000000 </v>
   <v>       0.00000000       0.13157895       0.00000000 </v>
   <v>       0.00000000       0.15789474       0.00000000 </v>
   <v>       0.00000000       0.18421053       0.00000000 </v>
   <v>       0.00000000       0.21052632       0.00000000 </v>
   <v>       0.00000000       0.23684211       0.00000000 </v>
   <v>       0.00000000       0.26315789       0.00000000 </v>
   <v>       0.00000000       0.28947368       0.00000000 </v>
   <v>       0.00000000       0.31578947       0.00000000 </v>
   <v>       0.00000000       0.34210526       0.00000000 </v>
   <v>       0.00000000       0.36842105       0.00000000 </v>
   <v>       0.00000000       0.39473684       0.00000000 </v>
   <v>       0.00000000       0.42105263       0.00000000 </v>
   <v>       0.00000000       0.44736842       0.00000000 </v>
   <v>       0.00000000       0.47368421       0.00000000 </v>
   <v>       0.00000000       0.50000000       0.00000000 </v>
   <v>       0.00000000       0.50000000       0.00000000 </v>
   <v>       0.00000000       0.50000000       0.02631579 </v>
   <v>       0.00000000       0.50000000       0.05263158 </v>
   <v>       0.00000000       0.50000000       0.07894737 </v>
   <v>       0.00000000       0.50000000       0.10526316 </v>
   <v>       0.00000000       0.50000000       0.13157895 </v>
   <v>       0.00000000       0.50000000       0.15789474 </v>
   <v>       0.00000000       0.50000000       0.18421053 </v>
   <v>       0.00000000       0.50000000       0.21052632 </v>
   <v>       0.00000000       0.50000000       0.23684211 </v>
   <v>       0.00000000       0.50000000       0.26315789 </v>
   <v>       0.00000000       0.50000000       0.28947368 </v>
   <v>       0.00000000       0.50000000       0.31578947 </v>
   <v>       0.00000000       0.50000000       0.34210526 </v>
   <v>       0.00000000       0.50000000       0.36842105 </v>
   <v>       0.00000000       0.50000000       0.39473684 </v>
   <v>       0.00000000       0.50000000       0.42105263 </v>
   <v>       0.00000000       0.50000000       0.44736842 </v>
   <v>       0.00000000       0.50000000       0.47368421 </v>
   <v>       0.00000000       0.50000000       0.50000000 </v>
   <v>       0.00000000       0.50000000       0.50000000 </v>
   <v>       0.00000000       0.47368421       0.50000000 </v>
   <v>       0.00000000       0.44736842       0.50000000 </v>
   <v>       0.00000000       0.42105263       0.50000000 </v>
   <v>       0.00000000       0.39473684       0.50000000 </v>
   <v>       0.00000000       0.36842105       0.50000000 </v>
   <v>       0.00000000       0.34210526       0.50000000 </v>
   <v>       0.00000000       0.31578947       0.50000000 </v>
   <v>       0.00000000       0.28947368       0.50000000 </v>
   <v>       0.00000000       0.26315789       0.50000000 </v>
   <v>       0.00000000       0.23684211       0.50000000 </v>
   <v>       0.00000000       0.21052632       0.50000000 </v>
   <v>       0.00000000       0.18421053       0.50000000 </v>
   <v>       0.00000000       0.15789474       0.50000000 </v>
   <v>       0.00000000       0.13157895       0.50000000 </v>
   <v>       0.00000000       0.10526316       0.50000000 </v>
   <v>       0.00000000       0.07894737       0.50000000 </v>
   <v>       0.00000000       0.05263158       0.50000000 </v>
   <v>       0.00000000       0.02631579       0.50000000 </v>
   <v>       0.00000000       0.00000000       0.50000000 </v>
   <v>       0.00000000       0.00000000       0.50000000 </v>
   <v>       0.00000000       0.00000000       0.47368421 </v>
   <v>       0.00000000       0.00000000       0.44736842 </v>
   <v>       0.00000000       0.00000000       0.42105263 </v>
   <v>       0.00000000       0.00000000       0.39473684 </v>
   <v>       0.00000000       0.00000000       0.36842105 </v>
   <v>       0.00000000       0.00000000       0.34210526 </v>
   <v>       0.00000000       0.00000000       0.31578947 </v>
   <v>       0.00000000       0.00000000       0.28947368 </v>
   <v>       0.00000000       0.00000000       0.26315789 </v>
   <v>       0.00000000       0.00000000       0.23684211 </v>
   <v>       0.00000000       0.00000000       0.21052632 </v>
   <v>       0.00000000       0.00000000       0.18421053 </v>
   <v>       0.00000000       0.00000000       0.15789474 </v>
   <v>       0.00000000       0.00000000       0.13157895 </v>
   <v>       0.00000000       0.00000000       0.10526316 </v>
   <v>       0.00000000       0.00000000       0.07894737 </v>
   <v>       0.00000000       0.00000000       0.05263158 </v>
   <v>       0.00000000       0.00000000       0.02631579 </v>
   <v>       0.00000000       0.00000000       0.00000000 </v>
  </varray>
  <varray name="weights" >
   <v>       0.01250000 </v>
   <v>       0.01250000 </v>
   <v>       0.01250000 </v>
   <v>       0.01250000 </v>
   <v>       0.01250000 </v>
   <v>       0.01250000 </v>
   <v>       0.01250000 </v>
   <v>       0.01250000 </v>
   <v>       0.01250000 </v>
   <v>       0.01250000 </v>
   <v>       0.01250000 </v>
   <v>       0.01250000 </v>
   <v>       0.01250000 </v>
   <v>       0.01250000 </v>
   <v>       0.01250000 </v>
   <v>       0.01250000 </v>
   <v>       0.01250000 </v>
   <v>       0.01250000 </v>
   <v>       0.01250000 </v>
   <v>       0.01250000 </v>
   <v>       0.01250000 </v>
   <v>       0.01250000 </v>
   <v>       0.01250000 </v>
   <v>       0.01250000 </v>
   <v>       0.01250000 </v>
   <v>       0.01250000 </v>
   <v>       0.01250000 </v>
   <v>       0.01250000 </v>
   <v>       0.01250000 </v>
   <v>       0.01250000 </v>
   <v>       0.01250000 </v>
   <v>       0.01250000 </v>
   <v>       0.01250000 </v>
   <v>       0.01250000 </v>
   <v>       0.01250000 </v>
   <v>       0.01250000 </v>
   <v>       0.01250000 </v>
   <v>       0.01250000 </v>
   <v>       0.01250000 </v>
   <v>       0.01250000 </v>
   <v>       0.01250000 </v>
   <v>       0.01250000 </v>
   <v>       0.01250000 </v>
   <v>       0.01250000 </v>
   <v>       0.01250000 </v>
   <v>       0.01250000 </v>
   <v>       0.01250000 </v>
   <v>       0.01250000 </v>
   <v>       0.01250000 </v>
   <v>       0.01250000 </v>
   <v>       0.01250000 </v>
   <v>       0.01250000 </v>
   <v>       0.01250000 </v>
   <v>       0.01250000 </v>
   <v>       0.01250000 </v>
   <v>       0.01250000 </v>
   <v>       0.01250000 </v>
   <v>       0.01250000 </v>
   <v>       0.01250000 </v>
   <v>       0.01250000 </v>
   <v>       0.01250000 </v>
   <v>       0.01250000 </v>
   <v>       0.01250000 </v>
   <v>       0.01250000 </v>
   <v>       0.01250000 </v>
   <v>       0.01250000 </v>
   <v>       0.01250000 </v>
   <v>       0.01250000 </v>
   <v>       0.01250000 </v>
   <v>       0.01250000 </v>
   <v>       0.01250000 </v>
   <v>       0.01250000 </v>
   <v>       0.01250000 </v>
   <v>       0.01250000 </v>
   <v>       0.01250000 </v>
   <v>       0.01250000 </v>
   <v>       0.01250000 </v>
   <v>       0.01250000 </v>
   <v>       0.01250000 </v>
   <v>       0.01250000 </v>
  </varray>
 </kpoints>
 <parameters>
  <separator name="general" >
   <i type="string" name="SYSTEM">unknown system</i>
   <i type="logical" name="LCOMPAT"> F  </i>
  </separator>
  <separator name="electronic" >
   <i type="string" name="PREC">normal</i>
   <i name="ENMAX">    500.00000000</i>
   <i name="ENAUG">    351.16500000</i>
   <i name="EDIFF">      0.00000100</i>
   <i type="int" name="IALGO">    38</i>
   <i type="int" name="IWAVPR">    10</i>
   <i type="int" name="NBANDS">   176</i>
   <i name="NELECT">    288.00000000</i>
   <i type="int" name="TURBO">     0</i>
   <i type="int" name="IRESTART">     0</i>
   <i type="int" name="NREBOOT">     0</i>
   <i type="int" name="NMIN">     0</i>
   <i name="EREF">      0.00000000</i>
   <separator name="electronic smearing" >
    <i type="int" name="ISMEAR">     0</i>
    <i name="SIGMA">      0.01000000</i>
    <i name="KSPACING">      0.50000000</i>
    <i type="logical" name="KGAMMA"> T  </i>
   </separator>
   <separator name="electronic projectors" >
    <i type="logical" name="LREAL"> T  </i>
    <v name="ROPT">     -0.00050000     -0.00050000</v>
    <i type="int" name="LMAXPAW">  -100</i>
    <i type="int" name="LMAXMIX">     2</i>
    <i type="logical" name="NLSPLINE"> F  </i>
   </separator>
   <separator name="electronic startup" >
    <i type="int" name="ISTART">     0</i>
    <i type="int" name="ICHARG">    11</i>
    <i type="int" name="INIWAV">     1</i>
   </separator>
   <separator name="electronic spin" >
    <i type="int" name="ISPIN">     1</i>
    <i type="logical" name="LNONCOLLINEAR"> F  </i>
    <v name="MAGMOM">      1.00000000      1.00000000      1.00000000      1.00000000      1.00000000      1.00000000      1.00000000      1.00000000      1.00000000      1.00000000      1.00000000      1.00000000      1.00000000      1.00000000      1.00000000      1.00000000      1.00000000      1.00000000      1.00000000      1.00000000
      1.00000000      1.00000000      1.00000000      1.00000000      1.00000000      1.00000000      1.00000000      1.00000000      1.00000000      1.00000000      1.00000000      1.00000000      1.00000000      1.00000000      1.00000000      1.00000000      1.00000000      1.00000000      1.00000000      1.00000000
      1.00000000      1.00000000      1.00000000      1.00000000      1.00000000      1.00000000      1.00000000      1.00000000</v>
    <i name="NUPDOWN">     -1.00000000</i>
    <i type="logical" name="LSORBIT"> F  </i>
    <v name="SAXIS">      0.00000000      0.00000000      1.00000000</v>
    <i type="logical" name="LSPIRAL"> F  </i>
    <v name="QSPIRAL">      0.00000000      0.00000000      0.00000000</v>
    <i type="logical" name="LZEROZ"> F  </i>
   </separator>
   <separator name="electronic exchange-correlation" >
    <i type="logical" name="LASPH"> T  </i>
    <i type="logical" name="LMETAGGA"> F  </i>
   </separator>
   <separator name="electronic convergence" >
    <i type="int" name="NELM">   100</i>
    <i type="int" name="NELMDL">    -5</i>
    <i type="int" name="NELMIN">     2</i>
    <i name="ENINI">    500.00000000</i>
    <separator name="electronic convergence detail" >
     <i type="logical" name="LDIAG"> T  </i>
     <i type="logical" name="LSUBROT"> F  </i>
     <i name="WEIMIN">      0.00000000</i>
     <i name="EBREAK">      0.00000000</i>
     <i name="DEPER">      0.30000000</i>
     <i type="int" name="NRMM">     4</i>
     <i name="TIME">      0.40000000</i>
    </separator>
   </separator>
   <separator name="electronic mixer" >
    <i name="AMIX">      0.40000000</i>
    <i name="BMIX">      1.00000000</i>
    <i name="AMIN">      0.10000000</i>
    <i name="AMIX_MAG">      1.60000000</i>
    <i name="BMIX_MAG">      1.00000000</i>
    <separator name="electronic mixer details" >
     <i type="int" name="IMIX">     4</i>
     <i type="logical" name="MIXFIRST"> F  </i>
     <i type="int" name="MAXMIX">   -45</i>
     <i name="WC">    100.00000000</i>
     <i type="int" name="INIMIX">     1</i>
     <i type="int" name="MIXPRE">     1</i>
     <i type="int" name="MREMOVE">     5</i>
    </separator>
   </separator>
   <separator name="electronic dipolcorrection" >
    <i type="logical" name="LDIPOL"> F  </i>
    <i type="logical" name="LMONO"> F  </i>
    <i type="int" name="IDIPOL">     0</i>
    <i name="EPSILON">      1.00000000</i>
    <v name="DIPOL">   -100.00000000   -100.00000000   -100.00000000</v>
    <i name="EFIELD">      0.00000000</i>
   </separator>
  </separator>
  <separator name="grids" >
   <i type="int" name="NGX">   180</i>
   <i type="int" name="NGY">    36</i>
   <i type="int" name="NGZ">    64</i>
   <i type="int" name="NGXF">   360</i>
   <i type="int" name="NGYF">    72</i>
   <i type="int" name="NGZF">   128</i>
   <i type="logical" name="ADDGRID"> F  </i>
  </separator>
  <separator name="ionic" >
   <i type="int" name="NSW">     0</i>
   <i type="int" name="IBRION">    -1</i>
   <i type="int" name="MDALGO">     0</i>
   <i type="int" name="ISIF">     2</i>
   <i name="PSTRESS">      0.00000000</i>
   <i name="EDIFFG">     -0.01000000</i>
   <i type="int" name="NFREE">     0</i>
   <i name="POTIM">      0.30000000</i>
   <i name="SMASS">     -3.00000000</i>
   <i name="SCALEE">      1.00000000</i>
  </separator>
  <separator name="ionic md" >
   <i name="TEBEG">      0.00010000</i>
   <i name="TEEND">      0.00010000</i>
   <i type="int" name="NBLOCK">     1</i>
   <i type="int" name="KBLOCK">     1</i>
   <i type="int" name="NPACO">   256</i>
   <i name="APACO">     16.00000000</i>
  </separator>
  <separator name="symmetry" >
   <i type="int" name="ISYM">     2</i>
   <i name="SYMPREC">      0.00001000</i>
  </separator>
  <separator name="dos" >
   <i type="int" name="LORBIT">     0</i>
   <v name="RWIGS">     -1.00000000     -1.00000000</v>
   <i type="int" name="NEDOS">   301</i>
   <i name="EMIN">     10.00000000</i>
   <i name="EMAX">    -10.00000000</i>
   <i name="EFERMI">      0.00000000</i>
  </separator>
  <separator name="writing" >
   <i type="int" name="NWRITE">     2</i>
   <i type="logical" name="LWAVE"> T  </i>
   <i type="logical" name="LDOWNSAMPLE"> F  </i>
   <i type="logical" name="LCHARG"> T  </i>
   <i type="logical" name="LPARD"> F  </i>
   <i type="logical" name="LVTOT"> F  </i>
   <i type="logical" name="LVHAR"> F  </i>
   <i type="logical" name="LELF"> F  </i>
   <i type="logical" name="LOPTICS"> F  </i>
   <v name="STM">      0.00000000      0.00000000      0.00000000      0.00000000      0.00000000      0.00000000      0.00000000</v>
  </separator>
  <separator name="performance" >
   <i type="int" name="NPAR">     8</i>
   <i type="int" name="NSIM">     4</i>
   <i type="int" name="NBLK">    -1</i>
   <i type="logical" name="LPLANE"> T  </i>
   <i type="logical" name="LSCALAPACK"> T  </i>
   <i type="logical" name="LSCAAWARE"> F  </i>
   <i type="logical" name="LSCALU"> F  </i>
   <i type="logical" name="LASYNC"> F  </i>
   <i type="logical" name="LORBITALREAL"> F  </i>
  </separator>
  <separator name="miscellaneous" >
   <i type="int" name="IDIOT">     3</i>
   <i type="int" name="ISPECIAL">     0</i>
   <i type="logical" name="LMUSIC"> F  </i>
   <v name="POMASS">    137.32700000     28.08500000</v>
   <v name="DARWINR">      0.00000000      0.00000000</v>
   <v name="DARWINV">      1.00000000      1.00000000</v>
   <i type="logical" name="LCORR"> T  </i>
  </separator>
  <i type="logical" name="GGA_COMPAT"> T  </i>
  <i type="logical" name="LBERRY"> F  </i>
  <i type="int" name="ICORELEVEL">     0</i>
  <i type="logical" name="LDAU"> F  </i>
  <i type="int" name="I_CONSTRAINED_M">     0</i>
  <separator name="electronic exchange-correlation" >
   <i type="string" name="GGA">MK</i>
   <i type="int" name="VOSKOWN">     0</i>
   <i type="logical" name="LHFCALC"> F  </i>
   <i type="string" name="PRECFOCK"></i>
   <i type="logical" name="LSYMGRAD"> F  </i>
   <i type="logical" name="LHFONE"> F  </i>
   <i type="logical" name="LRHFCALC"> F  </i>
   <i type="logical" name="LTHOMAS"> F  </i>
   <i type="logical" name="LMODELHF"> F  </i>
   <i name="ENCUT4O">     -1.00000000</i>
   <i type="int" name="EXXOEP">     0</i>
   <i type="int" name="FOURORBIT">     0</i>
   <i name="AEXX">      0.00000000</i>
   <i name="HFALPHA">      0.00000000</i>
   <i name="MCALPHA">      0.00000000</i>
   <i name="ALDAX">      1.00000000</i>
   <i name="AGGAX">      1.00000000</i>
   <i name="ALDAC">      1.00000000</i>
   <i name="AGGAC">      0.00000000</i>
   <i type="int" name="NKREDX">     1</i>
   <i type="int" name="NKREDY">     1</i>
   <i type="int" name="NKREDZ">     1</i>
   <i type="logical" name="SHIFTRED"> F  </i>
   <i type="logical" name="ODDONLY"> F  </i>
   <i type="logical" name="EVENONLY"> F  </i>
   <i type="int" name="LMAXFOCK">     0</i>
   <i type="int" name="NMAXFOCKAE">     0</i>
   <i type="logical" name="LFOCKAEDFT"> F  </i>
   <i name="HFSCREEN">      0.00000000</i>
   <i name="HFSCREENC">      0.00000000</i>
   <i type="int" name="NBANDSGWLOW">     0</i>
  </separator>
  <separator name="vdW DFT" >
   <i type="logical" name="LUSE_VDW"> T  </i>
   <i name="Zab_VDW">     -1.88670000</i>
   <i name="PARAM1">      0.12340000</i>
   <i name="PARAM2">      0.71135700</i>
   <i name="PARAM3">      0.00000000</i>
  </separator>
  <separator name="model GW" >
   <i type="int" name="MODEL_GW">     0</i>
   <i name="MODEL_EPS0">     31.11265363</i>
   <i name="MODEL_ALPHA">      1.00000000</i>
  </separator>
  <separator name="linear response parameters" >
   <i type="logical" name="LEPSILON"> F  </i>
   <i type="logical" name="LRPA"> F  </i>
   <i type="logical" name="LNABLA"> F  </i>
   <i type="logical" name="LVEL"> F  </i>
   <i type="int" name="KINTER">     0</i>
   <i name="CSHIFT">      0.10000000</i>
   <i name="OMEGAMAX">     -1.00000000</i>
   <i name="DEG_THRESHOLD">      0.00200000</i>
   <i name="RTIME">     -0.10000000</i>
   <i name="WPLASMAI">      0.00000000</i>
   <v name="DFIELD">      0.00000000      0.00000000      0.00000000</v>
   <v name="WPLASMA">      0.00000000      0.00000000      0.00000000      0.00000000      0.00000000      0.00000000      0.00000000      0.00000000      0.00000000</v>
  </separator>
  <separator name="orbital magnetization" >
   <i type="logical" name="NUCIND"> F  </i>
   <v name="MAGPOS">      0.00000000      0.00000000      0.00000000</v>
   <i type="logical" name="LNICSALL"> T  </i>
   <i type="logical" name="ORBITALMAG"> F  </i>
   <i type="logical" name="LMAGBLOCH"> F  </i>
   <i type="logical" name="LCHIMAG"> F  </i>
   <i type="logical" name="LGAUGE"> T  </i>
   <i type="int" name="MAGATOM">     0</i>
   <v name="MAGDIPOL">      0.00000000      0.00000000      0.00000000</v>
   <v name="AVECCONST">      0.00000000      0.00000000      0.00000000</v>
  </separator>
  <separator name="response functions" >
   <i type="logical" name="LADDER"> F  </i>
   <i type="logical" name="LRPAFORCE"> F  </i>
   <i type="logical" name="LFXC"> F  </i>
   <i type="logical" name="LHARTREE"> T  </i>
   <i type="int" name="IBSE">     0</i>
   <v type="int" name="KPOINT">    -1     0     0     0</v>
   <i type="logical" name="LTCTE"> F  </i>
   <i type="logical" name="LTETE"> F  </i>
   <i type="logical" name="LTRIPLET"> F  </i>
   <i type="logical" name="LFXCEPS"> F  </i>
   <i type="logical" name="LFXHEG"> F  </i>
   <i type="int" name="NATURALO">     2</i>
   <i type="logical" name="L2ORDER"> F  </i>
   <i type="logical" name="LMP2LT"> F  </i>
   <i type="logical" name="LUSEW"> F  </i>
   <i name="ENCUTGW">     -2.00000000</i>
   <i name="ENCUTGWSOFT">     -2.00000000</i>
   <i name="ENCUTLF">     -1.00000000</i>
   <i type="int" name="LMAXMP2">    -1</i>
   <i name="SCISSOR">      0.00000000</i>
   <i type="int" name="NOMEGA">     0</i>
   <i type="int" name="NOMEGAR">     0</i>
   <i type="int" name="NBANDSGW">    -1</i>
   <i type="int" name="NBANDSO">    -1</i>
   <i type="int" name="NBANDSV">    -1</i>
   <i type="int" name="NELM">   100</i>
   <i type="int" name="NELMHF">     1</i>
   <i type="int" name="DIM">     3</i>
   <i type="int" name="ANTIRES">     0</i>
   <i name="OMEGAMAX">    -30.00000000</i>
   <i name="OMEGAMIN">    -30.00000000</i>
   <i name="OMEGATL">   -200.00000000</i>
   <i type="int" name="OMEGAGRID">   140</i>
   <i name="CSHIFT">     -0.10000000</i>
   <i type="logical" name="SELFENERGY"> F  </i>
   <i type="logical" name="LSPECTRAL"> F  </i>
   <i type="logical" name="LSPECTRALGW"> F  </i>
   <i type="logical" name="LSINGLES"> F  </i>
   <i type="logical" name="LFERMIGW"> F  </i>
   <i type="logical" name="ODDONLYGW"> F  </i>
   <i type="logical" name="EVENONLYGW"> F  </i>
   <i type="int" name="NKREDLFX">     1</i>
   <i type="int" name="NKREDLFY">     1</i>
   <i type="int" name="NKREDLFZ">     1</i>
   <i type="int" name="MAXMEM">  2800</i>
   <i type="int" name="TELESCOPE">     0</i>
   <i type="int" name="TAUPAR">     1</i>
   <i type="int" name="OMEGAPAR">    -1</i>
   <i name="LAMBDA">      1.00000000</i>
  </separator>
  <separator name="External order field" >
   <i name="OFIELD_KAPPA">      0.00000000</i>
   <v name="OFIELD_K">      0.00000000      0.00000000      0.00000000</v>
   <i name="OFIELD_Q6_NEAR">      0.00000000</i>
   <i name="OFIELD_Q6_FAR">      0.00000000</i>
   <i name="OFIELD_A">      0.00000000</i>
  </separator>
 </parameters>
 <atominfo>
  <atoms>      48 </atoms>
  <types>       2 </types>
  <array name="atoms" >
   <dimension dim="1">ion</dimension>
   <field type="string">element</field>
   <field type="int">atomtype</field>
   <set>
    <rc><c>Ba</c><c>   1</c></rc>
    <rc><c>Ba</c><c>   1</c></rc>
    <rc><c>Ba</c><c>   1</c></rc>
    <rc><c>Ba</c><c>   1</c></rc>
    <rc><c>Ba</c><c>   1</c></rc>
    <rc><c>Ba</c><c>   1</c></rc>
    <rc><c>Ba</c><c>   1</c></rc>
    <rc><c>Ba</c><c>   1</c></rc>
    <rc><c>Ba</c><c>   1</c></rc>
    <rc><c>Ba</c><c>   1</c></rc>
    <rc><c>Ba</c><c>   1</c></rc>
    <rc><c>Ba</c><c>   1</c></rc>
    <rc><c>Ba</c><c>   1</c></rc>
    <rc><c>Ba</c><c>   1</c></rc>
    <rc><c>Ba</c><c>   1</c></rc>
    <rc><c>Ba</c><c>   1</c></rc>
    <rc><c>Si</c><c>   2</c></rc>
    <rc><c>Si</c><c>   2</c></rc>
    <rc><c>Si</c><c>   2</c></rc>
    <rc><c>Si</c><c>   2</c></rc>
    <rc><c>Si</c><c>   2</c></rc>
    <rc><c>Si</c><c>   2</c></rc>
    <rc><c>Si</c><c>   2</c></rc>
    <rc><c>Si</c><c>   2</c></rc>
    <rc><c>Si</c><c>   2</c></rc>
    <rc><c>Si</c><c>   2</c></rc>
    <rc><c>Si</c><c>   2</c></rc>
    <rc><c>Si</c><c>   2</c></rc>
    <rc><c>Si</c><c>   2</c></rc>
    <rc><c>Si</c><c>   2</c></rc>
    <rc><c>Si</c><c>   2</c></rc>
    <rc><c>Si</c><c>   2</c></rc>
    <rc><c>Si</c><c>   2</c></rc>
    <rc><c>Si</c><c>   2</c></rc>
    <rc><c>Si</c><c>   2</c></rc>
    <rc><c>Si</c><c>   2</c></rc>
    <rc><c>Si</c><c>   2</c></rc>
    <rc><c>Si</c><c>   2</c></rc>
    <rc><c>Si</c><c>   2</c></rc>
    <rc><c>Si</c><c>   2</c></rc>
    <rc><c>Si</c><c>   2</c></rc>
    <rc><c>Si</c><c>   2</c></rc>
    <rc><c>Si</c><c>   2</c></rc>
    <rc><c>Si</c><c>   2</c></rc>
    <rc><c>Si</c><c>   2</c></rc>
    <rc><c>Si</c><c>   2</c></rc>
    <rc><c>Si</c><c>   2</c></rc>
    <rc><c>Si</c><c>   2</c></rc>
   </set>
  </array>
  <array name="atomtypes" >
   <dimension dim="1">type</dimension>
   <field type="int">atomspertype</field>
   <field type="string">element</field>
   <field>mass</field>
   <field>valence</field>
   <field type="string">pseudopotential</field>
   <set>
    <rc><c>  16</c><c>Ba</c><c>    137.32700000</c><c>     10.00000000</c><c> PAW_PBE Ba_sv 06Sep2000                </c></rc>
    <rc><c>  32</c><c>Si</c><c>     28.08500000</c><c>      4.00000000</c><c> PAW_PBE Si 05Jan2001                   </c></rc>
   </set>
  </array>
 </atominfo>
 <structure name="initialpos" >
  <crystal>
   <varray name="basis" >
    <v>      32.90484422       0.00000000      -0.03111809 </v>
    <v>       0.00000000       6.64312522       0.00000000 </v>
    <v>      -0.01212595       0.00000000      11.38662979 </v>
   </varray>
   <i name="volume">   2489.01229066 </i>
   <varray name="rec_basis" >
    <v>       0.03039069       0.00000000       0.00003236 </v>
    <v>       0.00000000       0.15053156       0.00000000 </v>
    <v>       0.00008305       0.00000000       0.08782239 </v>
   </varray>
  </crystal>
  <varray name="positions" >
   <v>       0.00938449       0.25000000       0.69807423 </v>
   <v>       0.53633076       0.75000002       0.30192577 </v>
   <v>       0.12879642       0.75000002       0.19118719 </v>
   <v>       0.14136631       0.25000000       0.80844098 </v>
   <v>       0.27766054       0.25000000       0.68973616 </v>
   <v>       0.26805468       0.75000002       0.31026384 </v>
   <v>       0.40434891       0.75000002       0.19155900 </v>
   <v>       0.41691880       0.25000000       0.80881279 </v>
   <v>       0.05905771       0.75000002       0.91068601 </v>
   <v>       0.48665752       0.25000000       0.08931397 </v>
   <v>       0.09433010       0.25000000       0.39447157 </v>
   <v>       0.18034407       0.75000002       0.59575735 </v>
   <v>       0.31819228       0.75000002       0.90696590 </v>
   <v>       0.22752295       0.25000000       0.09303407 </v>
   <v>       0.36537116       0.25000000       0.40424269 </v>
   <v>       0.45138512       0.75000002       0.60552847 </v>
   <v>       0.04872576       0.06998604       0.14511706 </v>
   <v>       0.49698947       0.93001395       0.85488292 </v>
   <v>       0.08463346       0.93012269       0.64036268 </v>
   <v>       0.18813032       0.06824984       0.35288031 </v>
   <v>       0.49698947       0.56998605       0.85488292 </v>
   <v>       0.04872576       0.43001395       0.14511706 </v>
   <v>       0.18813032       0.43175016       0.35288031 </v>
   <v>       0.08463346       0.56987731       0.64036268 </v>
   <v>       0.32337645       0.06870185       0.14622564 </v>
   <v>       0.22233879       0.93129814       0.85377434 </v>
   <v>       0.35758489       0.93175016       0.64711969 </v>
   <v>       0.46108177       0.06987730       0.35963732 </v>
   <v>       0.22233879       0.56870186       0.85377434 </v>
   <v>       0.32337645       0.43129814       0.14622564 </v>
   <v>       0.46108177       0.43012269       0.35963732 </v>
   <v>       0.35758489       0.56824984       0.64711969 </v>
   <v>       0.02045863       0.75000002       0.61558028 </v>
   <v>       0.52525656       0.25000000       0.38441972 </v>
   <v>       0.11080589       0.25000000       0.08168962 </v>
   <v>       0.16159192       0.75000002       0.90771910 </v>
   <v>       0.29670109       0.75000002       0.59250165 </v>
   <v>       0.24901413       0.25000000       0.40749835 </v>
   <v>       0.38412331       0.25000000       0.09228088 </v>
   <v>       0.43490934       0.75000002       0.91831036 </v>
   <v>       0.04904360       0.25000000       0.96124476 </v>
   <v>       0.49667161       0.75000002       0.03875526 </v>
   <v>       0.07084034       0.75000002       0.45903034 </v>
   <v>       0.18938180       0.25000000       0.53604450 </v>
   <v>       0.32572300       0.25000000       0.96264124 </v>
   <v>       0.21999224       0.75000002       0.03735877 </v>
   <v>       0.35633341       0.75000002       0.46395542 </v>
   <v>       0.47487490       0.25000000       0.54096958 </v>
  </varray>
 </structure>
 <calculation>
  <scstep>
   <time name="dav">   47.22   47.97</time>
   <time name="total">   50.91   51.78</time>
   <energy>
    <i name="alphaZ">    517.20388186 </i>
    <i name="ewald">  44338.08918132 </i>
    <i name="hartreedc"> -57687.87592091 </i>
    <i name="XCdc">     96.99956676 </i>
    <i name="pawpsdc">   7735.85313748 </i>
    <i name="pawaedc">  -7146.97976309 </i>
    <i name="eentropy">     -0.00100742 </i>
    <i name="bandstr">   -282.92624223 </i>
    <i name="atom">  14538.30290828 </i>
    <i name="e_fr_energy">   2108.66574205 </i>
    <i name="e_wo_entrp">   2108.66674946 </i>
    <i name="e_0_energy">   2108.66624576 </i>
   </energy>
  </scstep>
  <scstep>
   <time name="dav">   60.79   61.68</time>
   <time name="total">   60.79   61.68</time>
   <energy>
    <i name="e_fr_energy">    100.71079743 </i>
    <i name="e_wo_entrp">    100.71086411 </i>
    <i name="e_0_energy">    100.71083077 </i>
   </energy>
  </scstep>
  <scstep>
   <time name="dav">   55.42   56.22</time>
   <time name="total">   55.42   56.22</time>
   <energy>
    <i name="e_fr_energy">   -176.25161210 </i>
    <i name="e_wo_entrp">   -176.25161210 </i>
    <i name="e_0_energy">   -176.25161210 </i>
   </energy>
  </scstep>
  <scstep>
   <time name="dav">   62.64   63.55</time>
   <time name="total">   62.65   63.55</time>
   <energy>
    <i name="e_fr_energy">   -188.02028156 </i>
    <i name="e_wo_entrp">   -188.02028156 </i>
    <i name="e_0_energy">   -188.02028156 </i>
   </energy>
  </scstep>
  <scstep>
   <time name="dav">   66.81   67.78</time>
   <time name="total">   66.81   67.79</time>
   <energy>
    <i name="e_fr_energy">   -188.55311792 </i>
    <i name="e_wo_entrp">   -188.55311792 </i>
    <i name="e_0_energy">   -188.55311792 </i>
   </energy>
  </scstep>
  <scstep>
   <time name="dav">   61.68   62.58</time>
   <time name="total">   61.68   62.58</time>
   <energy>
    <i name="e_fr_energy">   -188.56504794 </i>
    <i name="e_wo_entrp">   -188.56504794 </i>
    <i name="e_0_energy">   -188.56504794 </i>
   </energy>
  </scstep>
  <scstep>
   <time name="dav">   67.11   68.09</time>
   <time name="total">   67.11   68.09</time>
   <energy>
    <i name="e_fr_energy">   -188.56557640 </i>
    <i name="e_wo_entrp">   -188.56557640 </i>
    <i name="e_0_energy">   -188.56557640 </i>
   </energy>
  </scstep>
  <scstep>
   <time name="dav">   58.82   59.68</time>
   <time name="total">   58.82   59.68</time>
   <energy>
    <i name="e_fr_energy">   -188.56559715 </i>
    <i name="e_wo_entrp">   -188.56559715 </i>
    <i name="e_0_energy">   -188.56559715 </i>
   </energy>
  </scstep>
  <scstep>
   <time name="dav">   51.85   52.60</time>
   <time name="total">   51.85   52.60</time>
   <energy>
    <i name="e_fr_energy">   -188.56559821 </i>
    <i name="e_wo_entrp">   -188.56559821 </i>
    <i name="e_0_energy">   -188.56559821 </i>
   </energy>
  </scstep>
  <scstep>
   <time name="dav">   38.50   39.06</time>
   <time name="total">   38.50   39.06</time>
   <energy>
    <i name="alphaZ">    517.20388186 </i>
    <i name="ewald">  44338.08918132 </i>
    <i name="hartreedc"> -57687.87592091 </i>
    <i name="XCdc">     96.99956676 </i>
    <i name="pawpsdc">   7735.85313748 </i>
    <i name="pawaedc">  -7146.97976309 </i>
    <i name="eentropy">     -0.00000000 </i>
    <i name="bandstr">  -2580.15858995 </i>
    <i name="atom">  14538.30290828 </i>
    <i name="e_fr_energy">   -188.56559826 </i>
    <i name="e_wo_entrp">   -188.56559826 </i>
    <i name="e_0_energy">   -188.56559826 </i>
   </energy>
  </scstep>
  <structure>
   <crystal>
    <varray name="basis" >
     <v>      32.90484422       0.00000000      -0.03111809 </v>
     <v>       0.00000000       6.64312522       0.00000000 </v>
     <v>      -0.01212595       0.00000000      11.38662979 </v>
    </varray>
    <i name="volume">   2489.01229066 </i>
    <varray name="rec_basis" >
     <v>       0.03039069       0.00000000       0.00003236 </v>
     <v>       0.00000000       0.15053156       0.00000000 </v>
     <v>       0.00008305       0.00000000       0.08782239 </v>
    </varray>
   </crystal>
   <varray name="positions" >
    <v>       0.00938449       0.25000000       0.69807423 </v>
    <v>       0.53633076       0.75000002       0.30192577 </v>
    <v>       0.12879642       0.75000002       0.19118719 </v>
    <v>       0.14136631       0.25000000       0.80844098 </v>
    <v>       0.27766054       0.25000000       0.68973616 </v>
    <v>       0.26805468       0.75000002       0.31026384 </v>
    <v>       0.40434891       0.75000002       0.19155900 </v>
    <v>       0.41691880       0.25000000       0.80881279 </v>
    <v>       0.05905771       0.75000002       0.91068601 </v>
    <v>       0.48665752       0.25000000       0.08931397 </v>
    <v>       0.09433010       0.25000000       0.39447157 </v>
    <v>       0.18034407       0.75000002       0.59575735 </v>
    <v>       0.31819228       0.75000002       0.90696590 </v>
    <v>       0.22752295       0.25000000       0.09303407 </v>
    <v>       0.36537116       0.25000000       0.40424269 </v>
    <v>       0.45138512       0.75000002       0.60552847 </v>
    <v>       0.04872576       0.06998604       0.14511706 </v>
    <v>       0.49698947       0.93001395       0.85488292 </v>
    <v>       0.08463346       0.93012269       0.64036268 </v>
    <v>       0.18813032       0.06824984       0.35288031 </v>
    <v>       0.49698947       0.56998605       0.85488292 </v>
    <v>       0.04872576       0.43001395       0.14511706 </v>
    <v>       0.18813032       0.43175016       0.35288031 </v>
    <v>       0.08463346       0.56987731       0.64036268 </v>
    <v>       0.32337645       0.06870185       0.14622564 </v>
    <v>       0.22233879       0.93129814       0.85377434 </v>
    <v>       0.35758489       0.93175016       0.64711969 </v>
    <v>       0.46108177       0.06987730       0.35963732 </v>
    <v>       0.22233879       0.56870186       0.85377434 </v>
    <v>       0.32337645       0.43129814       0.14622564 </v>
    <v>       0.46108177       0.43012269       0.35963732 </v>
    <v>       0.35758489       0.56824984       0.64711969 </v>
    <v>       0.02045863       0.75000002       0.61558028 </v>
    <v>       0.52525656       0.25000000       0.38441972 </v>
    <v>       0.11080589       0.25000000       0.08168962 </v>
    <v>       0.16159192       0.75000002       0.90771910 </v>
    <v>       0.29670109       0.75000002       0.59250165 </v>
    <v>       0.24901413       0.25000000       0.40749835 </v>
    <v>       0.38412331       0.25000000       0.09228088 </v>
    <v>       0.43490934       0.75000002       0.91831036 </v>
    <v>       0.04904360       0.25000000       0.96124476 </v>
    <v>       0.49667161       0.75000002       0.03875526 </v>
    <v>       0.07084034       0.75000002       0.45903034 </v>
    <v>       0.18938180       0.25000000       0.53604450 </v>
    <v>       0.32572300       0.25000000       0.96264124 </v>
    <v>       0.21999224       0.75000002       0.03735877 </v>
    <v>       0.35633341       0.75000002       0.46395542 </v>
    <v>       0.47487490       0.25000000       0.54096958 </v>
   </varray>
  </structure>
  <varray name="forces" >
   <v>       0.02101908       0.00000000      -0.03241969 </v>
   <v>      -0.02101908       0.00000000       0.03241969 </v>
   <v>      -0.05563696       0.00000000      -0.02519165 </v>
   <v>       0.03507332      -0.00000000       0.01617465 </v>
   <v>       0.03238918      -0.00000000      -0.02581592 </v>
   <v>      -0.03238918      -0.00000000       0.02581592 </v>
   <v>      -0.03507332      -0.00000000      -0.01617465 </v>
   <v>       0.05563696       0.00000000       0.02519165 </v>
   <v>      -0.00058372       0.00000000      -0.00387207 </v>
   <v>       0.00058372      -0.00000000       0.00387207 </v>
   <v>      -0.02769009      -0.00000000       0.03569725 </v>
   <v>       0.01298757       0.00000000      -0.03520896 </v>
   <v>       0.01420394      -0.00000000       0.02389296 </v>
   <v>      -0.01420394      -0.00000000      -0.02389296 </v>
   <v>      -0.01298757      -0.00000000       0.03520896 </v>
   <v>       0.02769009      -0.00000000      -0.03569725 </v>
   <v>       0.01818407       0.00825884       0.01253416 </v>
   <v>      -0.01818407      -0.00825884      -0.01253416 </v>
   <v>      -0.01816024      -0.04125326      -0.00301936 </v>
   <v>       0.03210904       0.02682261       0.01019467 </v>
   <v>      -0.01818407       0.00825884      -0.01253416 </v>
   <v>       0.01818407      -0.00825884       0.01253416 </v>
   <v>       0.03210904      -0.02682261       0.01019467 </v>
   <v>      -0.01816024       0.04125326      -0.00301936 </v>
   <v>       0.03399812       0.02198803      -0.00871147 </v>
   <v>      -0.03399812      -0.02198803       0.00871147 </v>
   <v>      -0.03210904      -0.02682261      -0.01019467 </v>
   <v>       0.01816024       0.04125326       0.00301936 </v>
   <v>      -0.03399812       0.02198803       0.00871147 </v>
   <v>       0.03399812      -0.02198803      -0.00871147 </v>
   <v>       0.01816024      -0.04125326       0.00301936 </v>
   <v>      -0.03210904       0.02682261      -0.01019467 </v>
   <v>       0.02726166       0.00000000       0.02239963 </v>
   <v>      -0.02726166       0.00000000      -0.02239963 </v>
   <v>       0.03407677      -0.00000000      -0.00622290 </v>
   <v>      -0.00324569      -0.00000000      -0.00573498 </v>
   <v>      -0.00137478      -0.00000000       0.01147980 </v>
   <v>       0.00137478      -0.00000000      -0.01147980 </v>
   <v>       0.00324569      -0.00000000       0.00573498 </v>
   <v>      -0.03407677      -0.00000000       0.00622290 </v>
   <v>       0.01201941      -0.00000000       0.01522944 </v>
   <v>      -0.01201941      -0.00000000      -0.01522944 </v>
   <v>      -0.00047449       0.00000000      -0.00672828 </v>
   <v>      -0.00933734      -0.00000000      -0.00472945 </v>
   <v>      -0.01691908      -0.00000000      -0.00019620 </v>
   <v>       0.01691908       0.00000000       0.00019620 </v>
   <v>       0.00933734       0.00000000       0.00472945 </v>
   <v>       0.00047449      -0.00000000       0.00672828 </v>
  </varray>
  <varray name="stress" >
   <v>      -0.16918032       0.00000000       0.05310964 </v>
   <v>       0.00000000      -0.65755427       0.00000000 </v>
   <v>       0.05310976       0.00000000      -0.45094436 </v>
  </varray>
  <energy>
   <i name="e_fr_energy">   -188.56559826 </i>
   <i name="e_wo_entrp">   -188.56559826 </i>
   <i name="e_0_energy">     -0.00000000 </i>
  </energy>
  <time name="totalsc">  678.70  697.87</time>
  <eigenvalues>
   <array>
    <dimension dim="1">band</dimension>
    <dimension dim="2">kpoint</dimension>
    <dimension dim="3">spin</dimension>
    <field>eigene</field>
    <field>occ</field>
    <set>
     <set comment="spin 1">
      <set comment="kpoint 1">
       <r>  -28.1485    1.0000 </r>
       <r>  -28.1483    1.0000 </r>
       <r>  -27.1667    1.0000 </r>
       <r>  -27.1663    1.0000 </r>
       <r>  -27.1606    1.0000 </r>
       <r>  -27.1601    1.0000 </r>
       <r>  -27.1320    1.0000 </r>
       <r>  -27.1316    1.0000 </r>
       <r>  -27.0687    1.0000 </r>
       <r>  -27.0631    1.0000 </r>
       <r>  -27.0193    1.0000 </r>
       <r>  -27.0190    1.0000 </r>
       <r>  -27.0058    1.0000 </r>
       <r>  -27.0056    1.0000 </r>
       <r>  -26.9611    1.0000 </r>
       <r>  -26.9607    1.0000 </r>
       <r>  -13.5250    1.0000 </r>
       <r>  -13.5247    1.0000 </r>
       <r>  -13.4515    1.0000 </r>
       <r>  -13.4512    1.0000 </r>
       <r>  -13.3614    1.0000 </r>
       <r>  -13.3611    1.0000 </r>
       <r>  -12.7787    1.0000 </r>
       <r>  -12.7745    1.0000 </r>
       <r>  -12.7046    1.0000 </r>
       <r>  -12.6636    1.0000 </r>
       <r>  -12.6521    1.0000 </r>
       <r>  -12.6398    1.0000 </r>
       <r>  -12.6157    1.0000 </r>
       <r>  -12.6052    1.0000 </r>
       <r>  -12.5755    1.0000 </r>
       <r>  -12.5684    1.0000 </r>
       <r>  -12.5543    1.0000 </r>
       <r>  -12.5462    1.0000 </r>
       <r>  -12.5444    1.0000 </r>
       <r>  -12.5249    1.0000 </r>
       <r>  -12.5221    1.0000 </r>
       <r>  -12.5189    1.0000 </r>
       <r>  -12.5067    1.0000 </r>
       <r>  -12.4939    1.0000 </r>
       <r>  -12.4900    1.0000 </r>
       <r>  -12.4865    1.0000 </r>
       <r>  -12.4859    1.0000 </r>
       <r>  -12.4793    1.0000 </r>
       <r>  -12.4748    1.0000 </r>
       <r>  -12.4312    1.0000 </r>
       <r>  -12.4263    1.0000 </r>
       <r>  -12.3977    1.0000 </r>
       <r>  -12.3413    1.0000 </r>
       <r>  -12.3357    1.0000 </r>
       <r>  -12.3140    1.0000 </r>
       <r>  -12.3130    1.0000 </r>
       <r>  -12.3121    1.0000 </r>
       <r>  -12.3019    1.0000 </r>
       <r>  -12.2964    1.0000 </r>
       <r>  -12.2795    1.0000 </r>
       <r>  -12.2748    1.0000 </r>
       <r>  -12.2730    1.0000 </r>
       <r>  -12.2605    1.0000 </r>
       <r>  -12.2585    1.0000 </r>
       <r>  -12.2563    1.0000 </r>
       <r>  -12.2552    1.0000 </r>
       <r>  -12.2437    1.0000 </r>
       <r>  -12.2414    1.0000 </r>
       <r>  -10.3657    1.0000 </r>
       <r>  -10.2180    1.0000 </r>
       <r>  -10.1281    1.0000 </r>
       <r>  -10.1057    1.0000 </r>
       <r>  -10.0918    1.0000 </r>
       <r>  -10.0912    1.0000 </r>
       <r>   -9.7199    1.0000 </r>
       <r>   -9.7194    1.0000 </r>
       <r>   -5.7781    1.0000 </r>
       <r>   -5.7077    1.0000 </r>
       <r>   -5.6101    1.0000 </r>
       <r>   -5.4811    1.0000 </r>
       <r>   -5.4749    1.0000 </r>
       <r>   -5.4226    1.0000 </r>
       <r>   -5.3904    1.0000 </r>
       <r>   -5.3750    1.0000 </r>
       <r>   -5.3176    1.0000 </r>
       <r>   -5.3169    1.0000 </r>
       <r>   -5.3106    1.0000 </r>
       <r>   -5.2619    1.0000 </r>
       <r>   -5.2600    1.0000 </r>
       <r>   -5.2451    1.0000 </r>
       <r>   -5.2032    1.0000 </r>
       <r>   -5.1931    1.0000 </r>
       <r>   -5.1875    1.0000 </r>
       <r>   -5.1467    1.0000 </r>
       <r>   -5.0242    1.0000 </r>
       <r>   -5.0056    1.0000 </r>
       <r>   -4.9521    1.0000 </r>
       <r>   -4.8947    1.0000 </r>
       <r>   -4.6785    1.0000 </r>
       <r>   -4.6781    1.0000 </r>
       <r>   -2.9956    1.0000 </r>
       <r>   -2.5798    1.0000 </r>
       <r>   -2.2633    1.0000 </r>
       <r>   -2.0822    1.0000 </r>
       <r>   -2.0427    1.0000 </r>
       <r>   -2.0259    1.0000 </r>
       <r>   -1.9005    1.0000 </r>
       <r>   -1.7168    1.0000 </r>
       <r>   -1.6704    1.0000 </r>
       <r>   -1.5414    1.0000 </r>
       <r>   -1.4580    1.0000 </r>
       <r>   -1.3810    1.0000 </r>
       <r>   -1.2876    1.0000 </r>
       <r>   -1.2672    1.0000 </r>
       <r>   -1.2454    1.0000 </r>
       <r>   -1.1395    1.0000 </r>
       <r>   -1.1077    1.0000 </r>
       <r>   -1.0981    1.0000 </r>
       <r>   -1.0733    1.0000 </r>
       <r>   -1.0636    1.0000 </r>
       <r>   -0.9934    1.0000 </r>
       <r>   -0.9740    1.0000 </r>
       <r>   -0.9482    1.0000 </r>
       <r>   -0.9298    1.0000 </r>
       <r>   -0.9046    1.0000 </r>
       <r>   -0.7547    1.0000 </r>
       <r>   -0.7446    1.0000 </r>
       <r>   -0.6929    1.0000 </r>
       <r>   -0.6546    1.0000 </r>
       <r>   -0.6516    1.0000 </r>
       <r>   -0.6359    1.0000 </r>
       <r>   -0.5763    1.0000 </r>
       <r>   -0.5761    1.0000 </r>
       <r>   -0.5698    1.0000 </r>
       <r>   -0.5020    1.0000 </r>
       <r>   -0.3356    1.0000 </r>
       <r>   -0.2959    1.0000 </r>
       <r>   -0.2554    1.0000 </r>
       <r>   -0.2386    1.0000 </r>
       <r>   -0.2016    1.0000 </r>
       <r>   -0.1837    1.0000 </r>
       <r>   -0.1130    1.0000 </r>
       <r>   -0.0724    1.0000 </r>
       <r>   -0.0063    1.0000 </r>
       <r>    0.0889    1.0000 </r>
       <r>    0.1108    1.0000 </r>
       <r>    0.1478    1.0000 </r>
       <r>    0.1984    1.0000 </r>
       <r>    1.4061    0.0000 </r>
       <r>    1.5111    0.0000 </r>
       <r>    1.5880    0.0000 </r>
       <r>    1.6025    0.0000 </r>
       <r>    1.6685    0.0000 </r>
       <r>    1.6729    0.0000 </r>
       <r>    1.6800    0.0000 </r>
       <r>    1.7128    0.0000 </r>
       <r>    1.8385    0.0000 </r>
       <r>    1.8636    0.0000 </r>
       <r>    1.9319    0.0000 </r>
       <r>    1.9360    0.0000 </r>
       <r>    2.0457    0.0000 </r>
       <r>    2.0816    0.0000 </r>
       <r>    2.1352    0.0000 </r>
       <r>    2.2658    0.0000 </r>
       <r>    2.2661    0.0000 </r>
       <r>    2.2910    0.0000 </r>
       <r>    2.2925    0.0000 </r>
       <r>    2.4038    0.0000 </r>
       <r>    2.5901    0.0000 </r>
       <r>    2.6397    0.0000 </r>
       <r>    2.6415    0.0000 </r>
       <r>    2.7084    0.0000 </r>
       <r>    2.7911    0.0000 </r>
       <r>    2.8394    0.0000 </r>
       <r>    2.8639    0.0000 </r>
       <r>    2.9987    0.0000 </r>
       <r>    3.0521    0.0000 </r>
       <r>    3.0814    0.0000 </r>
       <r>    3.1186    0.0000 </r>
       <r>    3.1365    0.0000 </r>
      </set>
      <set comment="kpoint 2">
       <r>  -28.1485    1.0000 </r>
       <r>  -28.1483    1.0000 </r>
       <r>  -27.1667    1.0000 </r>
       <r>  -27.1662    1.0000 </r>
       <r>  -27.1606    1.0000 </r>
       <r>  -27.1601    1.0000 </r>
       <r>  -27.1320    1.0000 </r>
       <r>  -27.1316    1.0000 </r>
       <r>  -27.0686    1.0000 </r>
       <r>  -27.0630    1.0000 </r>
       <r>  -27.0193    1.0000 </r>
       <r>  -27.0190    1.0000 </r>
       <r>  -27.0058    1.0000 </r>
       <r>  -27.0056    1.0000 </r>
       <r>  -26.9611    1.0000 </r>
       <r>  -26.9607    1.0000 </r>
       <r>  -13.5249    1.0000 </r>
       <r>  -13.5247    1.0000 </r>
       <r>  -13.4515    1.0000 </r>
       <r>  -13.4512    1.0000 </r>
       <r>  -13.3616    1.0000 </r>
       <r>  -13.3613    1.0000 </r>
       <r>  -12.7786    1.0000 </r>
       <r>  -12.7746    1.0000 </r>
       <r>  -12.7049    1.0000 </r>
       <r>  -12.6658    1.0000 </r>
       <r>  -12.6534    1.0000 </r>
       <r>  -12.6364    1.0000 </r>
       <r>  -12.6167    1.0000 </r>
       <r>  -12.6040    1.0000 </r>
       <r>  -12.5757    1.0000 </r>
       <r>  -12.5697    1.0000 </r>
       <r>  -12.5549    1.0000 </r>
       <r>  -12.5473    1.0000 </r>
       <r>  -12.5443    1.0000 </r>
       <r>  -12.5273    1.0000 </r>
       <r>  -12.5226    1.0000 </r>
       <r>  -12.5178    1.0000 </r>
       <r>  -12.5073    1.0000 </r>
       <r>  -12.4951    1.0000 </r>
       <r>  -12.4932    1.0000 </r>
       <r>  -12.4857    1.0000 </r>
       <r>  -12.4833    1.0000 </r>
       <r>  -12.4801    1.0000 </r>
       <r>  -12.4718    1.0000 </r>
       <r>  -12.4292    1.0000 </r>
       <r>  -12.4267    1.0000 </r>
       <r>  -12.3975    1.0000 </r>
       <r>  -12.3413    1.0000 </r>
       <r>  -12.3358    1.0000 </r>
       <r>  -12.3140    1.0000 </r>
       <r>  -12.3138    1.0000 </r>
       <r>  -12.3110    1.0000 </r>
       <r>  -12.3030    1.0000 </r>
       <r>  -12.2952    1.0000 </r>
       <r>  -12.2794    1.0000 </r>
       <r>  -12.2746    1.0000 </r>
       <r>  -12.2731    1.0000 </r>
       <r>  -12.2606    1.0000 </r>
       <r>  -12.2584    1.0000 </r>
       <r>  -12.2570    1.0000 </r>
       <r>  -12.2543    1.0000 </r>
       <r>  -12.2435    1.0000 </r>
       <r>  -12.2415    1.0000 </r>
       <r>  -10.3643    1.0000 </r>
       <r>  -10.2172    1.0000 </r>
       <r>  -10.1278    1.0000 </r>
       <r>  -10.1053    1.0000 </r>
       <r>  -10.0915    1.0000 </r>
       <r>  -10.0911    1.0000 </r>
       <r>   -9.7195    1.0000 </r>
       <r>   -9.7190    1.0000 </r>
       <r>   -5.7761    1.0000 </r>
       <r>   -5.7066    1.0000 </r>
       <r>   -5.6090    1.0000 </r>
       <r>   -5.4802    1.0000 </r>
       <r>   -5.4784    1.0000 </r>
       <r>   -5.4185    1.0000 </r>
       <r>   -5.3905    1.0000 </r>
       <r>   -5.3741    1.0000 </r>
       <r>   -5.3179    1.0000 </r>
       <r>   -5.3169    1.0000 </r>
       <r>   -5.3129    1.0000 </r>
       <r>   -5.2656    1.0000 </r>
       <r>   -5.2601    1.0000 </r>
       <r>   -5.2402    1.0000 </r>
       <r>   -5.2085    1.0000 </r>
       <r>   -5.1897    1.0000 </r>
       <r>   -5.1871    1.0000 </r>
       <r>   -5.1497    1.0000 </r>
       <r>   -5.0231    1.0000 </r>
       <r>   -5.0049    1.0000 </r>
       <r>   -4.9514    1.0000 </r>
       <r>   -4.8948    1.0000 </r>
       <r>   -4.6805    1.0000 </r>
       <r>   -4.6799    1.0000 </r>
       <r>   -2.9889    1.0000 </r>
       <r>   -2.5747    1.0000 </r>
       <r>   -2.2594    1.0000 </r>
       <r>   -2.0783    1.0000 </r>
       <r>   -2.0402    1.0000 </r>
       <r>   -2.0235    1.0000 </r>
       <r>   -1.9004    1.0000 </r>
       <r>   -1.7148    1.0000 </r>
       <r>   -1.6699    1.0000 </r>
       <r>   -1.5408    1.0000 </r>
       <r>   -1.4587    1.0000 </r>
       <r>   -1.3852    1.0000 </r>
       <r>   -1.2955    1.0000 </r>
       <r>   -1.2669    1.0000 </r>
       <r>   -1.2371    1.0000 </r>
       <r>   -1.1362    1.0000 </r>
       <r>   -1.1141    1.0000 </r>
       <r>   -1.0950    1.0000 </r>
       <r>   -1.0739    1.0000 </r>
       <r>   -1.0679    1.0000 </r>
       <r>   -0.9945    1.0000 </r>
       <r>   -0.9724    1.0000 </r>
       <r>   -0.9485    1.0000 </r>
       <r>   -0.9285    1.0000 </r>
       <r>   -0.9067    1.0000 </r>
       <r>   -0.7610    1.0000 </r>
       <r>   -0.7459    1.0000 </r>
       <r>   -0.6934    1.0000 </r>
       <r>   -0.6638    1.0000 </r>
       <r>   -0.6440    1.0000 </r>
       <r>   -0.6338    1.0000 </r>
       <r>   -0.5795    1.0000 </r>
       <r>   -0.5695    1.0000 </r>
       <r>   -0.5676    1.0000 </r>
       <r>   -0.5003    1.0000 </r>
       <r>   -0.3353    1.0000 </r>
       <r>   -0.3002    1.0000 </r>
       <r>   -0.2516    1.0000 </r>
       <r>   -0.2410    1.0000 </r>
       <r>   -0.2035    1.0000 </r>
       <r>   -0.1858    1.0000 </r>
       <r>   -0.1118    1.0000 </r>
       <r>   -0.0809    1.0000 </r>
       <r>   -0.0093    1.0000 </r>
       <r>    0.0893    1.0000 </r>
       <r>    0.1101    1.0000 </r>
       <r>    0.1538    1.0000 </r>
       <r>    0.1996    1.0000 </r>
       <r>    1.4062    0.0000 </r>
       <r>    1.5017    0.0000 </r>
       <r>    1.5808    0.0000 </r>
       <r>    1.6056    0.0000 </r>
       <r>    1.6590    0.0000 </r>
       <r>    1.6700    0.0000 </r>
       <r>    1.6859    0.0000 </r>
       <r>    1.7181    0.0000 </r>
       <r>    1.8402    0.0000 </r>
       <r>    1.8595    0.0000 </r>
       <r>    1.9361    0.0000 </r>
       <r>    1.9381    0.0000 </r>
       <r>    2.0496    0.0000 </r>
       <r>    2.0759    0.0000 </r>
       <r>    2.1401    0.0000 </r>
       <r>    2.2493    0.0000 </r>
       <r>    2.2660    0.0000 </r>
       <r>    2.2816    0.0000 </r>
       <r>    2.2987    0.0000 </r>
       <r>    2.4146    0.0000 </r>
       <r>    2.5804    0.0000 </r>
       <r>    2.6417    0.0000 </r>
       <r>    2.6525    0.0000 </r>
       <r>    2.6988    0.0000 </r>
       <r>    2.7961    0.0000 </r>
       <r>    2.8453    0.0000 </r>
       <r>    2.8658    0.0000 </r>
       <r>    2.9851    0.0000 </r>
       <r>    3.0542    0.0000 </r>
       <r>    3.0965    0.0000 </r>
       <r>    3.1165    0.0000 </r>
       <r>    3.1355    0.0000 </r>
      </set>
      <set comment="kpoint 3">
       <r>  -28.1485    1.0000 </r>
       <r>  -28.1482    1.0000 </r>
       <r>  -27.1667    1.0000 </r>
       <r>  -27.1662    1.0000 </r>
       <r>  -27.1606    1.0000 </r>
       <r>  -27.1601    1.0000 </r>
       <r>  -27.1320    1.0000 </r>
       <r>  -27.1316    1.0000 </r>
       <r>  -27.0686    1.0000 </r>
       <r>  -27.0630    1.0000 </r>
       <r>  -27.0194    1.0000 </r>
       <r>  -27.0190    1.0000 </r>
       <r>  -27.0059    1.0000 </r>
       <r>  -27.0056    1.0000 </r>
       <r>  -26.9611    1.0000 </r>
       <r>  -26.9607    1.0000 </r>
       <r>  -13.5248    1.0000 </r>
       <r>  -13.5245    1.0000 </r>
       <r>  -13.4516    1.0000 </r>
       <r>  -13.4514    1.0000 </r>
       <r>  -13.3623    1.0000 </r>
       <r>  -13.3620    1.0000 </r>
       <r>  -12.7782    1.0000 </r>
       <r>  -12.7747    1.0000 </r>
       <r>  -12.7059    1.0000 </r>
       <r>  -12.6712    1.0000 </r>
       <r>  -12.6550    1.0000 </r>
       <r>  -12.6295    1.0000 </r>
       <r>  -12.6188    1.0000 </r>
       <r>  -12.6017    1.0000 </r>
       <r>  -12.5762    1.0000 </r>
       <r>  -12.5734    1.0000 </r>
       <r>  -12.5569    1.0000 </r>
       <r>  -12.5504    1.0000 </r>
       <r>  -12.5445    1.0000 </r>
       <r>  -12.5316    1.0000 </r>
       <r>  -12.5240    1.0000 </r>
       <r>  -12.5166    1.0000 </r>
       <r>  -12.5104    1.0000 </r>
       <r>  -12.4973    1.0000 </r>
       <r>  -12.4957    1.0000 </r>
       <r>  -12.4899    1.0000 </r>
       <r>  -12.4772    1.0000 </r>
       <r>  -12.4765    1.0000 </r>
       <r>  -12.4678    1.0000 </r>
       <r>  -12.4280    1.0000 </r>
       <r>  -12.4239    1.0000 </r>
       <r>  -12.3967    1.0000 </r>
       <r>  -12.3413    1.0000 </r>
       <r>  -12.3362    1.0000 </r>
       <r>  -12.3149    1.0000 </r>
       <r>  -12.3137    1.0000 </r>
       <r>  -12.3095    1.0000 </r>
       <r>  -12.3050    1.0000 </r>
       <r>  -12.2928    1.0000 </r>
       <r>  -12.2791    1.0000 </r>
       <r>  -12.2738    1.0000 </r>
       <r>  -12.2732    1.0000 </r>
       <r>  -12.2607    1.0000 </r>
       <r>  -12.2584    1.0000 </r>
       <r>  -12.2577    1.0000 </r>
       <r>  -12.2529    1.0000 </r>
       <r>  -12.2431    1.0000 </r>
       <r>  -12.2419    1.0000 </r>
       <r>  -10.3600    1.0000 </r>
       <r>  -10.2149    1.0000 </r>
       <r>  -10.1270    1.0000 </r>
       <r>  -10.1041    1.0000 </r>
       <r>  -10.0909    1.0000 </r>
       <r>  -10.0908    1.0000 </r>
       <r>   -9.7182    1.0000 </r>
       <r>   -9.7177    1.0000 </r>
       <r>   -5.7704    1.0000 </r>
       <r>   -5.7034    1.0000 </r>
       <r>   -5.6057    1.0000 </r>
       <r>   -5.4885    1.0000 </r>
       <r>   -5.4758    1.0000 </r>
       <r>   -5.4086    1.0000 </r>
       <r>   -5.3912    1.0000 </r>
       <r>   -5.3712    1.0000 </r>
       <r>   -5.3205    1.0000 </r>
       <r>   -5.3185    1.0000 </r>
       <r>   -5.3151    1.0000 </r>
       <r>   -5.2754    1.0000 </r>
       <r>   -5.2561    1.0000 </r>
       <r>   -5.2324    1.0000 </r>
       <r>   -5.2185    1.0000 </r>
       <r>   -5.1860    1.0000 </r>
       <r>   -5.1849    1.0000 </r>
       <r>   -5.1587    1.0000 </r>
       <r>   -5.0199    1.0000 </r>
       <r>   -5.0029    1.0000 </r>
       <r>   -4.9494    1.0000 </r>
       <r>   -4.8951    1.0000 </r>
       <r>   -4.6868    1.0000 </r>
       <r>   -4.6850    1.0000 </r>
       <r>   -2.9691    1.0000 </r>
       <r>   -2.5598    1.0000 </r>
       <r>   -2.2479    1.0000 </r>
       <r>   -2.0669    1.0000 </r>
       <r>   -2.0326    1.0000 </r>
       <r>   -2.0164    1.0000 </r>
       <r>   -1.9000    1.0000 </r>
       <r>   -1.7087    1.0000 </r>
       <r>   -1.6686    1.0000 </r>
       <r>   -1.5389    1.0000 </r>
       <r>   -1.4606    1.0000 </r>
       <r>   -1.3977    1.0000 </r>
       <r>   -1.3077    1.0000 </r>
       <r>   -1.2661    1.0000 </r>
       <r>   -1.2228    1.0000 </r>
       <r>   -1.1282    1.0000 </r>
       <r>   -1.1271    1.0000 </r>
       <r>   -1.0919    1.0000 </r>
       <r>   -1.0809    1.0000 </r>
       <r>   -1.0729    1.0000 </r>
       <r>   -0.9979    1.0000 </r>
       <r>   -0.9685    1.0000 </r>
       <r>   -0.9497    1.0000 </r>
       <r>   -0.9252    1.0000 </r>
       <r>   -0.9124    1.0000 </r>
       <r>   -0.7772    1.0000 </r>
       <r>   -0.7501    1.0000 </r>
       <r>   -0.6954    1.0000 </r>
       <r>   -0.6754    1.0000 </r>
       <r>   -0.6366    1.0000 </r>
       <r>   -0.6297    1.0000 </r>
       <r>   -0.5757    1.0000 </r>
       <r>   -0.5680    1.0000 </r>
       <r>   -0.5557    1.0000 </r>
       <r>   -0.4960    1.0000 </r>
       <r>   -0.3344    1.0000 </r>
       <r>   -0.3088    1.0000 </r>
       <r>   -0.2498    1.0000 </r>
       <r>   -0.2483    1.0000 </r>
       <r>   -0.2043    1.0000 </r>
       <r>   -0.1910    1.0000 </r>
       <r>   -0.1090    1.0000 </r>
       <r>   -0.1036    1.0000 </r>
       <r>   -0.0175    1.0000 </r>
       <r>    0.0909    1.0000 </r>
       <r>    0.1082    1.0000 </r>
       <r>    0.1686    1.0000 </r>
       <r>    0.2029    1.0000 </r>
       <r>    1.4062    0.0000 </r>
       <r>    1.4760    0.0000 </r>
       <r>    1.5620    0.0000 </r>
       <r>    1.6144    0.0000 </r>
       <r>    1.6456    0.0000 </r>
       <r>    1.6505    0.0000 </r>
       <r>    1.7040    0.0000 </r>
       <r>    1.7290    0.0000 </r>
       <r>    1.8431    0.0000 </r>
       <r>    1.8496    0.0000 </r>
       <r>    1.9357    0.0000 </r>
       <r>    1.9545    0.0000 </r>
       <r>    2.0580    0.0000 </r>
       <r>    2.0632    0.0000 </r>
       <r>    2.1528    0.0000 </r>
       <r>    2.2100    0.0000 </r>
       <r>    2.2589    0.0000 </r>
       <r>    2.2675    0.0000 </r>
       <r>    2.3123    0.0000 </r>
       <r>    2.4372    0.0000 </r>
       <r>    2.5638    0.0000 </r>
       <r>    2.6470    0.0000 </r>
       <r>    2.6731    0.0000 </r>
       <r>    2.6778    0.0000 </r>
       <r>    2.8043    0.0000 </r>
       <r>    2.8603    0.0000 </r>
       <r>    2.8688    0.0000 </r>
       <r>    2.9527    0.0000 </r>
       <r>    3.0553    0.0000 </r>
       <r>    3.0778    0.0000 </r>
       <r>    3.1001    0.0000 </r>
       <r>    3.2276    0.0000 </r>
      </set>
      <set comment="kpoint 4">
       <r>  -28.1485    1.0000 </r>
       <r>  -28.1482    1.0000 </r>
       <r>  -27.1667    1.0000 </r>
       <r>  -27.1662    1.0000 </r>
       <r>  -27.1606    1.0000 </r>
       <r>  -27.1601    1.0000 </r>
       <r>  -27.1319    1.0000 </r>
       <r>  -27.1315    1.0000 </r>
       <r>  -27.0685    1.0000 </r>
       <r>  -27.0630    1.0000 </r>
       <r>  -27.0195    1.0000 </r>
       <r>  -27.0191    1.0000 </r>
       <r>  -27.0059    1.0000 </r>
       <r>  -27.0057    1.0000 </r>
       <r>  -26.9612    1.0000 </r>
       <r>  -26.9607    1.0000 </r>
       <r>  -13.5246    1.0000 </r>
       <r>  -13.5243    1.0000 </r>
       <r>  -13.4518    1.0000 </r>
       <r>  -13.4516    1.0000 </r>
       <r>  -13.3634    1.0000 </r>
       <r>  -13.3632    1.0000 </r>
       <r>  -12.7778    1.0000 </r>
       <r>  -12.7748    1.0000 </r>
       <r>  -12.7075    1.0000 </r>
       <r>  -12.6776    1.0000 </r>
       <r>  -12.6564    1.0000 </r>
       <r>  -12.6217    1.0000 </r>
       <r>  -12.6210    1.0000 </r>
       <r>  -12.5995    1.0000 </r>
       <r>  -12.5790    1.0000 </r>
       <r>  -12.5771    1.0000 </r>
       <r>  -12.5609    1.0000 </r>
       <r>  -12.5544    1.0000 </r>
       <r>  -12.5451    1.0000 </r>
       <r>  -12.5350    1.0000 </r>
       <r>  -12.5267    1.0000 </r>
       <r>  -12.5175    1.0000 </r>
       <r>  -12.5163    1.0000 </r>
       <r>  -12.4987    1.0000 </r>
       <r>  -12.4953    1.0000 </r>
       <r>  -12.4948    1.0000 </r>
       <r>  -12.4714    1.0000 </r>
       <r>  -12.4703    1.0000 </r>
       <r>  -12.4642    1.0000 </r>
       <r>  -12.4301    1.0000 </r>
       <r>  -12.4166    1.0000 </r>
       <r>  -12.3954    1.0000 </r>
       <r>  -12.3413    1.0000 </r>
       <r>  -12.3368    1.0000 </r>
       <r>  -12.3157    1.0000 </r>
       <r>  -12.3138    1.0000 </r>
       <r>  -12.3076    1.0000 </r>
       <r>  -12.3067    1.0000 </r>
       <r>  -12.2903    1.0000 </r>
       <r>  -12.2787    1.0000 </r>
       <r>  -12.2733    1.0000 </r>
       <r>  -12.2725    1.0000 </r>
       <r>  -12.2609    1.0000 </r>
       <r>  -12.2584    1.0000 </r>
       <r>  -12.2581    1.0000 </r>
       <r>  -12.2514    1.0000 </r>
       <r>  -12.2426    1.0000 </r>
       <r>  -12.2423    1.0000 </r>
       <r>  -10.3531    1.0000 </r>
       <r>  -10.2112    1.0000 </r>
       <r>  -10.1256    1.0000 </r>
       <r>  -10.1023    1.0000 </r>
       <r>  -10.0906    1.0000 </r>
       <r>  -10.0895    1.0000 </r>
       <r>   -9.7161    1.0000 </r>
       <r>   -9.7156    1.0000 </r>
       <r>   -5.7609    1.0000 </r>
       <r>   -5.6982    1.0000 </r>
       <r>   -5.6004    1.0000 </r>
       <r>   -5.5002    1.0000 </r>
       <r>   -5.4696    1.0000 </r>
       <r>   -5.3962    1.0000 </r>
       <r>   -5.3934    1.0000 </r>
       <r>   -5.3666    1.0000 </r>
       <r>   -5.3260    1.0000 </r>
       <r>   -5.3233    1.0000 </r>
       <r>   -5.3123    1.0000 </r>
       <r>   -5.2858    1.0000 </r>
       <r>   -5.2542    1.0000 </r>
       <r>   -5.2283    1.0000 </r>
       <r>   -5.2252    1.0000 </r>
       <r>   -5.1842    1.0000 </r>
       <r>   -5.1803    1.0000 </r>
       <r>   -5.1728    1.0000 </r>
       <r>   -5.0148    1.0000 </r>
       <r>   -4.9995    1.0000 </r>
       <r>   -4.9463    1.0000 </r>
       <r>   -4.8956    1.0000 </r>
       <r>   -4.6968    1.0000 </r>
       <r>   -4.6931    1.0000 </r>
       <r>   -2.9371    1.0000 </r>
       <r>   -2.5354    1.0000 </r>
       <r>   -2.2291    1.0000 </r>
       <r>   -2.0487    1.0000 </r>
       <r>   -2.0202    1.0000 </r>
       <r>   -2.0046    1.0000 </r>
       <r>   -1.8992    1.0000 </r>
       <r>   -1.6990    1.0000 </r>
       <r>   -1.6681    1.0000 </r>
       <r>   -1.5357    1.0000 </r>
       <r>   -1.4632    1.0000 </r>
       <r>   -1.4162    1.0000 </r>
       <r>   -1.3159    1.0000 </r>
       <r>   -1.2645    1.0000 </r>
       <r>   -1.2110    1.0000 </r>
       <r>   -1.1441    1.0000 </r>
       <r>   -1.1204    1.0000 </r>
       <r>   -1.0946    1.0000 </r>
       <r>   -1.0909    1.0000 </r>
       <r>   -1.0711    1.0000 </r>
       <r>   -1.0039    1.0000 </r>
       <r>   -0.9637    1.0000 </r>
       <r>   -0.9519    1.0000 </r>
       <r>   -0.9212    1.0000 </r>
       <r>   -0.9206    1.0000 </r>
       <r>   -0.7997    1.0000 </r>
       <r>   -0.7577    1.0000 </r>
       <r>   -0.6996    1.0000 </r>
       <r>   -0.6873    1.0000 </r>
       <r>   -0.6305    1.0000 </r>
       <r>   -0.6264    1.0000 </r>
       <r>   -0.5664    1.0000 </r>
       <r>   -0.5645    1.0000 </r>
       <r>   -0.5415    1.0000 </r>
       <r>   -0.4908    1.0000 </r>
       <r>   -0.3328    1.0000 </r>
       <r>   -0.3186    1.0000 </r>
       <r>   -0.2608    1.0000 </r>
       <r>   -0.2604    1.0000 </r>
       <r>   -0.1977    1.0000 </r>
       <r>   -0.1974    1.0000 </r>
       <r>   -0.1340    1.0000 </r>
       <r>   -0.1066    1.0000 </r>
       <r>   -0.0290    1.0000 </r>
       <r>    0.0933    1.0000 </r>
       <r>    0.1059    1.0000 </r>
       <r>    0.1868    1.0000 </r>
       <r>    0.2070    1.0000 </r>
       <r>    1.4054    0.0000 </r>
       <r>    1.4393    0.0000 </r>
       <r>    1.5374    0.0000 </r>
       <r>    1.6113    0.0000 </r>
       <r>    1.6284    0.0000 </r>
       <r>    1.6451    0.0000 </r>
       <r>    1.7241    0.0000 </r>
       <r>    1.7416    0.0000 </r>
       <r>    1.8389    0.0000 </r>
       <r>    1.8419    0.0000 </r>
       <r>    1.9330    0.0000 </r>
       <r>    1.9764    0.0000 </r>
       <r>    2.0493    0.0000 </r>
       <r>    2.0636    0.0000 </r>
       <r>    2.1639    0.0000 </r>
       <r>    2.1701    0.0000 </r>
       <r>    2.2341    0.0000 </r>
       <r>    2.2647    0.0000 </r>
       <r>    2.3324    0.0000 </r>
       <r>    2.4602    0.0000 </r>
       <r>    2.5502    0.0000 </r>
       <r>    2.6489    0.0000 </r>
       <r>    2.6554    0.0000 </r>
       <r>    2.6939    0.0000 </r>
       <r>    2.8068    0.0000 </r>
       <r>    2.8670    0.0000 </r>
       <r>    2.8751    0.0000 </r>
       <r>    2.9258    0.0000 </r>
       <r>    3.0216    0.0000 </r>
       <r>    3.0748    0.0000 </r>
       <r>    3.0908    0.0000 </r>
       <r>    3.1515    0.0000 </r>
      </set>
      <set comment="kpoint 5">
       <r>  -28.1485    1.0000 </r>
       <r>  -28.1482    1.0000 </r>
       <r>  -27.1666    1.0000 </r>
       <r>  -27.1662    1.0000 </r>
       <r>  -27.1605    1.0000 </r>
       <r>  -27.1600    1.0000 </r>
       <r>  -27.1318    1.0000 </r>
       <r>  -27.1314    1.0000 </r>
       <r>  -27.0683    1.0000 </r>
       <r>  -27.0630    1.0000 </r>
       <r>  -27.0196    1.0000 </r>
       <r>  -27.0192    1.0000 </r>
       <r>  -27.0060    1.0000 </r>
       <r>  -27.0058    1.0000 </r>
       <r>  -26.9612    1.0000 </r>
       <r>  -26.9608    1.0000 </r>
       <r>  -13.5242    1.0000 </r>
       <r>  -13.5240    1.0000 </r>
       <r>  -13.4521    1.0000 </r>
       <r>  -13.4519    1.0000 </r>
       <r>  -13.3650    1.0000 </r>
       <r>  -13.3647    1.0000 </r>
       <r>  -12.7771    1.0000 </r>
       <r>  -12.7751    1.0000 </r>
       <r>  -12.7096    1.0000 </r>
       <r>  -12.6841    1.0000 </r>
       <r>  -12.6579    1.0000 </r>
       <r>  -12.6229    1.0000 </r>
       <r>  -12.6140    1.0000 </r>
       <r>  -12.5984    1.0000 </r>
       <r>  -12.5862    1.0000 </r>
       <r>  -12.5785    1.0000 </r>
       <r>  -12.5671    1.0000 </r>
       <r>  -12.5583    1.0000 </r>
       <r>  -12.5463    1.0000 </r>
       <r>  -12.5365    1.0000 </r>
       <r>  -12.5314    1.0000 </r>
       <r>  -12.5254    1.0000 </r>
       <r>  -12.5166    1.0000 </r>
       <r>  -12.5015    1.0000 </r>
       <r>  -12.4982    1.0000 </r>
       <r>  -12.4929    1.0000 </r>
       <r>  -12.4661    1.0000 </r>
       <r>  -12.4636    1.0000 </r>
       <r>  -12.4604    1.0000 </r>
       <r>  -12.4329    1.0000 </r>
       <r>  -12.4087    1.0000 </r>
       <r>  -12.3936    1.0000 </r>
       <r>  -12.3412    1.0000 </r>
       <r>  -12.3378    1.0000 </r>
       <r>  -12.3162    1.0000 </r>
       <r>  -12.3150    1.0000 </r>
       <r>  -12.3073    1.0000 </r>
       <r>  -12.3054    1.0000 </r>
       <r>  -12.2878    1.0000 </r>
       <r>  -12.2783    1.0000 </r>
       <r>  -12.2732    1.0000 </r>
       <r>  -12.2707    1.0000 </r>
       <r>  -12.2609    1.0000 </r>
       <r>  -12.2584    1.0000 </r>
       <r>  -12.2580    1.0000 </r>
       <r>  -12.2501    1.0000 </r>
       <r>  -12.2429    1.0000 </r>
       <r>  -12.2418    1.0000 </r>
       <r>  -10.3436    1.0000 </r>
       <r>  -10.2061    1.0000 </r>
       <r>  -10.1238    1.0000 </r>
       <r>  -10.0998    1.0000 </r>
       <r>  -10.0900    1.0000 </r>
       <r>  -10.0878    1.0000 </r>
       <r>   -9.7132    1.0000 </r>
       <r>   -9.7127    1.0000 </r>
       <r>   -5.7479    1.0000 </r>
       <r>   -5.6912    1.0000 </r>
       <r>   -5.5935    1.0000 </r>
       <r>   -5.5128    1.0000 </r>
       <r>   -5.4615    1.0000 </r>
       <r>   -5.3983    1.0000 </r>
       <r>   -5.3830    1.0000 </r>
       <r>   -5.3607    1.0000 </r>
       <r>   -5.3335    1.0000 </r>
       <r>   -5.3250    1.0000 </r>
       <r>   -5.3098    1.0000 </r>
       <r>   -5.2945    1.0000 </r>
       <r>   -5.2609    1.0000 </r>
       <r>   -5.2311    1.0000 </r>
       <r>   -5.2202    1.0000 </r>
       <r>   -5.1911    1.0000 </r>
       <r>   -5.1808    1.0000 </r>
       <r>   -5.1758    1.0000 </r>
       <r>   -5.0083    1.0000 </r>
       <r>   -4.9949    1.0000 </r>
       <r>   -4.9425    1.0000 </r>
       <r>   -4.8962    1.0000 </r>
       <r>   -4.7100    1.0000 </r>
       <r>   -4.7041    1.0000 </r>
       <r>   -2.8940    1.0000 </r>
       <r>   -2.5024    1.0000 </r>
       <r>   -2.2035    1.0000 </r>
       <r>   -2.0249    1.0000 </r>
       <r>   -2.0031    1.0000 </r>
       <r>   -1.9878    1.0000 </r>
       <r>   -1.8977    1.0000 </r>
       <r>   -1.6864    1.0000 </r>
       <r>   -1.6706    1.0000 </r>
       <r>   -1.5313    1.0000 </r>
       <r>   -1.4658    1.0000 </r>
       <r>   -1.4347    1.0000 </r>
       <r>   -1.3200    1.0000 </r>
       <r>   -1.2621    1.0000 </r>
       <r>   -1.2073    1.0000 </r>
       <r>   -1.1645    1.0000 </r>
       <r>   -1.1174    1.0000 </r>
       <r>   -1.1047    1.0000 </r>
       <r>   -1.0922    1.0000 </r>
       <r>   -1.0633    1.0000 </r>
       <r>   -1.0124    1.0000 </r>
       <r>   -0.9595    1.0000 </r>
       <r>   -0.9557    1.0000 </r>
       <r>   -0.9296    1.0000 </r>
       <r>   -0.9176    1.0000 </r>
       <r>   -0.8267    1.0000 </r>
       <r>   -0.7688    1.0000 </r>
       <r>   -0.7055    1.0000 </r>
       <r>   -0.6984    1.0000 </r>
       <r>   -0.6256    1.0000 </r>
       <r>   -0.6233    1.0000 </r>
       <r>   -0.5588    1.0000 </r>
       <r>   -0.5559    1.0000 </r>
       <r>   -0.5257    1.0000 </r>
       <r>   -0.4866    1.0000 </r>
       <r>   -0.3329    1.0000 </r>
       <r>   -0.3305    1.0000 </r>
       <r>   -0.2773    1.0000 </r>
       <r>   -0.2767    1.0000 </r>
       <r>   -0.2032    1.0000 </r>
       <r>   -0.1961    1.0000 </r>
       <r>   -0.1601    1.0000 </r>
       <r>   -0.1064    1.0000 </r>
       <r>   -0.0405    1.0000 </r>
       <r>    0.0954    1.0000 </r>
       <r>    0.1037    1.0000 </r>
       <r>    0.2044    1.0000 </r>
       <r>    0.2106    1.0000 </r>
       <r>    1.3975    0.0000 </r>
       <r>    1.4025    0.0000 </r>
       <r>    1.5131    0.0000 </r>
       <r>    1.5744    0.0000 </r>
       <r>    1.6419    0.0000 </r>
       <r>    1.6427    0.0000 </r>
       <r>    1.7432    0.0000 </r>
       <r>    1.7517    0.0000 </r>
       <r>    1.8332    0.0000 </r>
       <r>    1.8351    0.0000 </r>
       <r>    1.9233    0.0000 </r>
       <r>    1.9986    0.0000 </r>
       <r>    2.0345    0.0000 </r>
       <r>    2.0579    0.0000 </r>
       <r>    2.1307    0.0000 </r>
       <r>    2.1879    0.0000 </r>
       <r>    2.2130    0.0000 </r>
       <r>    2.2624    0.0000 </r>
       <r>    2.3550    0.0000 </r>
       <r>    2.4793    0.0000 </r>
       <r>    2.5424    0.0000 </r>
       <r>    2.6160    0.0000 </r>
       <r>    2.6560    0.0000 </r>
       <r>    2.7107    0.0000 </r>
       <r>    2.7999    0.0000 </r>
       <r>    2.8457    0.0000 </r>
       <r>    2.8610    0.0000 </r>
       <r>    2.9172    0.0000 </r>
       <r>    2.9531    0.0000 </r>
       <r>    3.0617    0.0000 </r>
       <r>    3.0666    0.0000 </r>
       <r>    3.1734    0.0000 </r>
      </set>
      <set comment="kpoint 6">
       <r>  -28.1485    1.0000 </r>
       <r>  -28.1482    1.0000 </r>
       <r>  -27.1666    1.0000 </r>
       <r>  -27.1661    1.0000 </r>
       <r>  -27.1605    1.0000 </r>
       <r>  -27.1600    1.0000 </r>
       <r>  -27.1317    1.0000 </r>
       <r>  -27.1313    1.0000 </r>
       <r>  -27.0681    1.0000 </r>
       <r>  -27.0629    1.0000 </r>
       <r>  -27.0197    1.0000 </r>
       <r>  -27.0194    1.0000 </r>
       <r>  -27.0061    1.0000 </r>
       <r>  -27.0059    1.0000 </r>
       <r>  -26.9613    1.0000 </r>
       <r>  -26.9608    1.0000 </r>
       <r>  -13.5238    1.0000 </r>
       <r>  -13.5236    1.0000 </r>
       <r>  -13.4525    1.0000 </r>
       <r>  -13.4522    1.0000 </r>
       <r>  -13.3669    1.0000 </r>
       <r>  -13.3666    1.0000 </r>
       <r>  -12.7764    1.0000 </r>
       <r>  -12.7754    1.0000 </r>
       <r>  -12.7121    1.0000 </r>
       <r>  -12.6901    1.0000 </r>
       <r>  -12.6596    1.0000 </r>
       <r>  -12.6246    1.0000 </r>
       <r>  -12.6070    1.0000 </r>
       <r>  -12.5987    1.0000 </r>
       <r>  -12.5943    1.0000 </r>
       <r>  -12.5812    1.0000 </r>
       <r>  -12.5745    1.0000 </r>
       <r>  -12.5607    1.0000 </r>
       <r>  -12.5483    1.0000 </r>
       <r>  -12.5395    1.0000 </r>
       <r>  -12.5363    1.0000 </r>
       <r>  -12.5305    1.0000 </r>
       <r>  -12.5172    1.0000 </r>
       <r>  -12.5083    1.0000 </r>
       <r>  -12.4975    1.0000 </r>
       <r>  -12.4908    1.0000 </r>
       <r>  -12.4614    1.0000 </r>
       <r>  -12.4574    1.0000 </r>
       <r>  -12.4560    1.0000 </r>
       <r>  -12.4361    1.0000 </r>
       <r>  -12.4010    1.0000 </r>
       <r>  -12.3915    1.0000 </r>
       <r>  -12.3411    1.0000 </r>
       <r>  -12.3394    1.0000 </r>
       <r>  -12.3173    1.0000 </r>
       <r>  -12.3162    1.0000 </r>
       <r>  -12.3064    1.0000 </r>
       <r>  -12.3030    1.0000 </r>
       <r>  -12.2854    1.0000 </r>
       <r>  -12.2780    1.0000 </r>
       <r>  -12.2729    1.0000 </r>
       <r>  -12.2687    1.0000 </r>
       <r>  -12.2608    1.0000 </r>
       <r>  -12.2582    1.0000 </r>
       <r>  -12.2573    1.0000 </r>
       <r>  -12.2489    1.0000 </r>
       <r>  -12.2433    1.0000 </r>
       <r>  -12.2410    1.0000 </r>
       <r>  -10.3319    1.0000 </r>
       <r>  -10.1999    1.0000 </r>
       <r>  -10.1215    1.0000 </r>
       <r>  -10.0972    1.0000 </r>
       <r>  -10.0889    1.0000 </r>
       <r>  -10.0856    1.0000 </r>
       <r>   -9.7096    1.0000 </r>
       <r>   -9.7091    1.0000 </r>
       <r>   -5.7317    1.0000 </r>
       <r>   -5.6828    1.0000 </r>
       <r>   -5.5856    1.0000 </r>
       <r>   -5.5255    1.0000 </r>
       <r>   -5.4520    1.0000 </r>
       <r>   -5.4067    1.0000 </r>
       <r>   -5.3706    1.0000 </r>
       <r>   -5.3553    1.0000 </r>
       <r>   -5.3393    1.0000 </r>
       <r>   -5.3246    1.0000 </r>
       <r>   -5.3114    1.0000 </r>
       <r>   -5.2968    1.0000 </r>
       <r>   -5.2738    1.0000 </r>
       <r>   -5.2284    1.0000 </r>
[...]
       <r>    1.6685    0.0000 </r>
       <r>    1.6729    0.0000 </r>
       <r>    1.6800    0.0000 </r>
       <r>    1.7128    0.0000 </r>
       <r>    1.8385    0.0000 </r>
       <r>    1.8636    0.0000 </r>
       <r>    1.9319    0.0000 </r>
       <r>    1.9360    0.0000 </r>
       <r>    2.0457    0.0000 </r>
       <r>    2.0816    0.0000 </r>
       <r>    2.1352    0.0000 </r>
       <r>    2.2658    0.0000 </r>
       <r>    2.2661    0.0000 </r>
       <r>    2.2910    0.0000 </r>
       <r>    2.2925    0.0000 </r>
       <r>    2.4038    0.0000 </r>
       <r>    2.5902    0.0000 </r>
       <r>    2.6397    0.0000 </r>
       <r>    2.6415    0.0000 </r>
       <r>    2.7083    0.0000 </r>
       <r>    2.7915    0.0000 </r>
       <r>    2.8407    0.0000 </r>
       <r>    2.8643    0.0000 </r>
       <r>    3.0011    0.0000 </r>
       <r>    3.0525    0.0000 </r>
       <r>    3.0805    0.0000 </r>
       <r>    3.1194    0.0000 </r>
       <r>    3.1590    0.0000 </r>
      </set>
     </set>
    </set>
   </array>
  </eigenvalues>
  <separator name="orbital magnetization" >
   <v name="MAGDIPOLOUT">      0.00000000      0.00000000      0.00000000</v>
  </separator>
  <dos>
   <i name="efermi">      0.29215494 </i>
   <total>
    <array>
     <dimension dim="1">gridpoints</dimension>
     <dimension dim="2">spin</dimension>
     <field>energy</field>
     <field>total</field>
     <field>integrated</field>
     <set>
      <set comment="spin 1">
       <r>   -29.7195     0.0000     0.0000 </r>
       <r>   -29.6043     0.0000     0.0000 </r>
       <r>   -29.4891     0.0000     0.0000 </r>
       <r>   -29.3739     0.0000     0.0000 </r>
       <r>   -29.2587     0.0000     0.0000 </r>
       <r>   -29.1435     0.0000     0.0000 </r>
       <r>   -29.0283     0.0000     0.0000 </r>
       <r>   -28.9131     0.0000     0.0000 </r>
       <r>   -28.7979     0.0000     0.0000 </r>
       <r>   -28.6827     0.0000     0.0000 </r>
       <r>   -28.5674     0.0000     0.0000 </r>
       <r>   -28.4522     0.0000     0.0000 </r>
       <r>   -28.3370     0.0000     0.0000 </r>
       <r>   -28.2218     0.0000     0.0000 </r>
       <r>   -28.1066    34.7198     4.0000 </r>
       <r>   -27.9914     0.0000     4.0000 </r>
       <r>   -27.8762     0.0000     4.0000 </r>
       <r>   -27.7610     0.0000     4.0000 </r>
       <r>   -27.6458     0.0000     4.0000 </r>
       <r>   -27.5306     0.0000     4.0000 </r>
       <r>   -27.4154     0.0000     4.0000 </r>
       <r>   -27.3002     0.0000     4.0000 </r>
       <r>   -27.1850     0.1416     4.0163 </r>
       <r>   -27.0697    43.3654    16.9960 </r>
       <r>   -26.9545    98.3529    31.3310 </r>
       <r>   -26.8393     0.0000    32.0000 </r>
       <r>   -26.7241     0.0000    32.0000 </r>
       <r>   -26.6089     0.0000    32.0000 </r>
       <r>   -26.4937     0.0000    32.0000 </r>
       <r>   -26.3785     0.0000    32.0000 </r>
       <r>   -26.2633     0.0000    32.0000 </r>
       <r>   -26.1481     0.0000    32.0000 </r>
       <r>   -26.0329     0.0000    32.0000 </r>
       <r>   -25.9177     0.0000    32.0000 </r>
       <r>   -25.8025     0.0000    32.0000 </r>
       <r>   -25.6872     0.0000    32.0000 </r>
       <r>   -25.5720     0.0000    32.0000 </r>
       <r>   -25.4568     0.0000    32.0000 </r>
       <r>   -25.3416     0.0000    32.0000 </r>
       <r>   -25.2264     0.0000    32.0000 </r>
       <r>   -25.1112     0.0000    32.0000 </r>
       <r>   -24.9960     0.0000    32.0000 </r>
       <r>   -24.8808     0.0000    32.0000 </r>
       <r>   -24.7656     0.0000    32.0000 </r>
       <r>   -24.6504     0.0000    32.0000 </r>
       <r>   -24.5352     0.0000    32.0000 </r>
       <r>   -24.4200     0.0000    32.0000 </r>
       <r>   -24.3048     0.0000    32.0000 </r>
       <r>   -24.1895     0.0000    32.0000 </r>
       <r>   -24.0743     0.0000    32.0000 </r>
       <r>   -23.9591     0.0000    32.0000 </r>
       <r>   -23.8439     0.0000    32.0000 </r>
       <r>   -23.7287     0.0000    32.0000 </r>
       <r>   -23.6135     0.0000    32.0000 </r>
       <r>   -23.4983     0.0000    32.0000 </r>
       <r>   -23.3831     0.0000    32.0000 </r>
       <r>   -23.2679     0.0000    32.0000 </r>
       <r>   -23.1527     0.0000    32.0000 </r>
       <r>   -23.0375     0.0000    32.0000 </r>
       <r>   -22.9223     0.0000    32.0000 </r>
       <r>   -22.8070     0.0000    32.0000 </r>
       <r>   -22.6918     0.0000    32.0000 </r>
       <r>   -22.5766     0.0000    32.0000 </r>
       <r>   -22.4614     0.0000    32.0000 </r>
       <r>   -22.3462     0.0000    32.0000 </r>
       <r>   -22.2310     0.0000    32.0000 </r>
       <r>   -22.1158     0.0000    32.0000 </r>
       <r>   -22.0006     0.0000    32.0000 </r>
       <r>   -21.8854     0.0000    32.0000 </r>
       <r>   -21.7702     0.0000    32.0000 </r>
       <r>   -21.6550     0.0000    32.0000 </r>
       <r>   -21.5398     0.0000    32.0000 </r>
       <r>   -21.4246     0.0000    32.0000 </r>
       <r>   -21.3093     0.0000    32.0000 </r>
       <r>   -21.1941     0.0000    32.0000 </r>
       <r>   -21.0789     0.0000    32.0000 </r>
       <r>   -20.9637     0.0000    32.0000 </r>
       <r>   -20.8485     0.0000    32.0000 </r>
       <r>   -20.7333     0.0000    32.0000 </r>
       <r>   -20.6181     0.0000    32.0000 </r>
       <r>   -20.5029     0.0000    32.0000 </r>
       <r>   -20.3877     0.0000    32.0000 </r>
       <r>   -20.2725     0.0000    32.0000 </r>
       <r>   -20.1573     0.0000    32.0000 </r>
       <r>   -20.0421     0.0000    32.0000 </r>
       <r>   -19.9268     0.0000    32.0000 </r>
       <r>   -19.8116     0.0000    32.0000 </r>
       <r>   -19.6964     0.0000    32.0000 </r>
       <r>   -19.5812     0.0000    32.0000 </r>
       <r>   -19.4660     0.0000    32.0000 </r>
       <r>   -19.3508     0.0000    32.0000 </r>
       <r>   -19.2356     0.0000    32.0000 </r>
       <r>   -19.1204     0.0000    32.0000 </r>
       <r>   -19.0052     0.0000    32.0000 </r>
       <r>   -18.8900     0.0000    32.0000 </r>
       <r>   -18.7748     0.0000    32.0000 </r>
       <r>   -18.6596     0.0000    32.0000 </r>
       <r>   -18.5444     0.0000    32.0000 </r>
       <r>   -18.4291     0.0000    32.0000 </r>
       <r>   -18.3139     0.0000    32.0000 </r>
       <r>   -18.1987     0.0000    32.0000 </r>
       <r>   -18.0835     0.0000    32.0000 </r>
       <r>   -17.9683     0.0000    32.0000 </r>
       <r>   -17.8531     0.0000    32.0000 </r>
       <r>   -17.7379     0.0000    32.0000 </r>
       <r>   -17.6227     0.0000    32.0000 </r>
       <r>   -17.5075     0.0000    32.0000 </r>
       <r>   -17.3923     0.0000    32.0000 </r>
       <r>   -17.2771     0.0000    32.0000 </r>
       <r>   -17.1619     0.0000    32.0000 </r>
       <r>   -17.0466     0.0000    32.0000 </r>
       <r>   -16.9314     0.0000    32.0000 </r>
       <r>   -16.8162     0.0000    32.0000 </r>
       <r>   -16.7010     0.0000    32.0000 </r>
       <r>   -16.5858     0.0000    32.0000 </r>
       <r>   -16.4706     0.0000    32.0000 </r>
       <r>   -16.3554     0.0000    32.0000 </r>
       <r>   -16.2402     0.0000    32.0000 </r>
       <r>   -16.1250     0.0000    32.0000 </r>
       <r>   -16.0098     0.0000    32.0000 </r>
       <r>   -15.8946     0.0000    32.0000 </r>
       <r>   -15.7794     0.0000    32.0000 </r>
       <r>   -15.6642     0.0000    32.0000 </r>
       <r>   -15.5489     0.0000    32.0000 </r>
       <r>   -15.4337     0.0000    32.0000 </r>
       <r>   -15.3185     0.0000    32.0000 </r>
       <r>   -15.2033     0.0000    32.0000 </r>
       <r>   -15.0881     0.0000    32.0000 </r>
       <r>   -14.9729     0.0000    32.0000 </r>
       <r>   -14.8577     0.0000    32.0000 </r>
       <r>   -14.7425     0.0000    32.0000 </r>
       <r>   -14.6273     0.0000    32.0000 </r>
       <r>   -14.5121     0.0000    32.0000 </r>
       <r>   -14.3969     0.0000    32.0000 </r>
       <r>   -14.2817     0.0000    32.0000 </r>
       <r>   -14.1664     0.0000    32.0000 </r>
       <r>   -14.0512     0.0000    32.0000 </r>
       <r>   -13.9360     0.0000    32.0000 </r>
       <r>   -13.8208     0.0000    32.0000 </r>
       <r>   -13.7056     0.0000    32.0000 </r>
       <r>   -13.5904     0.0000    32.0000 </r>
       <r>   -13.4752    34.8340    36.0132 </r>
       <r>   -13.3600    29.1017    43.3528 </r>
       <r>   -13.2448     0.0000    44.0000 </r>
       <r>   -13.1296     0.0000    44.0000 </r>
       <r>   -13.0144     0.0000    44.0000 </r>
       <r>   -12.8992     0.0000    44.0000 </r>
       <r>   -12.7840     1.5689    44.1808 </r>
       <r>   -12.6687    53.8648    53.4807 </r>
       <r>   -12.5535   109.2958    70.5168 </r>
       <r>   -12.4383    99.7257    89.1892 </r>
       <r>   -12.3231    67.1960   100.6415 </r>
       <r>   -12.2079   182.0567   127.9994 </r>
       <r>   -12.0927     0.0000   128.0000 </r>
       <r>   -11.9775     0.0000   128.0000 </r>
       <r>   -11.8623     0.0000   128.0000 </r>
       <r>   -11.7471     0.0000   128.0000 </r>
       <r>   -11.6319     0.0000   128.0000 </r>
       <r>   -11.5167     0.0000   128.0000 </r>
       <r>   -11.4015     0.0000   128.0000 </r>
       <r>   -11.2862     0.0000   128.0000 </r>
       <r>   -11.1710     0.0000   128.0000 </r>
       <r>   -11.0558     0.0000   128.0000 </r>
       <r>   -10.9406     0.0000   128.0000 </r>
       <r>   -10.8254     0.0000   128.0000 </r>
       <r>   -10.7102     0.0000   128.0000 </r>
       <r>   -10.5950     0.0000   128.0000 </r>
       <r>   -10.4798     0.0000   128.0000 </r>
       <r>   -10.3646     0.7553   128.0870 </r>
       <r>   -10.2494     2.9286   128.7124 </r>
       <r>   -10.1342    18.7243   131.5072 </r>
       <r>   -10.0190    36.6716   139.9999 </r>
       <r>    -9.9038     0.0000   140.0000 </r>
       <r>    -9.7885     0.0000   140.0000 </r>
       <r>    -9.6733    19.7508   142.2755 </r>
       <r>    -9.5581     0.0000   144.0000 </r>
       <r>    -9.4429     0.0000   144.0000 </r>
       <r>    -9.3277     0.0000   144.0000 </r>
       <r>    -9.2125     0.0000   144.0000 </r>
       <r>    -9.0973     0.0000   144.0000 </r>
       <r>    -8.9821     0.0000   144.0000 </r>
       <r>    -8.8669     0.0000   144.0000 </r>
       <r>    -8.7517     0.0000   144.0000 </r>
       <r>    -8.6365     0.0000   144.0000 </r>
       <r>    -8.5213     0.0000   144.0000 </r>
       <r>    -8.4060     0.0000   144.0000 </r>
       <r>    -8.2908     0.0000   144.0000 </r>
       <r>    -8.1756     0.0000   144.0000 </r>
       <r>    -8.0604     0.0000   144.0000 </r>
       <r>    -7.9452     0.0000   144.0000 </r>
       <r>    -7.8300     0.0000   144.0000 </r>
       <r>    -7.7148     0.0000   144.0000 </r>
       <r>    -7.5996     0.0000   144.0000 </r>
       <r>    -7.4844     0.0000   144.0000 </r>
       <r>    -7.3692     0.0000   144.0000 </r>
       <r>    -7.2540     0.0000   144.0000 </r>
       <r>    -7.1388     0.0000   144.0000 </r>
       <r>    -7.0236     0.0000   144.0000 </r>
       <r>    -6.9083     0.0000   144.0000 </r>
       <r>    -6.7931     0.0000   144.0000 </r>
       <r>    -6.6779     0.0000   144.0000 </r>
       <r>    -6.5627     0.0000   144.0000 </r>
       <r>    -6.4475     0.0000   144.0000 </r>
       <r>    -6.3323     0.0000   144.0000 </r>
       <r>    -6.2171     0.0000   144.0000 </r>
       <r>    -6.1019     0.0000   144.0000 </r>
       <r>    -5.9867     0.0000   144.0000 </r>
       <r>    -5.8715     0.0000   144.0000 </r>
       <r>    -5.7563     4.9469   144.5699 </r>
       <r>    -5.6411    24.8406   148.1868 </r>
       <r>    -5.5258    17.0744   151.6671 </r>
       <r>    -5.4106    23.5263   155.9604 </r>
       <r>    -5.2954    60.9567   164.1477 </r>
       <r>    -5.1802    62.3577   174.2341 </r>
       <r>    -5.0650    18.3059   180.0340 </r>
       <r>    -4.9498    12.5589   182.2219 </r>
       <r>    -4.8346    45.8003   188.6516 </r>
       <r>    -4.7194     5.6060   190.4459 </r>
       <r>    -4.6042     6.2930   192.0000 </r>
       <r>    -4.4890     0.0000   192.0000 </r>
       <r>    -4.3738     0.0000   192.0000 </r>
       <r>    -4.2586     0.0000   192.0000 </r>
       <r>    -4.1434     0.0000   192.0000 </r>
       <r>    -4.0281     0.0000   192.0000 </r>
       <r>    -3.9129     0.0000   192.0000 </r>
       <r>    -3.7977     0.0000   192.0000 </r>
       <r>    -3.6825     0.0000   192.0000 </r>
       <r>    -3.5673     0.0000   192.0000 </r>
       <r>    -3.4521     0.0000   192.0000 </r>
       <r>    -3.3369     0.0000   192.0000 </r>
       <r>    -3.2217     0.0000   192.0000 </r>
       <r>    -3.1065     0.0000   192.0000 </r>
       <r>    -2.9913     0.6167   192.0711 </r>
       <r>    -2.8761     1.2774   192.3472 </r>
       <r>    -2.7609     0.7669   192.4884 </r>
       <r>    -2.6456     0.7048   192.6062 </r>
       <r>    -2.5304     2.9850   192.9939 </r>
       <r>    -2.4152     3.8863   193.6227 </r>
       <r>    -2.3000     3.6608   194.1968 </r>
       <r>    -2.1848     5.8517   194.9992 </r>
       <r>    -2.0696     8.3858   196.4411 </r>
       <r>    -1.9544    21.1657   199.9135 </r>
       <r>    -1.8392    16.9850   202.5068 </r>
       <r>    -1.7240    17.5746   205.6747 </r>
       <r>    -1.6088    29.5424   210.2535 </r>
       <r>    -1.4936    17.8269   213.2538 </r>
       <r>    -1.3784    17.9828   216.2968 </r>
       <r>    -1.2632    35.2459   222.2106 </r>
       <r>    -1.1479    21.2614   225.8495 </r>
       <r>    -1.0327    48.0787   233.7640 </r>
       <r>    -0.9175    46.8501   241.4475 </r>
       <r>    -0.8023    21.0756   245.7781 </r>
       <r>    -0.6871    32.5688   250.9022 </r>
       <r>    -0.5719    37.9826   256.5259 </r>
       <r>    -0.4567    26.4624   261.6987 </r>
       <r>    -0.3415    27.5617   265.7503 </r>
       <r>    -0.2263    29.4653   270.7696 </r>
       <r>    -0.1111    23.7157   275.5572 </r>
       <r>     0.0041    28.7273   280.2346 </r>
       <r>     0.1193    28.1602   284.6193 </r>
       <r>     0.2346    13.9946   287.9373 </r>
       <r>     0.3498     0.0000   288.0000 </r>
       <r>     0.4650     0.0000   288.0000 </r>
       <r>     0.5802     0.0000   288.0000 </r>
       <r>     0.6954     0.0000   288.0000 </r>
       <r>     0.8106     0.0000   288.0000 </r>
       <r>     0.9258     0.0000   288.0000 </r>
       <r>     1.0410     0.0000   288.0000 </r>
       <r>     1.1562    10.2832   289.1847 </r>
       <r>     1.2714     6.7355   290.1760 </r>
       <r>     1.3866    14.0079   292.4138 </r>
       <r>     1.5018    13.3224   294.6098 </r>
       <r>     1.6170    15.3072   297.9885 </r>
       <r>     1.7323    33.5855   303.3443 </r>
       <r>     1.8475    22.2731   307.4160 </r>
       <r>     1.9627    22.7404   311.7449 </r>
       <r>     2.0779    24.7142   315.2973 </r>
       <r>     2.1931    26.7535   319.7822 </r>
       <r>     2.3083    24.2770   323.5219 </r>
       <r>     2.4235    33.3743   329.1200 </r>
       <r>     2.5387    24.3848   332.4593 </r>
       <r>     2.6539    24.1813   336.4609 </r>
       <r>     2.7691    23.2771   340.8067 </r>
       <r>     2.8843    24.6750   345.2178 </r>
       <r>     2.9995    18.5472   348.1618 </r>
       <r>     3.1148    14.2801   350.7952 </r>
       <r>     3.2300     5.1472   351.9430 </r>
       <r>     3.3452     0.2170   352.0000 </r>
       <r>     3.4604     0.0000   352.0000 </r>
       <r>     3.5756     0.0000   352.0000 </r>
       <r>     3.6908     0.0000   352.0000 </r>
       <r>     3.8060     0.0000   352.0000 </r>
       <r>     3.9212     0.0000   352.0000 </r>
       <r>     4.0364     0.0000   352.0000 </r>
       <r>     4.1516     0.0000   352.0000 </r>
       <r>     4.2668     0.0000   352.0000 </r>
       <r>     4.3820     0.0000   352.0000 </r>
       <r>     4.4972     0.0000   352.0000 </r>
       <r>     4.6125     0.0000   352.0000 </r>
       <r>     4.7277     0.0000   352.0000 </r>
       <r>     4.8429     0.0000   352.0000 </r>
      </set>
     </set>
    </array>
   </total>
  </dos>
 </calculation>
 <structure name="finalpos" >
  <crystal>
   <varray name="basis" >
    <v>      32.90484422       0.00000000      -0.03111809 </v>
    <v>       0.00000000       6.64312522       0.00000000 </v>
    <v>      -0.01212595       0.00000000      11.38662979 </v>
   </varray>
   <i name="volume">   2489.01229066 </i>
   <varray name="rec_basis" >
    <v>       0.03039069       0.00000000       0.00003236 </v>
    <v>       0.00000000       0.15053156       0.00000000 </v>
    <v>       0.00008305       0.00000000       0.08782239 </v>
   </varray>
  </crystal>
  <varray name="positions" >
   <v>       0.00938449       0.25000000       0.69807423 </v>
   <v>       0.53633076       0.75000002       0.30192577 </v>
   <v>       0.12879642       0.75000002       0.19118719 </v>
   <v>       0.14136631       0.25000000       0.80844098 </v>
   <v>       0.27766054       0.25000000       0.68973616 </v>
   <v>       0.26805468       0.75000002       0.31026384 </v>
   <v>       0.40434891       0.75000002       0.19155900 </v>
   <v>       0.41691880       0.25000000       0.80881279 </v>
   <v>       0.05905771       0.75000002       0.91068601 </v>
   <v>       0.48665752       0.25000000       0.08931397 </v>
   <v>       0.09433010       0.25000000       0.39447157 </v>
   <v>       0.18034407       0.75000002       0.59575735 </v>
   <v>       0.31819228       0.75000002       0.90696590 </v>
   <v>       0.22752295       0.25000000       0.09303407 </v>
   <v>       0.36537116       0.25000000       0.40424269 </v>
   <v>       0.45138512       0.75000002       0.60552847 </v>
   <v>       0.04872576       0.06998604       0.14511706 </v>
   <v>       0.49698947       0.93001395       0.85488292 </v>
   <v>       0.08463346       0.93012269       0.64036268 </v>
   <v>       0.18813032       0.06824984       0.35288031 </v>
   <v>       0.49698947       0.56998605       0.85488292 </v>
   <v>       0.04872576       0.43001395       0.14511706 </v>
   <v>       0.18813032       0.43175016       0.35288031 </v>
   <v>       0.08463346       0.56987731       0.64036268 </v>
   <v>       0.32337645       0.06870185       0.14622564 </v>
   <v>       0.22233879       0.93129814       0.85377434 </v>
   <v>       0.35758489       0.93175016       0.64711969 </v>
   <v>       0.46108177       0.06987730       0.35963732 </v>
   <v>       0.22233879       0.56870186       0.85377434 </v>
   <v>       0.32337645       0.43129814       0.14622564 </v>
   <v>       0.46108177       0.43012269       0.35963732 </v>
   <v>       0.35758489       0.56824984       0.64711969 </v>
   <v>       0.02045863       0.75000002       0.61558028 </v>
   <v>       0.52525656       0.25000000       0.38441972 </v>
   <v>       0.11080589       0.25000000       0.08168962 </v>
   <v>       0.16159192       0.75000002       0.90771910 </v>
   <v>       0.29670109       0.75000002       0.59250165 </v>
   <v>       0.24901413       0.25000000       0.40749835 </v>
   <v>       0.38412331       0.25000000       0.09228088 </v>
   <v>       0.43490934       0.75000002       0.91831036 </v>
   <v>       0.04904360       0.25000000       0.96124476 </v>
   <v>       0.49667161       0.75000002       0.03875526 </v>
   <v>       0.07084034       0.75000002       0.45903034 </v>
   <v>       0.18938180       0.25000000       0.53604450 </v>
   <v>       0.32572300       0.25000000       0.96264124 </v>
   <v>       0.21999224       0.75000002       0.03735877 </v>
   <v>       0.35633341       0.75000002       0.46395542 </v>
   <v>       0.47487490       0.25000000       0.54096958 </v>
  </varray>
 </structure>
</modeling>
