 vasp.5.4.4.18Apr17-6-g9f103f2a35 (build Nov 21 2017 15:30:27) complex          
  
 executed on             LinuxIFC date 2020.12.16  17:57:34
 running on   64 total cores
 distrk:  each k-point on   32 cores,    2 groups
 distr:  one band on NCORES_PER_BAND=   4 cores,    8 groups


--------------------------------------------------------------------------------------------------------


 INCAR:
 POTCAR:   PAW_PBE Ba_sv 06Sep2000                
 POTCAR:   PAW_PBE Si 05Jan2001                   

 ----------------------------------------------------------------------------- 
|                                                                             |
|           W    W    AA    RRRRR   N    N  II  N    N   GGGG   !!!           |
|           W    W   A  A   R    R  NN   N  II  NN   N  G    G  !!!           |
|           W    W  A    A  R    R  N N  N  II  N N  N  G       !!!           |
|           W WW W  AAAAAA  RRRRR   N  N N  II  N  N N  G  GGG   !            |
|           WW  WW  A    A  R   R   N   NN  II  N   NN  G    G                |
|           W    W  A    A  R    R  N    N  II  N    N   GGGG   !!!           |
|                                                                             |
|      You have enabled k-point parallelism (KPAR>1).                         |
|      This developmental code was originally  written by Paul Kent at ORNL,  |
|      and carefully double checked in Vienna.                                |
|      GW as well as linear response parallelism added by Martijn Marsman     |
|      and Georg Kresse.                                                      |
|      Carefully verify results versus KPAR=1.                                |
|      Report problems to Paul Kent and Vienna.                               |
|                                                                             |
 ----------------------------------------------------------------------------- 

 POTCAR:   PAW_PBE Ba_sv 06Sep2000                
   VRHFIN =Ba: 5s5p6s                                                           
   LEXCH  = PE                                                                  
   EATOM  =   700.2255 eV,   51.4651 Ry                                         
                                                                                
   TITEL  = PAW_PBE Ba_sv 06Sep2000                                             
   LULTRA =        F    use ultrasoft PP ?                                      
   IUNSCR =        1    unscreen: 0-lin 1-nonlin 2-no                           
   RPACOR =    2.400    partial core radius                                     
   POMASS =  137.327; ZVAL   =   10.000    mass and valenz                      
   RCORE  =    2.800    outmost cutoff radius                                   
   RWIGS  =    3.740; RWIGS  =    1.979    wigner-seitz radius (au A)           
   ENMAX  =  187.210; ENMIN  =  140.408 eV                                      
   RCLOC  =    2.516    cutoff for local pot                                    
   LCOR   =        T    correct aug charges                                     
   LPAW   =        T    paw PP                                                  
   EAUG   =  351.165                                                            
   DEXC   =     .000                                                            
   RMAX   =    3.370    core radius for proj-oper                               
   RAUG   =    1.300    factor for augmentation sphere                          
   RDEP   =    2.976    radius for radial grids                                 
   QCUT   =   -3.709; QGAM   =    7.419    optimization parameters              
                                                                                
   Description                                                                  
     l     E      TYP  RCUT    TYP  RCUT                                        
     0   .000     23  2.800                                                     
     0   .000     23  2.800                                                     
     1   .000     23  2.700                                                     
     1  2.000     23  2.700                                                     
     2   .000     23  2.700                                                     
     2   .000     23  2.700                                                     
  local pseudopotential read in
  partial core-charges read in
  atomic valenz-charges read in
  non local Contribution for L=           0  read in
    real space projection operators read in
  non local Contribution for L=           0  read in
    real space projection operators read in
  non local Contribution for L=           1  read in
    real space projection operators read in
  non local Contribution for L=           1  read in
    real space projection operators read in
  non local Contribution for L=           2  read in
    real space projection operators read in
  non local Contribution for L=           2  read in
    real space projection operators read in
    PAW grid and wavefunctions read in
 
   number of l-projection  operators is LMAX  =           6
   number of lm-projection operators is LMMAX =          18
 
 POTCAR:   PAW_PBE Si 05Jan2001                   
   VRHFIN =Si: s2p2                                                             
   LEXCH  = PE                                                                  
   EATOM  =   103.0669 eV,    7.5752 Ry                                         
                                                                                
   TITEL  = PAW_PBE Si 05Jan2001                                                
   LULTRA =        F    use ultrasoft PP ?                                      
   IUNSCR =        1    unscreen: 0-lin 1-nonlin 2-no                           
   RPACOR =    1.500    partial core radius                                     
   POMASS =   28.085; ZVAL   =    4.000    mass and valenz                      
   RCORE  =    1.900    outmost cutoff radius                                   
   RWIGS  =    2.480; RWIGS  =    1.312    wigner-seitz radius (au A)           
   ENMAX  =  245.345; ENMIN  =  184.009 eV                                      
   ICORE  =        2    local potential                                         
   LCOR   =        T    correct aug charges                                     
   LPAW   =        T    paw PP                                                  
   EAUG   =  322.069                                                            
   DEXC   =    -.007                                                            
   RMAX   =    2.944    core radius for proj-oper                               
   RAUG   =    1.300    factor for augmentation sphere                          
   RDEP   =    1.993    radius for radial grids                                 
   QCUT   =   -4.246; QGAM   =    8.493    optimization parameters              
                                                                                
   Description                                                                  
     l     E      TYP  RCUT    TYP  RCUT                                        
     0   .000     23  1.900                                                     
     0   .000     23  1.900                                                     
     1   .000     23  1.900                                                     
     1   .000     23  1.900                                                     
     2   .000      7  1.900                                                     
  local pseudopotential read in
  partial core-charges read in
  atomic valenz-charges read in
  non local Contribution for L=           0  read in
    real space projection operators read in
  non local Contribution for L=           0  read in
    real space projection operators read in
  non local Contribution for L=           1  read in
    real space projection operators read in
  non local Contribution for L=           1  read in
    real space projection operators read in
    PAW grid and wavefunctions read in
 
   number of l-projection  operators is LMAX  =           4
   number of lm-projection operators is LMMAX =           8
 
 Optimization of the real space projectors (new method)

 maximal supplied QI-value         = 13.42
 optimisation between [QCUT,QGAM] = [ 11.40, 22.81] = [ 36.42,145.68] Ry 
 Optimized for a Real-space Cutoff    1.56 Angstroem

   l    n(q)    QCUT    max X(q) W(low)/X(q) W(high)/X(q)  e(spline) 
   0     11    11.404     7.198    0.14E-04    0.26E-04    0.99E-07
   0     11    11.404    15.603    0.29E-04    0.72E-04    0.44E-06
   1     10    11.404     3.746    0.20E-04    0.24E-04    0.43E-07
   1     10    11.404     4.362    0.22E-03    0.97E-04    0.22E-06
   2     10    11.404     5.782    0.83E-04    0.62E-05    0.27E-06
   2     10    11.404    65.505    0.42E-03    0.31E-04    0.12E-05
 Optimization of the real space projectors (new method)

 maximal supplied QI-value         = 19.84
 optimisation between [QCUT,QGAM] = [ 11.31, 22.82] = [ 35.82,145.81] Ry 
 Optimized for a Real-space Cutoff    1.16 Angstroem

   l    n(q)    QCUT    max X(q) W(low)/X(q) W(high)/X(q)  e(spline) 
   0      8    11.310     8.708    0.14E-04    0.11E-04    0.43E-08
   0      8    11.310   106.241    0.27E-03    0.30E-03    0.38E-07
   1      7    11.310     5.901    0.82E-05    0.48E-04    0.19E-07
   1      7    11.310    73.241    0.27E-03    0.27E-03    0.74E-07
 PAW_PBE Ba_sv 06Sep2000                :
 energy of atom  1       EATOM= -700.2255
 kinetic energy error for atom=    0.0005 (will be added to EATOM!!)
 PAW_PBE Si 05Jan2001                   :
 energy of atom  2       EATOM= -103.0669
 kinetic energy error for atom=    0.0006 (will be added to EATOM!!)
 
 
 POSCAR: ba8 si16                                
  positions in cartesian coordinates
  No initial velocities read in
 exchange correlation table for  LEXCH =        8
   RHO(1)=    0.500       N(1)  =     2000
   RHO(2)=  100.500       N(2)  =     4000
 


--------------------------------------------------------------------------------------------------------


 ion  position               nearest neighbor table
   1  0.015  0.250  0.691-  24 3.40  18 3.40  13 3.45  10 3.45  16 3.45  11 3.45  21 3.60  17 3.63
                            17 3.63   5 4.41   5 4.41   7 4.42   4 4.71   4 4.71
   2  0.985  0.750  0.309-  23 3.40  17 3.40   9 3.45  14 3.45  12 3.45  15 3.45  22 3.60  18 3.63
                            18 3.63   6 4.41   6 4.41   8 4.42   3 4.71   3 4.71
   3  0.485  0.750  0.191-  22 3.40  20 3.40  12 3.45  15 3.45   9 3.45  14 3.45  23 3.60  19 3.63
                            19 3.63   7 4.41   7 4.41   5 4.42   2 4.71   2 4.71
   4  0.515  0.250  0.809-  21 3.40  19 3.40  16 3.45  11 3.45  13 3.45  10 3.45  24 3.60  20 3.63
                            20 3.63   8 4.41   8 4.41   6 4.42   1 4.71   1 4.71
   5  0.159  0.750  0.907-  10 3.46  13 3.46  21 3.48  21 3.48  11 3.50  16 3.50  22 3.54   9 3.55
                            14 3.55  17 3.71  20 3.82   1 4.41   1 4.41   3 4.42
   6  0.841  0.250  0.093-  14 3.46   9 3.46  22 3.48  22 3.48  15 3.50  12 3.50  21 3.54  13 3.55
                            10 3.55  18 3.71  19 3.82   2 4.41   2 4.41   4 4.42
   7  0.341  0.250  0.407-  15 3.46  12 3.46  23 3.48  23 3.48  14 3.50   9 3.50  24 3.54  16 3.55
                            11 3.55  19 3.71  18 3.82   3 4.41   3 4.41   1 4.42
   8  0.659  0.750  0.593-  11 3.46  16 3.46  24 3.48  24 3.48  10 3.50  13 3.50  23 3.54  12 3.55
                            15 3.55  20 3.71  17 3.82   4 4.41   4 4.41   2 4.42
   9  0.194  0.073  0.147-  14 2.41  21 2.41  19 2.42   2 3.45   3 3.45   6 3.46   7 3.50   5 3.55

  10  0.806  0.927  0.853-  13 2.41  22 2.41  20 2.42   1 3.45   4 3.45   5 3.46   8 3.50   6 3.55

  11  0.306  0.927  0.647-  16 2.41  23 2.41  17 2.42   4 3.45   1 3.45   8 3.46   5 3.50   7 3.55

  12  0.694  0.073  0.353-  15 2.41  24 2.41  18 2.42   3 3.45   2 3.45   7 3.46   6 3.50   8 3.55

  13  0.806  0.573  0.853-  10 2.41  22 2.41  20 2.42   1 3.45   4 3.45   5 3.46   8 3.50   6 3.55

  14  0.194  0.427  0.147-   9 2.41  21 2.41  19 2.42   2 3.45   3 3.45   6 3.46   7 3.50   5 3.55

  15  0.694  0.427  0.353-  12 2.41  24 2.41  18 2.42   3 3.45   2 3.45   7 3.46   6 3.50   8 3.55

  16  0.306  0.573  0.647-  11 2.41  23 2.41  17 2.42   4 3.45   1 3.45   8 3.46   5 3.50   7 3.55

  17  0.083  0.750  0.592-  11 2.42  16 2.42  23 2.45   2 3.40   1 3.63   1 3.63   5 3.71   8 3.82

  18  0.917  0.250  0.408-  15 2.42  12 2.42  24 2.45   1 3.40   2 3.63   2 3.63   6 3.71   7 3.82

  19  0.417  0.250  0.092-  14 2.42   9 2.42  21 2.45   4 3.40   3 3.63   3 3.63   7 3.71   6 3.82

  20  0.583  0.750  0.908-  10 2.42  13 2.42  22 2.45   3 3.40   4 3.63   4 3.63   8 3.71   5 3.82

  21  0.198  0.250  0.967-  14 2.41   9 2.41  19 2.45   4 3.40   5 3.48   5 3.48   6 3.54   1 3.60

  22  0.802  0.750  0.033-  10 2.41  13 2.41  20 2.45   3 3.40   6 3.48   6 3.48   5 3.54   2 3.60

  23  0.302  0.750  0.467-  11 2.41  16 2.41  17 2.45   2 3.40   7 3.48   7 3.48   8 3.54   3 3.60

  24  0.698  0.250  0.533-  15 2.41  12 2.41  18 2.45   1 3.40   8 3.48   8 3.48   7 3.54   4 3.60

 
  LATTYP: Found a simple orthorhombic cell.
 ALAT       =     6.7778496742
 B/A-ratio  =     1.3292516818
 C/A-ratio  =     1.7117734747
  
  Lattice vectors:
  
 A1 = (   0.0000000000,  -6.7778496742,   0.0000000000)
 A2 = (  -9.0094680786,   0.0000000000,   0.0000000000)
 A3 = (   0.0000000000,   0.0000000000, -11.6021432877)


Analysis of symmetry for initial positions (statically):
=====================================================================
 Subroutine PRICEL returns:
 Original cell was already a primitive cell.
 

 Routine SETGRP: Setting up the symmetry group for a 
 simple orthorhombic supercell.


 Subroutine GETGRP returns: Found  8 space group operations
 (whereof  2 operations were pure point group operations)
 out of a pool of  8 trial point group operations.


The static configuration has the point symmetry S_2 .
 The point group associated with its full space group is D_2h.


Analysis of symmetry for dynamics (positions and initial velocities):
=====================================================================
 Subroutine PRICEL returns:
 Original cell was already a primitive cell.
 

 Routine SETGRP: Setting up the symmetry group for a 
 simple orthorhombic supercell.


 Subroutine GETGRP returns: Found  8 space group operations
 (whereof  2 operations were pure point group operations)
 out of a pool of  8 trial point group operations.


The dynamic configuration has the point symmetry S_2 .
 The point group associated with its full space group is D_2h.


 Subroutine INISYM returns: Found  8 space group operations
 (whereof  2 operations are pure point group operations),
 and found     1 'primitive' translations

 
 
 KPOINTS: k-density: 6.0                          

Automatic generation of k-mesh.
Space group operators:
 irot       det(A)        alpha          n_x          n_y          n_z        tau_x        tau_y        tau_z
    1     1.000000     0.000000     1.000000     0.000000     0.000000     0.000000     0.000000     0.000000
    2    -1.000000     0.000000     1.000000     0.000000     0.000000     0.000000     0.000000     0.000000
    3     1.000000   180.000000     0.000000     0.000000     1.000000    -0.500000     0.000000    -0.500000
    4    -1.000000   180.000000     0.000000     0.000000     1.000000    -0.500000     0.000000    -0.500000
    5     1.000000   180.000000     1.000000     0.000000     0.000000    -0.500000    -0.500000    -0.500000
    6    -1.000000   180.000000     1.000000     0.000000     0.000000    -0.500000    -0.500000    -0.500000
    7     1.000000   180.000000     0.000000     1.000000     0.000000    -0.000000    -0.500000    -0.000000
    8    -1.000000   180.000000     0.000000     1.000000     0.000000     0.000000    -0.500000     0.000000
 
 Subroutine IBZKPT returns following result:
 ===========================================
 
 Found     36 irreducible k-points:
 
 Following reciprocal coordinates:
            Coordinates               Weight
  0.000000  0.000000  0.000000      1.000000
  0.200000  0.000000  0.000000      2.000000
  0.400000  0.000000  0.000000      2.000000
  0.000000  0.166667  0.000000      2.000000
  0.200000  0.166667  0.000000      4.000000
  0.400000  0.166667  0.000000      4.000000
  0.000000  0.333333  0.000000      2.000000
  0.200000  0.333333  0.000000      4.000000
  0.400000  0.333333  0.000000      4.000000
  0.000000  0.500000  0.000000      1.000000
  0.200000  0.500000  0.000000      2.000000
  0.400000  0.500000  0.000000      2.000000
  0.000000  0.000000  0.250000      2.000000
  0.200000  0.000000  0.250000      4.000000
  0.400000  0.000000  0.250000      4.000000
  0.000000  0.166667  0.250000      4.000000
  0.200000  0.166667  0.250000      8.000000
  0.400000  0.166667  0.250000      8.000000
  0.000000  0.333333  0.250000      4.000000
  0.200000  0.333333  0.250000      8.000000
  0.400000  0.333333  0.250000      8.000000
  0.000000  0.500000  0.250000      2.000000
  0.200000  0.500000  0.250000      4.000000
  0.400000  0.500000  0.250000      4.000000
  0.000000  0.000000  0.500000      1.000000
  0.200000  0.000000  0.500000      2.000000
  0.400000  0.000000  0.500000      2.000000
  0.000000  0.166667  0.500000      2.000000
  0.200000  0.166667  0.500000      4.000000
  0.400000  0.166667  0.500000      4.000000
  0.000000  0.333333  0.500000      2.000000
  0.200000  0.333333  0.500000      4.000000
  0.400000  0.333333  0.500000      4.000000
  0.000000  0.500000  0.500000      1.000000
  0.200000  0.500000  0.500000      2.000000
  0.400000  0.500000  0.500000      2.000000
 
 Following cartesian coordinates:
            Coordinates               Weight
  0.000000  0.000000  0.000000      1.000000
  0.022199  0.000000  0.000000      2.000000
  0.044398  0.000000  0.000000      2.000000
  0.000000  0.024590  0.000000      2.000000
  0.022199  0.024590  0.000000      4.000000
  0.044398  0.024590  0.000000      4.000000
  0.000000  0.049180  0.000000      2.000000
  0.022199  0.049180  0.000000      4.000000
  0.044398  0.049180  0.000000      4.000000
  0.000000  0.073770  0.000000      1.000000
  0.022199  0.073770  0.000000      2.000000
  0.044398  0.073770  0.000000      2.000000
  0.000000  0.000000  0.021548      2.000000
  0.022199  0.000000  0.021548      4.000000
  0.044398  0.000000  0.021548      4.000000
  0.000000  0.024590  0.021548      4.000000
  0.022199  0.024590  0.021548      8.000000
  0.044398  0.024590  0.021548      8.000000
  0.000000  0.049180  0.021548      4.000000
  0.022199  0.049180  0.021548      8.000000
  0.044398  0.049180  0.021548      8.000000
  0.000000  0.073770  0.021548      2.000000
  0.022199  0.073770  0.021548      4.000000
  0.044398  0.073770  0.021548      4.000000
  0.000000  0.000000  0.043095      1.000000
  0.022199  0.000000  0.043095      2.000000
  0.044398  0.000000  0.043095      2.000000
  0.000000  0.024590  0.043095      2.000000
  0.022199  0.024590  0.043095      4.000000
  0.044398  0.024590  0.043095      4.000000
  0.000000  0.049180  0.043095      2.000000
  0.022199  0.049180  0.043095      4.000000
  0.044398  0.049180  0.043095      4.000000
  0.000000  0.073770  0.043095      1.000000
  0.022199  0.073770  0.043095      2.000000
  0.044398  0.073770  0.043095      2.000000
 
 TETIRR: Found    360 inequivalent tetrahedra from      720


--------------------------------------------------------------------------------------------------------




 Dimension of arrays:
   k-points           NKPTS =     36   k-points in BZ     NKDIM =     36   number of bands    NBANDS=     88
   number of dos      NEDOS =    301   number of ions     NIONS =     24
   non local maximal  LDIM  =      6   non local SUM 2l+1 LMDIM =     18
   total plane-waves  NPLWV = 128000
   max r-space proj   IRMAX =   2946   max aug-charges    IRDMAX=  11507
   dimension x,y,z NGX =    50 NGY =   40 NGZ =   64
   dimension x,y,z NGXF=   100 NGYF=   80 NGZF=  128
   support grid    NGXF=   100 NGYF=   80 NGZF=  128
   ions per type =               8  16
   NGX,Y,Z   is equivalent  to a cutoff of   9.23,  9.81,  9.17 a.u.
   NGXF,Y,Z  is equivalent  to a cutoff of  18.45, 19.62, 18.34 a.u.

 SYSTEM =  unknown system                          
 POSCAR =  ba8 si16                                

 Startparameter for this run:
   NWRITE =      2    write-flag & timer
   PREC   = normal    normal or accurate (medium, high low for compatibility)
   ISTART =      0    job   : 0-new  1-cont  2-samecut
   ICHARG =      2    charge: 1-file 2-atom 10-const
   ISPIN  =      1    spin polarized calculation?
   LNONCOLLINEAR =      F non collinear calculations
   LSORBIT =      F    spin-orbit coupling
   INIWAV =      1    electr: 0-lowe 1-rand  2-diag
   LASPH  =      F    aspherical Exc in radial PAW
   METAGGA=      F    non-selfconsistent MetaGGA calc.

 Electronic Relaxation 1
   ENCUT  =  500.0 eV  36.75 Ry    6.06 a.u.  16.43 12.36 21.15*2*pi/ulx,y,z
   ENINI  =  500.0     initial cutoff
   ENAUG  =  351.2 eV  augmentation charge cutoff
   NELM   =    100;   NELMIN=  2; NELMDL= -5     # of ELM steps 
   EDIFF  = 0.1E-05   stopping-criterion for ELM
   LREAL  =      T    real-space projection
   NLSPLINE    = F    spline interpolate recip. space projectors
   LCOMPAT=      F    compatible to vasp.4.4
   GGA_COMPAT  = T    GGA compatible to vasp.4.4-vasp.4.6
   LMAXPAW     = -100 max onsite density
   LMAXMIX     =    2 max onsite mixed and CHGCAR
   VOSKOWN=      0    Vosko Wilk Nusair interpolation
   ROPT   =   -0.00050  -0.00050
 Ionic relaxation
   EDIFFG = -.1E-01   stopping-criterion for IOM
   NSW    =    200    number of steps for IOM
   NBLOCK =      1;   KBLOCK =    200    inner block; outer block 
   IBRION =      2    ionic relax: 0-MD 1-quasi-New 2-CG
   NFREE  =      1    steps in history (QN), initial steepest desc. (CG)
   ISIF   =      3    stress and relaxation
   IWAVPR =     11    prediction:  0-non 1-charg 2-wave 3-comb
   ISYM   =      2    0-nonsym 1-usesym 2-fastsym
   LCORR  =      T    Harris-Foulkes like correction to forces

   POTIM  = 0.5000    time-step for ionic-motion
   TEIN   =    0.0    initial temperature
   TEBEG  =    0.0;   TEEND  =   0.0 temperature during run
   SMASS  =  -3.00    Nose mass-parameter (am)
   estimated Nose-frequenzy (Omega)   =  0.10E-29 period in steps =****** mass=  -0.185E-26a.u.
   SCALEE = 1.0000    scale energy and forces
   NPACO  =    256;   APACO  = 16.0  distance and # of slots for P.C.
   PSTRESS=    0.0 pullay stress

  Mass of Ions in am
   POMASS = 137.33 28.09
  Ionic Valenz
   ZVAL   =  10.00  4.00
  Atomic Wigner-Seitz radii
   RWIGS  =  -1.00 -1.00
  virtual crystal weights 
   VCA    =   1.00  1.00
   NELECT =     144.0000    total number of electrons
   NUPDOWN=      -1.0000    fix difference up-down

 DOS related values:
   EMIN   =  10.00;   EMAX   =-10.00  energy-range for DOS
   EFERMI =   0.00
   ISMEAR =    -5;   SIGMA  =   0.01  broadening in eV -4-tet -1-fermi 0-gaus

 Electronic relaxation 2 (details)
   IALGO  =     38    algorithm
   LDIAG  =      T    sub-space diagonalisation (order eigenvalues)
   LSUBROT=      F    optimize rotation matrix (better conditioning)
   TURBO    =      0    0=normal 1=particle mesh
   IRESTART =      0    0=no restart 2=restart with 2 vectors
   NREBOOT  =      0    no. of reboots
   NMIN     =      0    reboot dimension
   EREF     =   0.00    reference energy to select bands
   IMIX   =      4    mixing-type and parameters
     AMIX     =   0.40;   BMIX     =  1.00
     AMIX_MAG =   1.60;   BMIX_MAG =  1.00
     AMIN     =   0.10
     WC   =   100.;   INIMIX=   1;  MIXPRE=   1;  MAXMIX= -45

 Intra band minimization:
   WEIMIN = 0.0010     energy-eigenvalue tresh-hold
   EBREAK =  0.28E-08  absolut break condition
   DEPER  =   0.30     relativ break condition  

   TIME   =   0.40     timestep for ELM

  volume/ion in A,a.u.               =      29.52       199.21
  Fermi-wavevector in a.u.,A,eV,Ry     =   0.962541  1.818939 12.605595  0.926485
  Thomas-Fermi vector in A             =   2.092009
 
 Write flags
   LWAVE        =      T    write WAVECAR
   LDOWNSAMPLE  =      F    k-point downsampling of WAVECAR
   LCHARG       =      T    write CHGCAR
   LVTOT        =      F    write LOCPOT, total local potential
   LVHAR        =      F    write LOCPOT, Hartree potential only
   LELF         =      F    write electronic localiz. function (ELF)
   LORBIT       =      0    0 simple, 1 ext, 2 COOP (PROOUT), +10 PAW based schemes


 Dipole corrections
   LMONO  =      F    monopole corrections only (constant potential shift)
   LDIPOL =      F    correct potential (dipole corrections)
   IDIPOL =      0    1-x, 2-y, 3-z, 4-all directions 
   EPSILON=  1.0000000 bulk dielectric constant

 Exchange correlation treatment:
   GGA     =    --    GGA type
   LEXCH   =     8    internal setting for exchange type
   VOSKOWN=      0    Vosko Wilk Nusair interpolation
   LHFCALC =     F    Hartree Fock is set to
   LHFONE  =     F    Hartree Fock one center treatment
   AEXX    =    0.0000 exact exchange contribution

 Linear response parameters
   LEPSILON=     F    determine dielectric tensor
   LRPA    =     F    only Hartree local field effects (RPA)
   LNABLA  =     F    use nabla operator in PAW spheres
   LVEL    =     F    velocity operator in full k-point grid
   LINTERFAST=   F  fast interpolation
   KINTER  =     0    interpolate to denser k-point grid
   CSHIFT  =0.1000    complex shift for real part using Kramers Kronig
   OMEGAMAX=  -1.0    maximum frequency
   DEG_THRESHOLD= 0.2000000E-02 threshold for treating states as degnerate
   RTIME   =   -0.100 relaxation time in fs
  (WPLASMAI=    0.000 imaginary part of plasma frequency in eV, 0.658/RTIME)
   DFIELD  = 0.0000000 0.0000000 0.0000000 field for delta impulse in time
 
 Orbital magnetization related:
   ORBITALMAG=     F  switch on orbital magnetization
   LCHIMAG   =     F  perturbation theory with respect to B field
   DQ        =  0.001000  dq finite difference perturbation B field
   LLRAUG    =     F  two centre corrections for induced B field



--------------------------------------------------------------------------------------------------------


 conjugate gradient relaxation of ions
 charge density and potential will be updated during run
 non-spin polarized calculation
 Variant of blocked Davidson
 Davidson routine will perform the subspace rotation
 perform sub-space diagonalisation
    after iterative eigenvector-optimisation
 modified Broyden-mixing scheme, WC =      100.0
 initial mixing is a Kerker type mixing with AMIX =  0.4000 and BMIX =      1.0000
 Hartree-type preconditioning will be used
 using additional bands           16
 real space projection scheme for non local part
 use partial core corrections
 calculate Harris-corrections to forces 
   (improved forces if not selfconsistent)
 use gradient corrections 
 use of overlap-Matrix (Vanderbilt PP)
 Fermi weights with tetrahedron method with Bloechl corrections


--------------------------------------------------------------------------------------------------------


  energy-cutoff  :      500.00
  volume of cell :      708.48
      direct lattice vectors                 reciprocal lattice vectors
     9.009468079  0.000000000  0.000000000     0.110994344  0.000000000  0.000000000
     0.000000000  6.777849674  0.000000000     0.000000000  0.147539419  0.000000000
     0.000000000  0.000000000 11.602143288     0.000000000  0.000000000  0.086190971

  length of vectors
     9.009468079  6.777849674 11.602143288     0.110994344  0.147539419  0.086190971


 
 k-points in units of 2pi/SCALE and weight: k-density: 6.0                          
   0.00000000  0.00000000  0.00000000       0.008
   0.02219887  0.00000000  0.00000000       0.017
   0.04439774  0.00000000  0.00000000       0.017
   0.00000000  0.02458990  0.00000000       0.017
   0.02219887  0.02458990  0.00000000       0.033
   0.04439774  0.02458990  0.00000000       0.033
   0.00000000  0.04917981  0.00000000       0.017
   0.02219887  0.04917981  0.00000000       0.033
   0.04439774  0.04917981  0.00000000       0.033
   0.00000000  0.07376971  0.00000000       0.008
   0.02219887  0.07376971  0.00000000       0.017
   0.04439774  0.07376971  0.00000000       0.017
   0.00000000  0.00000000  0.02154774       0.017
   0.02219887  0.00000000  0.02154774       0.033
   0.04439774  0.00000000  0.02154774       0.033
   0.00000000  0.02458990  0.02154774       0.033
   0.02219887  0.02458990  0.02154774       0.067
   0.04439774  0.02458990  0.02154774       0.067
   0.00000000  0.04917981  0.02154774       0.033
   0.02219887  0.04917981  0.02154774       0.067
   0.04439774  0.04917981  0.02154774       0.067
   0.00000000  0.07376971  0.02154774       0.017
   0.02219887  0.07376971  0.02154774       0.033
   0.04439774  0.07376971  0.02154774       0.033
   0.00000000  0.00000000  0.04309549       0.008
   0.02219887  0.00000000  0.04309549       0.017
   0.04439774  0.00000000  0.04309549       0.017
   0.00000000  0.02458990  0.04309549       0.017
   0.02219887  0.02458990  0.04309549       0.033
   0.04439774  0.02458990  0.04309549       0.033
   0.00000000  0.04917981  0.04309549       0.017
   0.02219887  0.04917981  0.04309549       0.033
   0.04439774  0.04917981  0.04309549       0.033
   0.00000000  0.07376971  0.04309549       0.008
   0.02219887  0.07376971  0.04309549       0.017
   0.04439774  0.07376971  0.04309549       0.017
 
 k-points in reciprocal lattice and weights: k-density: 6.0                          
   0.00000000  0.00000000  0.00000000       0.008
   0.20000000  0.00000000  0.00000000       0.017
   0.40000000  0.00000000  0.00000000       0.017
   0.00000000  0.16666667  0.00000000       0.017
   0.20000000  0.16666667  0.00000000       0.033
   0.40000000  0.16666667  0.00000000       0.033
   0.00000000  0.33333333  0.00000000       0.017
   0.20000000  0.33333333  0.00000000       0.033
   0.40000000  0.33333333  0.00000000       0.033
   0.00000000  0.50000000  0.00000000       0.008
   0.20000000  0.50000000  0.00000000       0.017
   0.40000000  0.50000000  0.00000000       0.017
   0.00000000  0.00000000  0.25000000       0.017
   0.20000000  0.00000000  0.25000000       0.033
   0.40000000  0.00000000  0.25000000       0.033
   0.00000000  0.16666667  0.25000000       0.033
   0.20000000  0.16666667  0.25000000       0.067
   0.40000000  0.16666667  0.25000000       0.067
   0.00000000  0.33333333  0.25000000       0.033
   0.20000000  0.33333333  0.25000000       0.067
   0.40000000  0.33333333  0.25000000       0.067
   0.00000000  0.50000000  0.25000000       0.017
   0.20000000  0.50000000  0.25000000       0.033
   0.40000000  0.50000000  0.25000000       0.033
   0.00000000  0.00000000  0.50000000       0.008
   0.20000000  0.00000000  0.50000000       0.017
   0.40000000  0.00000000  0.50000000       0.017
   0.00000000  0.16666667  0.50000000       0.017
   0.20000000  0.16666667  0.50000000       0.033
   0.40000000  0.16666667  0.50000000       0.033
   0.00000000  0.33333333  0.50000000       0.017
   0.20000000  0.33333333  0.50000000       0.033
   0.40000000  0.33333333  0.50000000       0.033
   0.00000000  0.50000000  0.50000000       0.008
   0.20000000  0.50000000  0.50000000       0.017
   0.40000000  0.50000000  0.50000000       0.017
 
 position of ions in fractional coordinates (direct lattice) 
   0.01517300  0.25000000  0.69130999
   0.98482700  0.75000002  0.30869001
   0.48482700  0.75000002  0.19130993
   0.51517300  0.25000000  0.80869005
   0.15930900  0.75000002  0.90664998
   0.84069100  0.25000000  0.09335000
   0.34069100  0.25000000  0.40665007
   0.65930900  0.75000002  0.59334998
   0.19427001  0.07254100  0.14674400
   0.80572999  0.92745899  0.85325598
   0.30572999  0.92745899  0.64674402
   0.69427001  0.07254100  0.35325598
   0.80572999  0.57254101  0.85325598
   0.19427001  0.42745899  0.14674400
   0.69427001  0.42745899  0.35325598
   0.30572999  0.57254101  0.64674402
   0.08290500  0.75000002  0.59200102
   0.91709498  0.25000000  0.40799898
   0.41709501  0.25000000  0.09200096
   0.58290502  0.75000002  0.90799902
   0.19769400  0.25000000  0.96694000
   0.80230599  0.75000002  0.03306002
   0.30230599  0.75000002  0.46693992
   0.69769401  0.25000000  0.53306000
 
 position of ions in cartesian coordinates  (Angst):
   0.13670066  1.69446242  8.02067757
   8.87276745  5.08338737  3.58146572
   4.36803341  5.08338737  2.21960521
   4.64143467  1.69446242  9.38253784
   1.43528938  5.08338737 10.51908302
   7.57417870  1.69446242  1.08306003
   3.06944466  1.69446242  4.71801233
   5.94002342  5.08338737  6.88413143
   1.75026941  0.49167198  1.70254493
   7.25919867  6.28617763  9.89959812
   2.75446463  6.28617763  7.50361681
   6.25500345  0.49167198  4.09852648
   7.25919867  3.88059688  9.89959812
   1.75026941  2.89725280  1.70254493
   6.25500345  2.89725280  4.09852648
   2.75446463  3.88059688  7.50361681
   0.74692994  5.08338737  6.86848068
   8.26253796  1.69446242  4.73366260
   3.75780416  1.69446242  1.06740832
   5.25166416  5.08338737 10.53473473
   1.78111780  1.69446242 11.21857643
   7.22835016  5.08338737  0.38356703
   2.72361612  5.08338737  5.41750383
   6.28585196  1.69446242  6.18463850
 


--------------------------------------------------------------------------------------------------------


 k-point  1 :   0.0000 0.0000 0.0000  plane waves:   18015
 k-point  2 :   0.2000 0.0000 0.0000  plane waves:   18061
 k-point  3 :   0.4000 0.0000 0.0000  plane waves:   17963
 k-point  4 :   0.0000 0.1667 0.0000  plane waves:   17981
 k-point  5 :   0.2000 0.1667 0.0000  plane waves:   17995
 k-point  6 :   0.4000 0.1667 0.0000  plane waves:   17998
 k-point  7 :   0.0000 0.3333 0.0000  plane waves:   17997
 k-point  8 :   0.2000 0.3333 0.0000  plane waves:   17955
 k-point  9 :   0.4000 0.3333 0.0000  plane waves:   17977
 k-point 10 :   0.0000 0.5000 0.0000  plane waves:   17944
 k-point 11 :   0.2000 0.5000 0.0000  plane waves:   17950
 k-point 12 :   0.4000 0.5000 0.0000  plane waves:   17980
 k-point 13 :   0.0000 0.0000 0.2500  plane waves:   18014
 k-point 14 :   0.2000 0.0000 0.2500  plane waves:   18010
 k-point 15 :   0.4000 0.0000 0.2500  plane waves:   17976
 k-point 16 :   0.0000 0.1667 0.2500  plane waves:   17994
 k-point 17 :   0.2000 0.1667 0.2500  plane waves:   18005
 k-point 18 :   0.4000 0.1667 0.2500  plane waves:   17983
 k-point 19 :   0.0000 0.3333 0.2500  plane waves:   17983
 k-point 20 :   0.2000 0.3333 0.2500  plane waves:   17976
 k-point 21 :   0.4000 0.3333 0.2500  plane waves:   17972
 k-point 22 :   0.0000 0.5000 0.2500  plane waves:   17960
 k-point 23 :   0.2000 0.5000 0.2500  plane waves:   17998
 k-point 24 :   0.4000 0.5000 0.2500  plane waves:   17972
 k-point 25 :   0.0000 0.0000 0.5000  plane waves:   17962
 k-point 26 :   0.2000 0.0000 0.5000  plane waves:   17982
 k-point 27 :   0.4000 0.0000 0.5000  plane waves:   17990
 k-point 28 :   0.0000 0.1667 0.5000  plane waves:   17998
 k-point 29 :   0.2000 0.1667 0.5000  plane waves:   17996
 k-point 30 :   0.4000 0.1667 0.5000  plane waves:   17998
 k-point 31 :   0.0000 0.3333 0.5000  plane waves:   18010
 k-point 32 :   0.2000 0.3333 0.5000  plane waves:   18006
 k-point 33 :   0.4000 0.3333 0.5000  plane waves:   17968
 k-point 34 :   0.0000 0.5000 0.5000  plane waves:   18004
 k-point 35 :   0.2000 0.5000 0.5000  plane waves:   18000
 k-point 36 :   0.4000 0.5000 0.5000  plane waves:   17992

 maximum and minimum number of plane-waves per node :      4533     4466

 maximum number of plane-waves:     18061
 maximum index in each direction: 
   IXMAX=   16   IYMAX=   12   IZMAX=   21
   IXMIN=  -16   IYMIN=  -12   IZMIN=  -21


 real space projection operators:
  total allocation   :       4328.62 KBytes
  max/ min on nodes  :       1126.75       1037.56


 parallel 3D FFT for wavefunctions:
    minimum data exchange during FFTs selected (reduces bandwidth)
 parallel 3D FFT for charge:
    minimum data exchange during FFTs selected (reduces bandwidth)


 total amount of memory used by VASP MPI-rank0    67772. kBytes
=======================================================================

   base      :      30000. kBytes
   nonlr-proj:       2580. kBytes
   fftplans  :       2347. kBytes
   grid      :       3658. kBytes
   one-center:         93. kBytes
   wavefun   :      29094. kBytes
 
     INWAV:  cpu time    0.0000: real time    0.0000
 Broyden mixing: mesh for mixing (old mesh)
   NGX = 33   NGY = 25   NGZ = 43
  (NGX  =100   NGY  = 80   NGZ  =128)
  gives a total of  35475 points

 initial charge density was supplied:
 charge density of overlapping atoms calculated
 number of electron     144.0000000 magnetization 
 keeping initial charge density in first step


--------------------------------------------------------------------------------------------------------


 Maximum index for non-local projection operator          837
 Maximum index for augmentation-charges         1190 (set IRDMAX)


--------------------------------------------------------------------------------------------------------


 First call to EWALD:  gamma=   0.199
 Maximum number of real-space cells 3x 3x 2
 Maximum number of reciprocal cells 3x 2x 3

    FEWALD:  cpu time    0.0421: real time    0.0422


--------------------------------------- Iteration      1(   1)  ---------------------------------------


    POTLOK:  cpu time    0.0428: real time    0.0508
    SETDIJ:  cpu time    0.0074: real time    0.0075
     EDDAV:  cpu time    2.5006: real time    2.5237
 BZINTS: Fermi energy: 11.362058;144.000000 electrons
         Band energy:  87.122480;  BLOECHL correction: -0.051920
       DOS:  cpu time    0.0433: real time    0.0436
    --------------------------------------------
      LOOP:  cpu time    2.5941: real time    2.6256

 eigenvalue-minimisations  :  6336
 total energy-change (2. order) : 0.8509301E+03  (-0.5710320E+04)
 number of electron     144.0000000 magnetization 
 augmentation part      144.0000000 magnetization 

 Free energy of the ion-electron system (eV)
  ---------------------------------------------------
  alpha Z        PSCENC =       454.25479217
  Ewald energy   TEWEN  =     -6374.53395873
  -Hartree energ DENC   =      -917.06616594
  -exchange      EXHF   =         0.00000000
  -V(xc)+E(xc)   XCENC  =        48.63333928
  PAW double counting   =      3692.15173346    -3390.49189382
  entropy T*S    EENTRO =         0.00000000
  eigenvalues    EBANDS =        87.12248041
  atomic energy  EATOM  =      7250.85976021
  Solvation  Ediel_sol  =         0.00000000
  ---------------------------------------------------
  free energy    TOTEN  =       850.93008704 eV

  energy without entropy =      850.93008704  energy(sigma->0) =      850.93008704


--------------------------------------------------------------------------------------------------------




--------------------------------------- Iteration      1(   2)  ---------------------------------------


     EDDAV:  cpu time    3.0187: real time    3.0322
 BZINTS: Fermi energy:  4.791533;144.000000 electrons
         Band energy:-795.403240;  BLOECHL correction: -0.000731
       DOS:  cpu time    0.0367: real time    0.0368
    --------------------------------------------
      LOOP:  cpu time    3.0554: real time    3.0691

 eigenvalue-minimisations  :  8616
 total energy-change (2. order) :-0.8825257E+03  (-0.8538759E+03)
 number of electron     144.0000000 magnetization 
 augmentation part      144.0000000 magnetization 

 Free energy of the ion-electron system (eV)
  ---------------------------------------------------
  alpha Z        PSCENC =       454.25479217
  Ewald energy   TEWEN  =     -6374.53395873
  -Hartree energ DENC   =      -917.06616594
  -exchange      EXHF   =         0.00000000
  -V(xc)+E(xc)   XCENC  =        48.63333928
  PAW double counting   =      3692.15173346    -3390.49189382
  entropy T*S    EENTRO =         0.00000000
  eigenvalues    EBANDS =      -795.40324020
  atomic energy  EATOM  =      7250.85976021
  Solvation  Ediel_sol  =         0.00000000
  ---------------------------------------------------
  free energy    TOTEN  =       -31.59563357 eV

  energy without entropy =      -31.59563357  energy(sigma->0) =      -31.59563357


--------------------------------------------------------------------------------------------------------




--------------------------------------- Iteration      1(   3)  ---------------------------------------


     EDDAV:  cpu time    2.8005: real time    2.8132
 BZINTS: Fermi energy:  2.913937;144.000000 electrons
         Band energy:-875.706572;  BLOECHL correction:  0.000000
       DOS:  cpu time    0.0085: real time    0.0085
    --------------------------------------------
      LOOP:  cpu time    2.8090: real time    2.8218

 eigenvalue-minimisations  :  7752
 total energy-change (2. order) :-0.8030333E+02  (-0.7945813E+02)
 number of electron     144.0000000 magnetization 
 augmentation part      144.0000000 magnetization 

 Free energy of the ion-electron system (eV)
  ---------------------------------------------------
  alpha Z        PSCENC =       454.25479217
  Ewald energy   TEWEN  =     -6374.53395873
  -Hartree energ DENC   =      -917.06616594
  -exchange      EXHF   =         0.00000000
  -V(xc)+E(xc)   XCENC  =        48.63333928
  PAW double counting   =      3692.15173346    -3390.49189382
  entropy T*S    EENTRO =         0.00000000
  eigenvalues    EBANDS =      -875.70657167
  atomic energy  EATOM  =      7250.85976021
  Solvation  Ediel_sol  =         0.00000000
  ---------------------------------------------------
  free energy    TOTEN  =      -111.89896504 eV

  energy without entropy =     -111.89896504  energy(sigma->0) =     -111.89896504


--------------------------------------------------------------------------------------------------------




--------------------------------------- Iteration      1(   4)  ---------------------------------------


     EDDAV:  cpu time    3.1827: real time    3.1960
 BZINTS: Fermi energy:  2.909400;144.000000 electrons
         Band energy:-878.202890;  BLOECHL correction:  0.000000
       DOS:  cpu time    0.0095: real time    0.0095
    --------------------------------------------
      LOOP:  cpu time    3.1921: real time    3.2055

 eigenvalue-minimisations  :  9304
 total energy-change (2. order) :-0.2496319E+01  (-0.2489538E+01)
 number of electron     144.0000000 magnetization 
 augmentation part      144.0000000 magnetization 

 Free energy of the ion-electron system (eV)
  ---------------------------------------------------
  alpha Z        PSCENC =       454.25479217
  Ewald energy   TEWEN  =     -6374.53395873
  -Hartree energ DENC   =      -917.06616594
  -exchange      EXHF   =         0.00000000
  -V(xc)+E(xc)   XCENC  =        48.63333928
  PAW double counting   =      3692.15173346    -3390.49189382
  entropy T*S    EENTRO =         0.00000000
  eigenvalues    EBANDS =      -878.20289018
  atomic energy  EATOM  =      7250.85976021
  Solvation  Ediel_sol  =         0.00000000
  ---------------------------------------------------
  free energy    TOTEN  =      -114.39528356 eV

  energy without entropy =     -114.39528356  energy(sigma->0) =     -114.39528356


--------------------------------------------------------------------------------------------------------




--------------------------------------- Iteration      1(   5)  ---------------------------------------


     EDDAV:  cpu time    2.9530: real time    2.9664
 BZINTS: Fermi energy:  2.899747;144.000000 electrons
         Band energy:-878.275366;  BLOECHL correction:  0.000000
       DOS:  cpu time    0.0084: real time    0.0084
    CHARGE:  cpu time    0.0946: real time    0.0950
    MIXING:  cpu time    0.0036: real time    0.0039
    --------------------------------------------
      LOOP:  cpu time    3.0596: real time    3.0736

 eigenvalue-minimisations  :  8320
 total energy-change (2. order) :-0.7247563E-01  (-0.7243812E-01)
 number of electron     144.0000000 magnetization 
 augmentation part      -17.5558891 magnetization 

 Broyden mixing:
  rms(total) = 0.81336E+00    rms(broyden)= 0.81335E+00
  rms(prec ) = 0.12910E+01
  weight for this iteration     100.00

 Free energy of the ion-electron system (eV)
  ---------------------------------------------------
  alpha Z        PSCENC =       454.25479217
  Ewald energy   TEWEN  =     -6374.53395873
  -Hartree energ DENC   =      -917.06616594
  -exchange      EXHF   =         0.00000000
  -V(xc)+E(xc)   XCENC  =        48.63333928
  PAW double counting   =      3692.15173346    -3390.49189382
  entropy T*S    EENTRO =         0.00000000
  eigenvalues    EBANDS =      -878.27536581
  atomic energy  EATOM  =      7250.85976021
  Solvation  Ediel_sol  =         0.00000000
  ---------------------------------------------------
  free energy    TOTEN  =      -114.46775919 eV

  energy without entropy =     -114.46775919  energy(sigma->0) =     -114.46775919


--------------------------------------------------------------------------------------------------------




--------------------------------------- Iteration      1(   6)  ---------------------------------------


    POTLOK:  cpu time    0.0287: real time    0.0344
    SETDIJ:  cpu time    0.0053: real time    0.0053
     EDDAV:  cpu time    2.8753: real time    2.8821
 BZINTS: Fermi energy:  3.324253;144.000000 electrons
         Band energy:-861.927866;  BLOECHL correction:  0.000000
       DOS:  cpu time    0.0083: real time    0.0083
    CHARGE:  cpu time    0.0958: real time    0.0961
    MIXING:  cpu time    0.0027: real time    0.0027
    --------------------------------------------
      LOOP:  cpu time    3.0161: real time    3.0289

 eigenvalue-minimisations  :  7408
 total energy-change (2. order) : 0.3656205E+01  (-0.1126389E+01)
 number of electron     143.9999999 magnetization 
 augmentation part      -17.4792563 magnetization 

 Broyden mixing:
  rms(total) = 0.41358E+00    rms(broyden)= 0.41358E+00
  rms(prec ) = 0.53957E+00
  weight for this iteration     100.00

 eigenvalues of (default mixing * dielectric matrix)
  average eigenvalue GAMMA=   1.7008
  1.7008

 Free energy of the ion-electron system (eV)
  ---------------------------------------------------
  alpha Z        PSCENC =       454.25479217
  Ewald energy   TEWEN  =     -6374.53395873
  -Hartree energ DENC   =      -924.89881695
  -exchange      EXHF   =         0.00000000
  -V(xc)+E(xc)   XCENC  =        50.79857001
  PAW double counting   =      3735.34824032    -3440.71227495
  entropy T*S    EENTRO =         0.00000000
  eigenvalues    EBANDS =      -861.92786623
  atomic energy  EATOM  =      7250.85976021
  Solvation  Ediel_sol  =         0.00000000
  ---------------------------------------------------
  free energy    TOTEN  =      -110.81155415 eV

  energy without entropy =     -110.81155415  energy(sigma->0) =     -110.81155415


--------------------------------------------------------------------------------------------------------




--------------------------------------- Iteration      1(   7)  ---------------------------------------


    POTLOK:  cpu time    0.0269: real time    0.0333
    SETDIJ:  cpu time    0.0045: real time    0.0045
     EDDAV:  cpu time    3.0048: real time    3.0119
 BZINTS: Fermi energy:  3.505514;144.000000 electrons
         Band energy:-856.994639;  BLOECHL correction:  0.000000
       DOS:  cpu time    0.0098: real time    0.0098
    CHARGE:  cpu time    0.0889: real time    0.0891
    MIXING:  cpu time    0.0029: real time    0.0031
    --------------------------------------------
      LOOP:  cpu time    3.1379: real time    3.1519

 eigenvalue-minimisations  :  8120
 total energy-change (2. order) : 0.1658219E-01  (-0.3855152E+00)
 number of electron     143.9999999 magnetization 
 augmentation part      -17.5411454 magnetization 

 Broyden mixing:
  rms(total) = 0.19063E+00    rms(broyden)= 0.19063E+00
  rms(prec ) = 0.23989E+00
  weight for this iteration     100.00

 eigenvalues of (default mixing * dielectric matrix)
  average eigenvalue GAMMA=   1.8759
  1.5808  2.1711

 Free energy of the ion-electron system (eV)
  ---------------------------------------------------
  alpha Z        PSCENC =       454.25479217
  Ewald energy   TEWEN  =     -6374.53395873
  -Hartree energ DENC   =      -925.72776029
  -exchange      EXHF   =         0.00000000
  -V(xc)+E(xc)   XCENC  =        52.29489924
  PAW double counting   =      3787.71943627    -3498.66750164
  entropy T*S    EENTRO =         0.00000000
  eigenvalues    EBANDS =      -856.99463918
  atomic energy  EATOM  =      7250.85976021
  Solvation  Ediel_sol  =         0.00000000
  ---------------------------------------------------
  free energy    TOTEN  =      -110.79497195 eV

  energy without entropy =     -110.79497195  energy(sigma->0) =     -110.79497195


--------------------------------------------------------------------------------------------------------




--------------------------------------- Iteration      1(   8)  ---------------------------------------


    POTLOK:  cpu time    0.0289: real time    0.0350
    SETDIJ:  cpu time    0.0063: real time    0.0063
     EDDAV:  cpu time    2.7188: real time    2.7253
 BZINTS: Fermi energy:  3.415051;144.000000 electrons
         Band energy:-856.955205;  BLOECHL correction:  0.000000
       DOS:  cpu time    0.0085: real time    0.0085
    CHARGE:  cpu time    0.0878: real time    0.0880
    MIXING:  cpu time    0.0030: real time    0.0034
    --------------------------------------------
      LOOP:  cpu time    2.8533: real time    2.8666

 eigenvalue-minimisations  :  7096
 total energy-change (2. order) :-0.5198240E-01  (-0.1110366E+00)
 number of electron     143.9999999 magnetization 
 augmentation part      -17.6235481 magnetization 

 Broyden mixing:
  rms(total) = 0.68512E-01    rms(broyden)= 0.68511E-01
  rms(prec ) = 0.12834E+00
  weight for this iteration     100.00

 eigenvalues of (default mixing * dielectric matrix)
  average eigenvalue GAMMA=   1.6510
  2.6092  1.1720  1.1720

 Free energy of the ion-electron system (eV)
  ---------------------------------------------------
  alpha Z        PSCENC =       454.25479217
  Ewald energy   TEWEN  =     -6374.53395873
  -Hartree energ DENC   =      -923.86077502
  -exchange      EXHF   =         0.00000000
  -V(xc)+E(xc)   XCENC  =        53.02845562
  PAW double counting   =      3842.04031077    -3555.68033417
  entropy T*S    EENTRO =         0.00000000
  eigenvalues    EBANDS =      -856.95520521
  atomic energy  EATOM  =      7250.85976021
  Solvation  Ediel_sol  =         0.00000000
  ---------------------------------------------------
  free energy    TOTEN  =      -110.84695435 eV

  energy without entropy =     -110.84695435  energy(sigma->0) =     -110.84695435


--------------------------------------------------------------------------------------------------------




--------------------------------------- Iteration      1(   9)  ---------------------------------------


    POTLOK:  cpu time    0.0289: real time    0.0353
    SETDIJ:  cpu time    0.0034: real time    0.0034
     EDDAV:  cpu time    2.6627: real time    2.6690
 BZINTS: Fermi energy:  3.514810;144.000000 electrons
         Band energy:-854.330949;  BLOECHL correction:  0.000000
       DOS:  cpu time    0.0098: real time    0.0098
    CHARGE:  cpu time    0.0844: real time    0.0846
    MIXING:  cpu time    0.0029: real time    0.0029
    --------------------------------------------
      LOOP:  cpu time    2.7921: real time    2.8050

 eigenvalue-minimisations  :  7032
 total energy-change (2. order) : 0.4247384E-01  (-0.3073181E-01)
 number of electron     143.9999999 magnetization 
 augmentation part      -17.6046695 magnetization 

 Broyden mixing:
  rms(total) = 0.13419E-01    rms(broyden)= 0.13418E-01
  rms(prec ) = 0.15997E-01
  weight for this iteration     100.00

 eigenvalues of (default mixing * dielectric matrix)
  average eigenvalue GAMMA=   1.6363
  2.5800  1.6573  1.1540  1.1540

 Free energy of the ion-electron system (eV)
  ---------------------------------------------------
  alpha Z        PSCENC =       454.25479217
  Ewald energy   TEWEN  =     -6374.53395873
  -Hartree energ DENC   =      -926.02896528
  -exchange      EXHF   =         0.00000000
  -V(xc)+E(xc)   XCENC  =        53.47400464
  PAW double counting   =      3849.24567828    -3563.74484312
  entropy T*S    EENTRO =         0.00000000
  eigenvalues    EBANDS =      -854.33094868
  atomic energy  EATOM  =      7250.85976021
  Solvation  Ediel_sol  =         0.00000000
  ---------------------------------------------------
  free energy    TOTEN  =      -110.80448052 eV

  energy without entropy =     -110.80448052  energy(sigma->0) =     -110.80448052


--------------------------------------------------------------------------------------------------------




--------------------------------------- Iteration      1(  10)  ---------------------------------------


    POTLOK:  cpu time    0.0276: real time    0.0332
    SETDIJ:  cpu time    0.0045: real time    0.0045
     EDDAV:  cpu time    2.9492: real time    2.9562
 BZINTS: Fermi energy:  3.511607;144.000000 electrons
         Band energy:-854.216159;  BLOECHL correction:  0.000000
       DOS:  cpu time    0.0096: real time    0.0096
    CHARGE:  cpu time    0.0937: real time    0.0940
    MIXING:  cpu time    0.0034: real time    0.0034
    --------------------------------------------
      LOOP:  cpu time    3.0880: real time    3.1009

 eigenvalue-minimisations  :  7984
 total energy-change (2. order) :-0.3841550E-02  (-0.3018650E-02)
 number of electron     143.9999999 magnetization 
 augmentation part      -17.6158007 magnetization 

 Broyden mixing:
  rms(total) = 0.10727E-01    rms(broyden)= 0.10727E-01
  rms(prec ) = 0.16104E-01
  weight for this iteration     100.00

 eigenvalues of (default mixing * dielectric matrix)
  average eigenvalue GAMMA=   1.7526
  3.1323  2.5409  1.0949  1.0949  0.8999

 Free energy of the ion-electron system (eV)
  ---------------------------------------------------
  alpha Z        PSCENC =       454.25479217
  Ewald energy   TEWEN  =     -6374.53395873
  -Hartree energ DENC   =      -926.37657550
  -exchange      EXHF   =         0.00000000
  -V(xc)+E(xc)   XCENC  =        53.48007986
  PAW double counting   =      3849.03432651    -3563.31058750
  entropy T*S    EENTRO =         0.00000000
  eigenvalues    EBANDS =      -854.21615909
  atomic energy  EATOM  =      7250.85976021
  Solvation  Ediel_sol  =         0.00000000
  ---------------------------------------------------
  free energy    TOTEN  =      -110.80832207 eV

  energy without entropy =     -110.80832207  energy(sigma->0) =     -110.80832207


--------------------------------------------------------------------------------------------------------




--------------------------------------- Iteration      1(  11)  ---------------------------------------


    POTLOK:  cpu time    0.0281: real time    0.0339
    SETDIJ:  cpu time    0.0067: real time    0.0067
     EDDAV:  cpu time    2.7526: real time    2.7592
 BZINTS: Fermi energy:  3.510538;144.000000 electrons
         Band energy:-853.994282;  BLOECHL correction:  0.000000
       DOS:  cpu time    0.0096: real time    0.0096
    CHARGE:  cpu time    0.0853: real time    0.0855
    MIXING:  cpu time    0.0027: real time    0.0028
    --------------------------------------------
      LOOP:  cpu time    2.8851: real time    2.8977

 eigenvalue-minimisations  :  7256
 total energy-change (2. order) :-0.7145294E-04  (-0.2956304E-03)
 number of electron     143.9999999 magnetization 
 augmentation part      -17.6153960 magnetization 

 Broyden mixing:
  rms(total) = 0.22076E-02    rms(broyden)= 0.22074E-02
  rms(prec ) = 0.34230E-02
  weight for this iteration     100.00

 eigenvalues of (default mixing * dielectric matrix)
  average eigenvalue GAMMA=   1.6211
  2.9803  2.4034  1.0986  1.0986  1.0728  1.0728

 Free energy of the ion-electron system (eV)
  ---------------------------------------------------
  alpha Z        PSCENC =       454.25479217
  Ewald energy   TEWEN  =     -6374.53395873
  -Hartree energ DENC   =      -926.76966123
  -exchange      EXHF   =         0.00000000
  -V(xc)+E(xc)   XCENC  =        53.51275938
  PAW double counting   =      3850.76772413    -3564.90552793
  entropy T*S    EENTRO =         0.00000000
  eigenvalues    EBANDS =      -853.99428152
  atomic energy  EATOM  =      7250.85976021
  Solvation  Ediel_sol  =         0.00000000
  ---------------------------------------------------
  free energy    TOTEN  =      -110.80839352 eV

  energy without entropy =     -110.80839352  energy(sigma->0) =     -110.80839352


--------------------------------------------------------------------------------------------------------




--------------------------------------- Iteration      1(  12)  ---------------------------------------


    POTLOK:  cpu time    0.0287: real time    0.0350
    SETDIJ:  cpu time    0.0036: real time    0.0036
     EDDAV:  cpu time    3.1489: real time    3.1564
 BZINTS: Fermi energy:  3.507249;144.000000 electrons
         Band energy:-853.973886;  BLOECHL correction:  0.000000
       DOS:  cpu time    0.0098: real time    0.0098
    CHARGE:  cpu time    0.0910: real time    0.0912
    MIXING:  cpu time    0.0035: real time    0.0035
    --------------------------------------------
      LOOP:  cpu time    3.2854: real time    3.2995

 eigenvalue-minimisations  :  8472
 total energy-change (2. order) :-0.1658175E-04  (-0.3032450E-04)
 number of electron     143.9999999 magnetization 
 augmentation part      -17.6132658 magnetization 

 Broyden mixing:
  rms(total) = 0.11601E-02    rms(broyden)= 0.11601E-02
  rms(prec ) = 0.17019E-02
  weight for this iteration     100.00

 eigenvalues of (default mixing * dielectric matrix)
  average eigenvalue GAMMA=   1.6997
  3.2342  2.5387  1.7735  1.0736  1.0736  0.9178  1.2868

 Free energy of the ion-electron system (eV)
  ---------------------------------------------------
  alpha Z        PSCENC =       454.25479217
  Ewald energy   TEWEN  =     -6374.53395873
  -Hartree energ DENC   =      -926.77328136
  -exchange      EXHF   =         0.00000000
  -V(xc)+E(xc)   XCENC  =        53.51570896
  PAW double counting   =      3850.75157087    -3564.90911592
  entropy T*S    EENTRO =         0.00000000
  eigenvalues    EBANDS =      -853.97388629
  atomic energy  EATOM  =      7250.85976021
  Solvation  Ediel_sol  =         0.00000000
  ---------------------------------------------------
  free energy    TOTEN  =      -110.80841010 eV

  energy without entropy =     -110.80841010  energy(sigma->0) =     -110.80841010


--------------------------------------------------------------------------------------------------------




--------------------------------------- Iteration      1(  13)  ---------------------------------------


    POTLOK:  cpu time    0.0270: real time    0.0331
    SETDIJ:  cpu time    0.0055: real time    0.0055
     EDDAV:  cpu time    2.8696: real time    2.8764
 BZINTS: Fermi energy:  3.504825;144.000000 electrons
         Band energy:-853.956391;  BLOECHL correction:  0.000000
       DOS:  cpu time    0.0097: real time    0.0097
    CHARGE:  cpu time    0.0994: real time    0.0997
    MIXING:  cpu time    0.0030: real time    0.0031
    --------------------------------------------
      LOOP:  cpu time    3.0143: real time    3.0275

 eigenvalue-minimisations  :  7480
 total energy-change (2. order) :-0.9269344E-05  (-0.1049218E-04)
 number of electron     143.9999999 magnetization 
 augmentation part      -17.6127422 magnetization 

 Broyden mixing:
  rms(total) = 0.61866E-03    rms(broyden)= 0.61866E-03
  rms(prec ) = 0.10912E-02
  weight for this iteration     100.00

 eigenvalues of (default mixing * dielectric matrix)
  average eigenvalue GAMMA=   1.6631
  3.2260  2.4060  2.4060  1.0959  1.0959  1.0732  1.0732  0.9284

 Free energy of the ion-electron system (eV)
  ---------------------------------------------------
  alpha Z        PSCENC =       454.25479217
  Ewald energy   TEWEN  =     -6374.53395873
  -Hartree energ DENC   =      -926.80185040
  -exchange      EXHF   =         0.00000000
  -V(xc)+E(xc)   XCENC  =        53.51663517
  PAW double counting   =      3850.68319567    -3564.83060221
  entropy T*S    EENTRO =         0.00000000
  eigenvalues    EBANDS =      -853.95639125
  atomic energy  EATOM  =      7250.85976021
  Solvation  Ediel_sol  =         0.00000000
  ---------------------------------------------------
  free energy    TOTEN  =      -110.80841937 eV

  energy without entropy =     -110.80841937  energy(sigma->0) =     -110.80841937


--------------------------------------------------------------------------------------------------------




--------------------------------------- Iteration      1(  14)  ---------------------------------------


    POTLOK:  cpu time    0.0286: real time    0.0346
    SETDIJ:  cpu time    0.0046: real time    0.0046
     EDDAV:  cpu time    2.4388: real time    2.4447
 BZINTS: Fermi energy:  3.502560;144.000000 electrons
         Band energy:-853.944159;  BLOECHL correction:  0.000000
       DOS:  cpu time    0.0097: real time    0.0097
    CHARGE:  cpu time    0.0854: real time    0.0857
    MIXING:  cpu time    0.0031: real time    0.0031
    --------------------------------------------
      LOOP:  cpu time    2.5703: real time    2.5824

 eigenvalue-minimisations  :  6032
 total energy-change (2. order) : 0.2118722E-05  (-0.3020111E-05)
 number of electron     143.9999999 magnetization 
 augmentation part      -17.6122938 magnetization 

 Broyden mixing:
  rms(total) = 0.15379E-03    rms(broyden)= 0.15378E-03
  rms(prec ) = 0.19610E-03
  weight for this iteration     100.00

 eigenvalues of (default mixing * dielectric matrix)
  average eigenvalue GAMMA=   1.7092
  3.3123  2.4824  2.4824  1.8046  1.1107  1.1107  1.1298  0.9750  0.9750

 Free energy of the ion-electron system (eV)
  ---------------------------------------------------
  alpha Z        PSCENC =       454.25479217
  Ewald energy   TEWEN  =     -6374.53395873
  -Hartree energ DENC   =      -926.80722115
  -exchange      EXHF   =         0.00000000
  -V(xc)+E(xc)   XCENC  =        53.51797736
  PAW double counting   =      3850.59370141    -3564.74930903
  entropy T*S    EENTRO =         0.00000000
  eigenvalues    EBANDS =      -853.94415949
  atomic energy  EATOM  =      7250.85976021
  Solvation  Ediel_sol  =         0.00000000
  ---------------------------------------------------
  free energy    TOTEN  =      -110.80841725 eV

  energy without entropy =     -110.80841725  energy(sigma->0) =     -110.80841725


--------------------------------------------------------------------------------------------------------




--------------------------------------- Iteration      1(  15)  ---------------------------------------


    POTLOK:  cpu time    0.0282: real time    0.0345
    SETDIJ:  cpu time    0.0048: real time    0.0048
     EDDAV:  cpu time    2.1512: real time    2.1563
 BZINTS: Fermi energy:  3.500768;144.000000 electrons
         Band energy:-853.946785;  BLOECHL correction:  0.000000
       DOS:  cpu time    0.0095: real time    0.0096
    --------------------------------------------
      LOOP:  cpu time    2.1936: real time    2.2051

 eigenvalue-minimisations  :  4936
 total energy-change (2. order) : 0.4845278E-06  (-0.1856332E-06)
 number of electron     143.9999999 magnetization 
 augmentation part      -17.6122938 magnetization 

 Free energy of the ion-electron system (eV)
  ---------------------------------------------------
  alpha Z        PSCENC =       454.25479217
  Ewald energy   TEWEN  =     -6374.53395873
  -Hartree energ DENC   =      -926.80438961
  -exchange      EXHF   =         0.00000000
  -V(xc)+E(xc)   XCENC  =        53.51756013
  PAW double counting   =      3850.56513119    -3564.72052716
  entropy T*S    EENTRO =         0.00000000
  eigenvalues    EBANDS =      -853.94678496
  atomic energy  EATOM  =      7250.85976021
  Solvation  Ediel_sol  =         0.00000000
  ---------------------------------------------------
  free energy    TOTEN  =      -110.80841677 eV

  energy without entropy =     -110.80841677  energy(sigma->0) =     -110.80841677


--------------------------------------------------------------------------------------------------------




 average (electrostatic) potential at core
  the test charge radii are     1.2192  0.9892
  (the norm of the test charge is              1.0000)
       1 -36.3830       2 -36.3830       3 -36.3830       4 -36.3830       5 -36.4744
       6 -36.4744       7 -36.4744       8 -36.4744       9 -85.2083      10 -85.2083
      11 -85.2083      12 -85.2083      13 -85.2083      14 -85.2083      15 -85.2083
      16 -85.2083      17 -85.2680      18 -85.2680      19 -85.2680      20 -85.2680
      21 -85.1718      22 -85.1718      23 -85.1718      24 -85.1718
 
 
 
 E-fermi :   3.5008     XC(G=0):  -8.8090     alpha+bet :-10.2470


 k-point     1 :       0.0000    0.0000    0.0000
  band No.  band energies     occupation 
      1     -24.1383      2.00000
      2     -24.1333      2.00000
      3     -24.1301      2.00000
      4     -24.1300      2.00000
      5     -24.0673      2.00000
      6     -24.0645      2.00000
      7     -24.0607      2.00000
      8     -24.0587      2.00000
      9      -9.6837      2.00000
     10      -9.6691      2.00000
     11      -9.6283      2.00000
     12      -9.6253      2.00000
     13      -9.5867      2.00000
     14      -9.5439      2.00000
     15      -9.5407      2.00000
     16      -9.5264      2.00000
     17      -9.5219      2.00000
     18      -9.4922      2.00000
     19      -9.4873      2.00000
     20      -9.4867      2.00000
     21      -9.4468      2.00000
     22      -9.4138      2.00000
     23      -9.3875      2.00000
     24      -9.3864      2.00000
     25      -9.3806      2.00000
     26      -9.3629      2.00000
     27      -9.3472      2.00000
     28      -9.3457      2.00000
     29      -9.3373      2.00000
     30      -9.3284      2.00000
     31      -9.3193      2.00000
     32      -9.3137      2.00000
     33      -7.3308      2.00000
     34      -7.0958      2.00000
     35      -7.0598      2.00000
     36      -7.0421      2.00000
     37      -2.6581      2.00000
     38      -2.6069      2.00000
     39      -2.3393      2.00000
     40      -2.3313      2.00000
     41      -2.2452      2.00000
     42      -2.2422      2.00000
     43      -2.2421      2.00000
     44      -2.1861      2.00000
     45      -2.1376      2.00000
     46      -2.0868      2.00000
     47      -2.0529      2.00000
     48      -1.8842      2.00000
     49      -0.0693      2.00000
     50       0.9835      2.00000
     51       1.1207      2.00000
     52       1.1613      2.00000
     53       1.1989      2.00000
     54       1.4781      2.00000
     55       1.6863      2.00000
     56       1.7649      2.00000
     57       1.7713      2.00000
     58       1.8100      2.00000
     59       1.8654      2.00000
     60       2.0474      2.00000
     61       2.0540      2.00000
     62       2.0654      2.00000
     63       2.1994      2.00000
     64       2.3343      2.00000
     65       2.3934      2.00000
     66       2.4610      2.00000
     67       2.4727      2.00000
     68       2.4985      2.00000
     69       2.8317      2.00000
     70       3.0595      2.00000
     71       3.1054      2.00000
     72       3.2546      2.00000
     73       4.4591      0.00000
     74       4.4952      0.00000
     75       4.8066      0.00000
     76       4.9773      0.00000
     77       4.9800      0.00000
     78       5.3196      0.00000
     79       5.4382      0.00000
     80       5.7053      0.00000
     81       5.7146      0.00000
     82       5.9632      0.00000
     83       6.0357      0.00000
     84       6.0453      0.00000
     85       6.0732      0.00000
     86       6.0836      0.00000
     87       6.1579      0.00000
     88       6.4887      0.00000

 k-point     2 :       0.2000    0.0000    0.0000
  band No.  band energies     occupation 
      1     -24.1377      2.00000
      2     -24.1336      2.00000
      3     -24.1302      2.00000
      4     -24.1302      2.00000
      5     -24.0666      2.00000
      6     -24.0640      2.00000
      7     -24.0612      2.00000
      8     -24.0593      2.00000
      9      -9.6932      2.00000
     10      -9.6521      2.00000
     11      -9.6370      2.00000
     12      -9.6191      2.00000
     13      -9.5640      2.00000
     14      -9.5364      2.00000
     15      -9.5324      2.00000
     16      -9.5319      2.00000
     17      -9.5276      2.00000
     18      -9.4953      2.00000
     19      -9.4950      2.00000
     20      -9.4931      2.00000
     21      -9.4625      2.00000
     22      -9.3997      2.00000
     23      -9.3959      2.00000
     24      -9.3828      2.00000
     25      -9.3756      2.00000
     26      -9.3621      2.00000
     27      -9.3496      2.00000
     28      -9.3485      2.00000
     29      -9.3400      2.00000
     30      -9.3371      2.00000
     31      -9.3271      2.00000
     32      -9.3166      2.00000
     33      -7.2936      2.00000
     34      -7.0835      2.00000
     35      -7.0748      2.00000
     36      -7.0397      2.00000
     37      -2.6577      2.00000
     38      -2.6027      2.00000
     39      -2.4206      2.00000
     40      -2.3310      2.00000
     41      -2.3220      2.00000
     42      -2.2234      2.00000
     43      -2.1920      2.00000
     44      -2.1592      2.00000
     45      -2.1319      2.00000
     46      -2.1125      2.00000
     47      -2.0702      2.00000
     48      -2.0210      2.00000
     49       0.0839      2.00000
     50       1.0603      2.00000
     51       1.0706      2.00000
     52       1.0895      2.00000
     53       1.1921      2.00000
     54       1.6374      2.00000
     55       1.6538      2.00000
     56       1.7895      2.00000
     57       1.8731      2.00000
     58       1.9076      2.00000
     59       1.9570      2.00000
     60       1.9648      2.00000
     61       2.1561      2.00000
     62       2.1767      2.00000
     63       2.1949      2.00000
     64       2.4062      2.00000
     65       2.4087      2.00000
     66       2.4093      2.00000
     67       2.4729      2.00000
     68       2.5395      2.00000
     69       2.8137      2.00000
     70       3.0254      2.00000
     71       3.1042      2.00000
     72       3.1611      2.00000
     73       4.4347      0.00000
     74       4.5213      0.00000
     75       4.7659      0.00000
     76       4.9317      0.00000
     77       4.9808      0.00000
     78       5.2793      0.00000
     79       5.3793      0.00000
     80       5.3825      0.00000
     81       5.4576      0.00000
     82       5.7951      0.00000
     83       5.8522      0.00000
     84       6.0688      0.00000
     85       6.3089      0.00000
     86       6.4148      0.00000
     87       6.4605      0.00000
     88       6.5225      0.00000

 k-point     3 :       0.4000    0.0000    0.0000
  band No.  band energies     occupation 
      1     -24.1362      2.00000
      2     -24.1346      2.00000
      3     -24.1305      2.00000
      4     -24.1304      2.00000
      5     -24.0649      2.00000
      6     -24.0628      2.00000
      7     -24.0626      2.00000
      8     -24.0609      2.00000
      9      -9.6950      2.00000
     10      -9.6817      2.00000
     11      -9.5939      2.00000
     12      -9.5749      2.00000
     13      -9.5604      2.00000
     14      -9.5482      2.00000
     15      -9.5265      2.00000
     16      -9.5249      2.00000
     17      -9.5103      2.00000
     18      -9.5080      2.00000
     19      -9.4991      2.00000
     20      -9.4908      2.00000
     21      -9.4904      2.00000
     22      -9.4479      2.00000
     23      -9.3948      2.00000
     24      -9.3798      2.00000
     25      -9.3650      2.00000
     26      -9.3625      2.00000
     27      -9.3623      2.00000
     28      -9.3514      2.00000
     29      -9.3466      2.00000
     30      -9.3335      2.00000
     31      -9.3280      2.00000
     32      -9.3187      2.00000
     33      -7.2078      2.00000
     34      -7.1243      2.00000
     35      -7.0581      2.00000
     36      -7.0413      2.00000
     37      -2.6478      2.00000
     38      -2.5881      2.00000
     39      -2.5306      2.00000
     40      -2.3937      2.00000
     41      -2.2749      2.00000
     42      -2.2129      2.00000
     43      -2.2051      2.00000
     44      -2.2049      2.00000
     45      -2.1748      2.00000
     46      -2.1222      2.00000
     47      -2.1164      2.00000
     48      -2.1146      2.00000
     49       0.4103      2.00000
     50       0.7811      2.00000
     51       1.0233      2.00000
     52       1.0500      2.00000
     53       1.4434      2.00000
     54       1.6096      2.00000
     55       1.8545      2.00000
     56       1.9043      2.00000
     57       1.9225      2.00000
     58       1.9364      2.00000
     59       1.9975      2.00000
     60       2.1332      2.00000
     61       2.2668      2.00000
     62       2.2742      2.00000
     63       2.2779      2.00000
     64       2.3614      2.00000
     65       2.4461      2.00000
     66       2.5318      2.00000
     67       2.5363      2.00000
     68       2.7456      2.00000
     69       2.8245      2.00000
     70       2.8436      2.00000
     71       2.9297      2.00000
     72       3.0315      2.00000
     73       4.5983      0.00000
     74       4.6195      0.00000
     75       4.7243      0.00000
     76       4.7969      0.00000
     77       4.8600      0.00000
     78       4.8899      0.00000
     79       5.1104      0.00000
     80       5.1837      0.00000
     81       5.5757      0.00000
     82       5.8463      0.00000
     83       5.8800      0.00000
     84       6.0037      0.00000
     85       6.0305      0.00000
     86       6.1947      0.00000
     87       6.3746      0.00000
     88       6.4721      0.00000

 k-point     4 :       0.0000    0.1667    0.0000
  band No.  band energies     occupation 
      1     -24.1373      2.00000
      2     -24.1330      2.00000
      3     -24.1301      2.00000
      4     -24.1301      2.00000
      5     -24.0677      2.00000
      6     -24.0651      2.00000
      7     -24.0606      2.00000
      8     -24.0590      2.00000
      9      -9.6737      2.00000
     10      -9.6734      2.00000
     11      -9.6663      2.00000
     12      -9.5882      2.00000
     13      -9.5866      2.00000
     14      -9.5775      2.00000
     15      -9.5672      2.00000
     16      -9.5664      2.00000
     17      -9.5412      2.00000
     18      -9.4857      2.00000
     19      -9.4636      2.00000
     20      -9.4607      2.00000
     21      -9.4281      2.00000
     22      -9.4194      2.00000
     23      -9.3879      2.00000
     24      -9.3848      2.00000
     25      -9.3781      2.00000
     26      -9.3679      2.00000
     27      -9.3417      2.00000
     28      -9.3402      2.00000
     29      -9.3368      2.00000
     30      -9.3324      2.00000
     31      -9.3228      2.00000
     32      -9.3093      2.00000
     33      -7.2818      2.00000
     34      -7.0853      2.00000
     35      -7.0579      2.00000
     36      -7.0434      2.00000
     37      -2.6015      2.00000
     38      -2.5559      2.00000
     39      -2.3285      2.00000
     40      -2.3244      2.00000
     41      -2.3028      2.00000
     42      -2.2678      2.00000
     43      -2.2219      2.00000
     44      -2.1704      2.00000
     45      -2.1672      2.00000
     46      -2.1233      2.00000
     47      -2.0817      2.00000
     48      -1.8930      2.00000
     49       0.1726      2.00000
     50       1.0489      2.00000
     51       1.1692      2.00000
     52       1.2269      2.00000
     53       1.2302      2.00000
     54       1.3872      2.00000
     55       1.4538      2.00000
     56       1.7514      2.00000
     57       1.7928      2.00000
     58       1.8998      2.00000
     59       1.9691      2.00000
     60       1.9988      2.00000
     61       2.0984      2.00000
     62       2.1247      2.00000
     63       2.2027      2.00000
     64       2.2227      2.00000
     65       2.3683      2.00000
     66       2.4094      2.00000
     67       2.5014      2.00000
     68       2.5533      2.00000
     69       2.7449      2.00000
     70       2.8129      2.00000
     71       3.2586      2.00000
     72       3.3434      2.00000
     73       4.3178      0.00000
     74       4.4300      0.00000
     75       4.9085      0.00000
     76       5.0537      0.00000
     77       5.1333      0.00000
     78       5.2353      0.00000
     79       5.3920      0.00000
     80       5.4831      0.00000
     81       5.6708      0.00000
     82       5.7304      0.00000
     83       5.8333      0.00000
     84       6.0365      0.00000
     85       6.0436      0.00000
     86       6.0465      0.00000
     87       6.1930      0.00000
     88       6.3102      0.00000

 k-point     5 :       0.2000    0.1667    0.0000
  band No.  band energies     occupation 
      1     -24.1368      2.00000
      2     -24.1332      2.00000
      3     -24.1303      2.00000
      4     -24.1301      2.00000
      5     -24.0670      2.00000
      6     -24.0646      2.00000
      7     -24.0612      2.00000
      8     -24.0596      2.00000
      9      -9.6900      2.00000
     10      -9.6800      2.00000
     11      -9.6458      2.00000
     12      -9.5931      2.00000
     13      -9.5822      2.00000
     14      -9.5696      2.00000
     15      -9.5633      2.00000
     16      -9.5492      2.00000
     17      -9.5385      2.00000
     18      -9.4863      2.00000
     19      -9.4777      2.00000
     20      -9.4638      2.00000
     21      -9.4345      2.00000
     22      -9.4155      2.00000
     23      -9.4011      2.00000
     24      -9.3816      2.00000
     25      -9.3700      2.00000
     26      -9.3617      2.00000
     27      -9.3594      2.00000
     28      -9.3435      2.00000
     29      -9.3411      2.00000
     30      -9.3277      2.00000
     31      -9.3219      2.00000
     32      -9.3125      2.00000
     33      -7.2502      2.00000
     34      -7.0744      2.00000
     35      -7.0694      2.00000
     36      -7.0401      2.00000
     37      -2.5962      2.00000
     38      -2.5695      2.00000
     39      -2.4165      2.00000
     40      -2.3316      2.00000
     41      -2.2897      2.00000
     42      -2.2781      2.00000
     43      -2.2281      2.00000
     44      -2.1830      2.00000
     45      -2.1745      2.00000
     46      -2.1036      2.00000
     47      -2.1035      2.00000
     48      -1.9805      2.00000
     49       0.2955      2.00000
     50       1.1229      2.00000
     51       1.1442      2.00000
     52       1.1809      2.00000
[...]
     17      -9.5348      2.00000
     18      -9.5348      2.00000
     19      -9.4594      2.00000
     20      -9.4594      2.00000
     21      -9.4526      2.00000
     22      -9.4526      2.00000
     23      -9.4069      2.00000
     24      -9.4069      2.00000
     25      -9.3833      2.00000
     26      -9.3833      2.00000
     27      -9.3485      2.00000
     28      -9.3485      2.00000
     29      -9.3347      2.00000
     30      -9.3347      2.00000
     31      -9.3327      2.00000
     32      -9.3327      2.00000
     33      -7.1019      2.00000
     34      -7.1019      2.00000
     35      -7.0945      2.00000
     36      -7.0945      2.00000
     37      -2.6733      2.00000
     38      -2.6733      2.00000
     39      -2.3850      2.00000
     40      -2.3850      2.00000
     41      -2.2476      2.00000
     42      -2.2476      2.00000
     43      -2.1807      2.00000
     44      -2.1807      2.00000
     45      -2.1413      2.00000
     46      -2.1413      2.00000
     47      -2.0153      2.00000
     48      -2.0153      2.00000
     49       0.9611      2.00000
     50       0.9611      2.00000
     51       1.1064      2.00000
     52       1.1064      2.00000
     53       1.3854      2.00000
     54       1.3854      2.00000
     55       1.5393      2.00000
     56       1.5393      2.00000
     57       1.9222      2.00000
     58       1.9222      2.00000
     59       1.9937      2.00000
     60       1.9937      2.00000
     61       2.2222      2.00000
     62       2.2222      2.00000
     63       2.2619      2.00000
     64       2.2619      2.00000
     65       2.5033      2.00000
     66       2.5033      2.00000
     67       2.5148      2.00000
     68       2.5148      2.00000
     69       2.8670      2.00000
     70       2.8670      2.00000
     71       3.0708      2.00000
     72       3.0708      2.00000
     73       4.2815      0.00000
     74       4.2815      0.00000
     75       4.3940      0.00000
     76       4.3940      0.00000
     77       4.8312      0.00000
     78       4.8312      0.00000
     79       5.0795      0.00000
     80       5.0795      0.00000
     81       5.4225      0.00000
     82       5.4225      0.00000
     83       5.5062      0.00000
     84       5.5062      0.00000
     85       5.9793      0.00000
     86       5.9793      0.00000
     87       6.2783      0.00000
     88       6.2783      0.00000

 k-point    36 :       0.4000    0.5000    0.5000
  band No.  band energies     occupation 
      1     -24.1439      2.00000
      2     -24.1439      2.00000
      3     -24.1438      2.00000
      4     -24.1438      2.00000
      5     -24.0864      2.00000
      6     -24.0864      2.00000
      7     -24.0841      2.00000
      8     -24.0841      2.00000
      9      -9.7005      2.00000
     10      -9.7005      2.00000
     11      -9.6823      2.00000
     12      -9.6823      2.00000
     13      -9.6313      2.00000
     14      -9.6313      2.00000
     15      -9.6173      2.00000
     16      -9.6173      2.00000
     17      -9.5091      2.00000
     18      -9.5091      2.00000
     19      -9.4693      2.00000
     20      -9.4693      2.00000
     21      -9.4203      2.00000
     22      -9.4203      2.00000
     23      -9.4120      2.00000
     24      -9.4120      2.00000
     25      -9.3716      2.00000
     26      -9.3716      2.00000
     27      -9.3610      2.00000
     28      -9.3610      2.00000
     29      -9.3415      2.00000
     30      -9.3415      2.00000
     31      -9.3397      2.00000
     32      -9.3397      2.00000
     33      -7.0903      2.00000
     34      -7.0903      2.00000
     35      -7.0875      2.00000
     36      -7.0875      2.00000
     37      -2.6360      2.00000
     38      -2.6360      2.00000
     39      -2.5405      2.00000
     40      -2.5405      2.00000
     41      -2.2377      2.00000
     42      -2.2377      2.00000
     43      -2.2084      2.00000
     44      -2.2084      2.00000
     45      -2.1085      2.00000
     46      -2.1085      2.00000
     47      -2.0498      2.00000
     48      -2.0498      2.00000
     49       1.0361      2.00000
     50       1.0361      2.00000
     51       1.1206      2.00000
     52       1.1206      2.00000
     53       1.5633      2.00000
     54       1.5633      2.00000
     55       1.7179      2.00000
     56       1.7179      2.00000
     57       1.9003      2.00000
     58       1.9004      2.00000
     59       1.9913      2.00000
     60       1.9913      2.00000
     61       2.1513      2.00000
     62       2.1513      2.00000
     63       2.2002      2.00000
     64       2.2002      2.00000
     65       2.5629      2.00000
     66       2.5629      2.00000
     67       2.5951      2.00000
     68       2.5951      2.00000
     69       2.9908      2.00000
     70       2.9908      2.00000
     71       3.0026      2.00000
     72       3.0027      2.00000
     73       4.3507      0.00000
     74       4.3507      0.00000
     75       4.5206      0.00000
     76       4.5206      0.00000
     77       4.6622      0.00000
     78       4.6622      0.00000
     79       4.9163      0.00000
     80       4.9163      0.00000
     81       5.3597      0.00000
     82       5.3597      0.00000
     83       5.5486      0.00000
     84       5.5486      0.00000
     85       5.8378      0.00000
     86       5.8378      0.00000
     87       5.9634      0.00000
     88       5.9634      0.00000


--------------------------------------------------------------------------------------------------------


 soft charge-density along one line, spin component           1
         0         1         2         3         4         5         6         7         8         9
 total charge-density along one line
 
 pseudopotential strength for first ion, spin component:           1
  2.558  -4.564  -0.000   0.004   0.002  -0.000   0.002   0.001
 -4.564  -2.786   0.000  -0.001  -0.000  -0.000   0.001   0.000
 -0.000   0.000  -7.369  -0.000  -0.000   1.150  -0.000  -0.000
  0.004  -0.001  -0.000  -7.368  -0.001  -0.000   1.152  -0.002
  0.002  -0.000  -0.000  -0.001  -7.368  -0.000  -0.002   1.151
 -0.000  -0.000   1.150  -0.000  -0.000   7.441  -0.000  -0.000
  0.002   0.001  -0.000   1.152  -0.002  -0.000   7.441  -0.000
  0.001   0.000  -0.000  -0.002   1.151  -0.000  -0.000   7.441
 -0.000   0.000   0.001  -0.000  -0.000   0.000  -0.000  -0.000
 -0.000   0.000   0.001  -0.000  -0.000   0.001  -0.000  -0.000
  0.000  -0.000   0.000   0.001  -0.000   0.000   0.001   0.000
 -0.001   0.000  -0.000   0.001   0.001  -0.000   0.001   0.001
  0.000  -0.000   0.000  -0.000   0.001   0.000  -0.000   0.001
  0.000   0.000  -0.000   0.000   0.000   0.000   0.000   0.000
  0.000   0.000  -0.000   0.000   0.000  -0.000   0.000   0.000
 -0.000  -0.000  -0.000  -0.000  -0.000  -0.000  -0.000  -0.000
  0.000   0.000   0.000  -0.000  -0.000   0.000  -0.000  -0.000
 -0.000  -0.000  -0.000   0.000  -0.000  -0.000   0.000  -0.000
 total augmentation occupancy for first ion, spin component:           1
  2.094  -0.233  -0.000  -0.006  -0.004  -0.000   0.003   0.002   0.000   0.000   0.002  -0.011  -0.001  -0.000  -0.000  -0.002
 -0.233   0.579   0.000   0.017   0.012   0.000  -0.007  -0.003  -0.000  -0.000  -0.004   0.022   0.004   0.000   0.000   0.005
  0.000   0.000   2.013  -0.000   0.000  -0.010   0.000   0.000  -0.013  -0.001   0.000   0.000  -0.000   0.017   0.003   0.000
 -0.006   0.017  -0.000   2.011   0.002   0.000  -0.009  -0.001   0.000  -0.000   0.006   0.027   0.004   0.000   0.000   0.003
 -0.004   0.012   0.000   0.002   2.012   0.000  -0.001  -0.010  -0.000  -0.000   0.014   0.010   0.014   0.000  -0.000  -0.020
  0.000   0.000  -0.010   0.000   0.000   0.010  -0.000   0.000   0.006   0.003   0.000   0.000   0.000  -0.010  -0.005   0.000
  0.003  -0.007   0.000  -0.009  -0.001   0.000   0.009   0.001   0.000  -0.000  -0.002  -0.010  -0.003  -0.000  -0.000   0.004
  0.002  -0.003   0.000  -0.001  -0.010  -0.000   0.001   0.010   0.000   0.000  -0.006  -0.004  -0.005  -0.000   0.000   0.011
  0.000   0.000  -0.013   0.000  -0.000   0.006   0.000   0.000   0.118  -0.039  -0.000  -0.000   0.000  -0.218   0.074  -0.000
  0.000   0.000  -0.001  -0.000   0.000   0.003   0.000   0.000  -0.039   0.076  -0.000   0.000  -0.000   0.074  -0.140  -0.000
  0.002  -0.004  -0.000   0.006   0.014   0.000  -0.002  -0.006  -0.000  -0.000   0.104   0.029   0.011   0.000  -0.000  -0.192
 -0.011   0.022   0.000   0.027   0.010   0.000  -0.010  -0.004  -0.000   0.000   0.029   0.111   0.029   0.000  -0.000  -0.057
 -0.001   0.004  -0.000   0.004   0.014   0.000  -0.003  -0.005   0.000   0.000   0.011   0.029   0.083  -0.000   0.000  -0.017
  0.000   0.000   0.017   0.000   0.000  -0.010   0.000  -0.000  -0.218   0.074   0.000   0.000  -0.000   0.429  -0.153   0.000
 -0.000   0.000   0.003   0.000  -0.000  -0.005   0.000   0.000   0.074  -0.140   0.000   0.000   0.000  -0.153   0.272   0.000
 -0.002   0.005   0.000   0.003  -0.020   0.000   0.004   0.011   0.000   0.000  -0.192  -0.057  -0.017  -0.000  -0.000   0.376
  0.010  -0.031  -0.000  -0.038  -0.003   0.000   0.018   0.006  -0.000   0.000  -0.057  -0.203  -0.053   0.000   0.000   0.123
  0.004  -0.014   0.000  -0.001  -0.018  -0.000   0.005   0.008  -0.000   0.000  -0.017  -0.053  -0.150   0.000  -0.000   0.031


------------------------ aborting loop because EDIFF is reached ----------------------------------------


    CHARGE:  cpu time    0.0858: real time    0.0860
    FORLOC:  cpu time    0.0038: real time    0.0038
    FORNL :  cpu time    0.4327: real time    0.4338
    STRESS:  cpu time    1.3744: real time    1.3777
    FORCOR:  cpu time    0.0266: real time    0.0267
    FORHAR:  cpu time    0.0099: real time    0.0100
    MIXING:  cpu time    0.0025: real time    0.0025
    OFIELD:  cpu time    0.0000: real time    0.0000

  FORCE on cell =-STRESS in cart. coord.  units (eV):
  Direction    XX          YY          ZZ          XY          YZ          ZX
  --------------------------------------------------------------------------------------
  Alpha Z   453.42725   453.42725   453.42725
  Ewald   -2141.46716 -2117.56221 -2106.93288    -0.00000    -0.00000    -0.00015
  Hartree   299.12714   315.96438   317.23927     0.00000    -0.00000     0.00002
  E(xc)    -464.11266  -464.05833  -463.98931    -0.00000    -0.00000    -0.00000
  Local     125.99777    91.56099    80.00638     0.00000     0.00000     0.00010
  n-local   344.33947   341.49177   342.23397    -0.09694    -0.05391    -0.14218
  augment  -169.39703  -168.40409  -168.62618    -0.00000    -0.00000    -0.00000
  Kinetic  1551.98168  1547.47459  1546.56849     0.58019    -0.73620    -0.05265
  Fock        0.00000     0.00000     0.00000     0.00000     0.00000     0.00000
  -------------------------------------------------------------------------------------
  Total      -0.10354    -0.10566    -0.07303     0.00000     0.00000     0.00000
  in kB      -0.23371    -0.23851    -0.16485     0.00000     0.00000     0.00000
  external pressure =       -0.21 kB  Pullay stress =        0.00 kB


 VOLUME and BASIS-vectors are now :
 -----------------------------------------------------------------------------
  energy-cutoff  :      500.00
  volume of cell :      709.78
      direct lattice vectors                 reciprocal lattice vectors
     9.054805467 -0.000000000  0.000000000     0.110438596 -0.000000000  0.000000000
     0.000000000  6.764394516  0.000000000     0.000000000  0.147832891  0.000000000
     0.000000000  0.000000000 11.588124653     0.000000000  0.000000000  0.086295240

  length of vectors
     9.054805467  6.764394516 11.588124653     0.110438596  0.147832891  0.086295240


 FORCES acting on ions
    electron-ion (+dipol)            ewald-force                    non-local-force                 convergence-correction
 -----------------------------------------------------------------------------------------------
   0.227E+01 0.815E-04 0.240E+01   -.262E+01 0.137E-04 -.279E+01   0.352E+00 -.476E-18 0.387E+00   -.304E-04 -.740E-09 -.174E-03
   -.227E+01 0.918E-05 -.240E+01   0.262E+01 -.195E-04 0.279E+01   -.352E+00 -.146E-17 -.387E+00   0.304E-04 -.608E-09 0.174E-03
   -.227E+01 0.484E-05 0.240E+01   0.262E+01 -.195E-04 -.279E+01   -.352E+00 0.889E-19 0.387E+00   0.304E-04 -.615E-09 -.174E-03
   0.227E+01 0.771E-04 -.240E+01   -.262E+01 0.137E-04 0.279E+01   0.352E+00 -.346E-18 -.387E+00   -.304E-04 -.748E-09 0.174E-03
   -.246E+02 0.768E-05 -.538E+01   0.236E+02 -.175E-04 0.543E+01   0.936E+00 -.971E-18 -.542E-01   0.306E-03 -.250E-08 -.832E-05
   0.246E+02 0.797E-04 0.538E+01   -.236E+02 0.168E-04 -.543E+01   -.936E+00 0.660E-18 0.542E-01   -.306E-03 -.171E-08 0.831E-05
   0.246E+02 0.774E-04 -.538E+01   -.236E+02 0.168E-04 0.543E+01   -.936E+00 0.463E-18 -.542E-01   -.306E-03 -.706E-09 -.827E-05
   -.246E+02 0.541E-05 0.538E+01   0.236E+02 -.175E-04 -.543E+01   0.936E+00 0.273E-18 0.542E-01   0.306E-03 -.150E-08 0.828E-05
   0.103E+02 0.325E+02 -.182E+02   -.107E+02 -.336E+02 0.189E+02   0.413E+00 0.112E+01 -.704E+00   0.104E-03 0.264E-03 -.990E-04
   -.103E+02 -.325E+02 0.182E+02   0.107E+02 0.336E+02 -.189E+02   -.413E+00 -.112E+01 0.704E+00   -.104E-03 -.264E-03 0.990E-04
   -.103E+02 -.325E+02 -.182E+02   0.107E+02 0.336E+02 0.189E+02   -.413E+00 -.112E+01 -.704E+00   -.104E-03 -.264E-03 -.990E-04
   0.103E+02 0.325E+02 0.182E+02   -.107E+02 -.336E+02 -.189E+02   0.413E+00 0.112E+01 0.704E+00   0.104E-03 0.264E-03 0.990E-04
   -.103E+02 0.325E+02 0.182E+02   0.107E+02 -.336E+02 -.189E+02   -.413E+00 0.112E+01 0.704E+00   -.104E-03 0.264E-03 0.990E-04
   0.103E+02 -.325E+02 -.182E+02   -.107E+02 0.336E+02 0.189E+02   0.413E+00 -.112E+01 -.704E+00   0.104E-03 -.264E-03 -.990E-04
   0.103E+02 -.325E+02 0.182E+02   -.107E+02 0.336E+02 -.189E+02   0.413E+00 -.112E+01 0.704E+00   0.104E-03 -.264E-03 0.990E-04
   -.103E+02 0.325E+02 -.182E+02   0.107E+02 -.336E+02 0.189E+02   -.413E+00 0.112E+01 -.704E+00   -.104E-03 0.264E-03 -.990E-04
   0.461E+02 -.120E-04 0.764E+00   -.478E+02 -.760E-05 -.156E+01   0.171E+01 0.115E-16 0.806E+00   0.108E-03 0.165E-08 -.438E-04
   -.461E+02 -.568E-06 -.764E+00   0.478E+02 0.790E-05 0.156E+01   -.171E+01 0.951E-17 -.806E+00   -.108E-03 0.272E-09 0.438E-04
   -.461E+02 0.710E-05 0.764E+00   0.478E+02 0.790E-05 -.156E+01   -.171E+01 -.530E-17 0.806E+00   -.108E-03 0.287E-09 -.438E-04
   0.461E+02 -.435E-05 -.764E+00   -.478E+02 -.760E-05 0.156E+01   0.171E+01 -.544E-17 -.806E+00   0.108E-03 0.166E-08 0.438E-04
   0.789E+01 -.372E-05 0.371E+02   -.779E+01 0.851E-05 -.385E+02   -.104E+00 -.842E-18 0.136E+01   0.170E-03 0.362E-09 0.190E-03
   -.789E+01 -.145E-04 -.371E+02   0.779E+01 -.886E-05 0.385E+02   0.104E+00 -.422E-18 -.136E+01   -.170E-03 0.384E-09 -.190E-03
   -.789E+01 -.424E-06 0.371E+02   0.779E+01 -.886E-05 -.385E+02   0.104E+00 0.426E-17 0.136E+01   -.170E-03 -.934E-09 0.190E-03
   0.789E+01 0.103E-04 -.371E+02   -.779E+01 0.851E-05 0.385E+02   -.104E+00 0.371E-17 -.136E+01   0.170E-03 -.956E-09 -.190E-03
 -----------------------------------------------------------------------------------------------
   -.276E-03 0.400E-03 0.618E-04   0.107E-13 0.334E-13 0.213E-13   0.000E+00 0.239E-15 -.222E-15   0.495E-09 -.944E-08 -.283E-09
 
 
 POSITION                                       TOTAL-FORCE (eV/Angst)
 -----------------------------------------------------------------------------------
      0.12709      1.69110      8.01185        -0.001024      0.000000      0.001049
      8.92772      5.07330      3.57628         0.001024     -0.000000     -0.001049
      4.40031      5.07330      2.21778         0.001024      0.000000      0.001049
      4.65449      1.69110      9.37034        -0.001024     -0.000000     -0.001049
      1.42314      5.07330     10.50065         0.002870      0.000000     -0.001254
      7.63167      1.69110      1.08748        -0.002870      0.000000      0.001254
      3.10426      1.69110      4.70658        -0.002870     -0.000000     -0.001254
      5.95054      5.07330      6.88154         0.002870      0.000000      0.001254
      1.75328      0.48768      1.69395        -0.000793     -0.004022      0.002552
      7.30152      6.27672      9.89417         0.000793      0.004022     -0.002552
      2.77412      6.27672      7.48802         0.000793      0.004022      0.002552
      6.28069      0.48768      4.10011        -0.000793     -0.004022     -0.002552
      7.30152      3.86987      9.89417         0.000793     -0.004022     -0.002552
      1.75328      2.89452      1.69395        -0.000793      0.004022      0.002552
      6.28069      2.89452      4.10011        -0.000793      0.004022     -0.002552
      2.77412      3.86987      7.48802         0.000793     -0.004022      0.002552
      0.77634      5.07330      6.84374         0.007080     -0.000000      0.006740
      8.27847      1.69110      4.74438        -0.007080      0.000000     -0.006740
      3.75107      1.69110      1.04968        -0.007080      0.000000      0.006740
      5.30374      5.07330     10.53845         0.007080     -0.000000     -0.006740
      1.78294      1.69110     11.19672        -0.002640      0.000000     -0.004049
      7.27186      5.07330      0.39140         0.002640      0.000000      0.004049
      2.74446      5.07330      5.40266         0.002640      0.000000     -0.004049
      6.31034      1.69110      6.18547        -0.002640     -0.000000      0.004049
 -----------------------------------------------------------------------------------
    total drift:                               -0.000276      0.000400      0.000062


--------------------------------------------------------------------------------------------------------



  FREE ENERGIE OF THE ION-ELECTRON SYSTEM (eV)
  ---------------------------------------------------
  free  energy   TOTEN  =      -110.81631432 eV

  energy  without entropy=     -110.81631432  energy(sigma->0) =     -110.81631432
 
 d Force = 0.2277873E-04[-0.413E-06, 0.460E-04]  d Energy = 0.4390248E-04-0.211E-04
 d Force =-0.1445892E+00[-0.145E+00,-0.144E+00]  d Ewald  = 0.1775192E+00-0.322E+00


--------------------------------------------------------------------------------------------------------


    POTLOK:  cpu time    0.0285: real time    0.0286


--------------------------------------------------------------------------------------------------------




--------------------------------------------------------------------------------------------------------


  
 reached required accuracy - stopping structural energy minimisation
 writing wavefunctions
     LOOP+:  cpu time   16.2643: real time   16.6976
    4ORBIT:  cpu time    0.0000: real time    0.0000
 BZINTS: Fermi energy:  3.479914;144.000000 electrons
         Band energy:-856.215054;  BLOECHL correction:  0.000000

 total amount of memory used by VASP MPI-rank0    67772. kBytes
=======================================================================

   base      :      30000. kBytes
   nonlr-proj:       2580. kBytes
   fftplans  :       2347. kBytes
   grid      :       3658. kBytes
   one-center:         93. kBytes
   wavefun   :      29094. kBytes
 
  
  
 General timing and accounting informations for this job:
 ========================================================
  
                  Total CPU time used (sec):      315.049
                            User time (sec):      312.622
                          System time (sec):        2.427
                         Elapsed time (sec):      319.009
  
                   Maximum memory used (kb):      154812.
                   Average memory used (kb):           0.
  
                          Minor page faults:        24255
                          Major page faults:          104
                 Voluntary context switches:        19976
