 vasp.5.4.4.18Apr17-6-g9f103f2a35 (build Nov 21 2017 15:30:27) complex          
  
 executed on             LinuxIFC date 2020.12.16  18:03:10
 running on   64 total cores
 distrk:  each k-point on   32 cores,    2 groups
 distr:  one band on NCORES_PER_BAND=   4 cores,    8 groups


--------------------------------------------------------------------------------------------------------


 INCAR:
 POTCAR:   PAW_PBE Ba_sv 06Sep2000                
 POTCAR:   PAW_PBE Si 05Jan2001                   

 ----------------------------------------------------------------------------- 
|                                                                             |
|           W    W    AA    RRRRR   N    N  II  N    N   GGGG   !!!           |
|           W    W   A  A   R    R  NN   N  II  NN   N  G    G  !!!           |
|           W    W  A    A  R    R  N N  N  II  N N  N  G       !!!           |
|           W WW W  AAAAAA  RRRRR   N  N N  II  N  N N  G  GGG   !            |
|           WW  WW  A    A  R   R   N   NN  II  N   NN  G    G                |
|           W    W  A    A  R    R  N    N  II  N    N   GGGG   !!!           |
|                                                                             |
|      You have enabled k-point parallelism (KPAR>1).                         |
|      This developmental code was originally  written by Paul Kent at ORNL,  |
|      and carefully double checked in Vienna.                                |
|      GW as well as linear response parallelism added by Martijn Marsman     |
|      and Georg Kresse.                                                      |
|      Carefully verify results versus KPAR=1.                                |
|      Report problems to Paul Kent and Vienna.                               |
|                                                                             |
 ----------------------------------------------------------------------------- 


 ----------------------------------------------------------------------------- 
|                                                                             |
|  ADVICE TO THIS USER RUNNING 'VASP/VAMP'   (HEAR YOUR MASTER'S VOICE ...):  |
|                                                                             |
|      You have switched on vdW-DFT.                                          |
|      This routine was written and supplied by Jiri Klimes.                  |
|      We recommed that you carefully read and cite the following             |
|      publication                                                            |
|      J. Klimes, D.R. Bowler, A. Michelides                                  |
|        J. Phys.: Cond Matt. 22 022201 (2010)                                |
|      J. Klimes, D.R. Bowler, A. Michelides                                  |
|        Phys. Rev. B. 83, 195131 (2011)                                      |
|      and references therein.                                                |
|                                                                             |
 ----------------------------------------------------------------------------- 

 POTCAR:   PAW_PBE Ba_sv 06Sep2000                
   VRHFIN =Ba: 5s5p6s                                                           
   LEXCH  = PE                                                                  
   EATOM  =   700.2255 eV,   51.4651 Ry                                         
                                                                                
   TITEL  = PAW_PBE Ba_sv 06Sep2000                                             
   LULTRA =        F    use ultrasoft PP ?                                      
   IUNSCR =        1    unscreen: 0-lin 1-nonlin 2-no                           
   RPACOR =    2.400    partial core radius                                     
   POMASS =  137.327; ZVAL   =   10.000    mass and valenz                      
   RCORE  =    2.800    outmost cutoff radius                                   
   RWIGS  =    3.740; RWIGS  =    1.979    wigner-seitz radius (au A)           
   ENMAX  =  187.210; ENMIN  =  140.408 eV                                      
   RCLOC  =    2.516    cutoff for local pot                                    
   LCOR   =        T    correct aug charges                                     
   LPAW   =        T    paw PP                                                  
   EAUG   =  351.165                                                            
   DEXC   =     .000                                                            
   RMAX   =    3.370    core radius for proj-oper                               
   RAUG   =    1.300    factor for augmentation sphere                          
   RDEP   =    2.976    radius for radial grids                                 
   QCUT   =   -3.709; QGAM   =    7.419    optimization parameters              
                                                                                
   Description                                                                  
     l     E      TYP  RCUT    TYP  RCUT                                        
     0   .000     23  2.800                                                     
     0   .000     23  2.800                                                     
     1   .000     23  2.700                                                     
     1  2.000     23  2.700                                                     
     2   .000     23  2.700                                                     
     2   .000     23  2.700                                                     
  local pseudopotential read in
  partial core-charges read in
  atomic valenz-charges read in
  non local Contribution for L=           0  read in
    real space projection operators read in
  non local Contribution for L=           0  read in
    real space projection operators read in
  non local Contribution for L=           1  read in
    real space projection operators read in
  non local Contribution for L=           1  read in
    real space projection operators read in
  non local Contribution for L=           2  read in
    real space projection operators read in
  non local Contribution for L=           2  read in
    real space projection operators read in
    PAW grid and wavefunctions read in
 
   number of l-projection  operators is LMAX  =           6
   number of lm-projection operators is LMMAX =          18
 
 POTCAR:   PAW_PBE Si 05Jan2001                   
   VRHFIN =Si: s2p2                                                             
   LEXCH  = PE                                                                  
   EATOM  =   103.0669 eV,    7.5752 Ry                                         
                                                                                
   TITEL  = PAW_PBE Si 05Jan2001                                                
   LULTRA =        F    use ultrasoft PP ?                                      
   IUNSCR =        1    unscreen: 0-lin 1-nonlin 2-no                           
   RPACOR =    1.500    partial core radius                                     
   POMASS =   28.085; ZVAL   =    4.000    mass and valenz                      
   RCORE  =    1.900    outmost cutoff radius                                   
   RWIGS  =    2.480; RWIGS  =    1.312    wigner-seitz radius (au A)           
   ENMAX  =  245.345; ENMIN  =  184.009 eV                                      
   ICORE  =        2    local potential                                         
   LCOR   =        T    correct aug charges                                     
   LPAW   =        T    paw PP                                                  
   EAUG   =  322.069                                                            
   DEXC   =    -.007                                                            
   RMAX   =    2.944    core radius for proj-oper                               
   RAUG   =    1.300    factor for augmentation sphere                          
   RDEP   =    1.993    radius for radial grids                                 
   QCUT   =   -4.246; QGAM   =    8.493    optimization parameters              
                                                                                
   Description                                                                  
     l     E      TYP  RCUT    TYP  RCUT                                        
     0   .000     23  1.900                                                     
     0   .000     23  1.900                                                     
     1   .000     23  1.900                                                     
     1   .000     23  1.900                                                     
     2   .000      7  1.900                                                     
  local pseudopotential read in
  partial core-charges read in
  atomic valenz-charges read in
  non local Contribution for L=           0  read in
    real space projection operators read in
  non local Contribution for L=           0  read in
    real space projection operators read in
  non local Contribution for L=           1  read in
    real space projection operators read in
  non local Contribution for L=           1  read in
    real space projection operators read in
    PAW grid and wavefunctions read in
 
   number of l-projection  operators is LMAX  =           4
   number of lm-projection operators is LMMAX =           8
 
 Optimization of the real space projectors (new method)

 maximal supplied QI-value         = 13.42
 optimisation between [QCUT,QGAM] = [ 11.40, 22.81] = [ 36.42,145.68] Ry 
 Optimized for a Real-space Cutoff    1.56 Angstroem

   l    n(q)    QCUT    max X(q) W(low)/X(q) W(high)/X(q)  e(spline) 
   0     11    11.404     7.198    0.14E-04    0.26E-04    0.99E-07
   0     11    11.404    15.603    0.29E-04    0.72E-04    0.44E-06
   1     10    11.404     3.746    0.20E-04    0.24E-04    0.43E-07
   1     10    11.404     4.362    0.22E-03    0.97E-04    0.22E-06
   2     10    11.404     5.782    0.83E-04    0.62E-05    0.27E-06
   2     10    11.404    65.505    0.42E-03    0.31E-04    0.12E-05
 Optimization of the real space projectors (new method)

 maximal supplied QI-value         = 19.84
 optimisation between [QCUT,QGAM] = [ 11.31, 22.82] = [ 35.82,145.81] Ry 
 Optimized for a Real-space Cutoff    1.16 Angstroem

   l    n(q)    QCUT    max X(q) W(low)/X(q) W(high)/X(q)  e(spline) 
   0      8    11.310     8.708    0.14E-04    0.11E-04    0.43E-08
   0      8    11.310   106.241    0.27E-03    0.30E-03    0.38E-07
   1      7    11.310     5.901    0.82E-05    0.48E-04    0.19E-07
   1      7    11.310    73.241    0.27E-03    0.27E-03    0.74E-07

 ----------------------------------------------------------------------------- 
|                                                                             |
|  ADVICE TO THIS USER RUNNING 'VASP/VAMP'   (HEAR YOUR MASTER'S VOICE ...):  |
|                                                                             |
|      You enforced a specific xc-type in the INCAR file,                     |
|      a different type was found on the POTCAR file                          |
|          I HOPE YOU KNOW, WHAT YOU ARE  DOING                               |
|                                                                             |
 ----------------------------------------------------------------------------- 

 PAW_PBE Ba_sv 06Sep2000                :
 energy of atom  1       EATOM= -700.2255
 kinetic energy error for atom=    0.0005 (will be added to EATOM!!)
 PAW_PBE Si 05Jan2001                   :
 energy of atom  2       EATOM= -103.0669
 kinetic energy error for atom=    0.0006 (will be added to EATOM!!)
 
 
 POSCAR: ba8 si16                                
  positions in cartesian coordinates
  No initial velocities read in
 exchange correlation table for  LEXCH =       43
   RHO(1)=    0.500       N(1)  =     2000
   RHO(2)=  100.500       N(2)  =     4000
 


--------------------------------------------------------------------------------------------------------


 ion  position               nearest neighbor table
   1  0.015  0.250  0.691-  24 3.40  18 3.40  13 3.45  10 3.45  16 3.45  11 3.45  21 3.60  17 3.63
                            17 3.63   5 4.41   5 4.41   7 4.42   4 4.71   4 4.71
   2  0.985  0.750  0.309-  23 3.40  17 3.40   9 3.45  14 3.45  12 3.45  15 3.45  22 3.60  18 3.63
                            18 3.63   6 4.41   6 4.41   8 4.42   3 4.71   3 4.71
   3  0.485  0.750  0.191-  22 3.40  20 3.40  12 3.45  15 3.45   9 3.45  14 3.45  23 3.60  19 3.63
                            19 3.63   7 4.41   7 4.41   5 4.42   2 4.71   2 4.71
   4  0.515  0.250  0.809-  21 3.40  19 3.40  16 3.45  11 3.45  13 3.45  10 3.45  24 3.60  20 3.63
                            20 3.63   8 4.41   8 4.41   6 4.42   1 4.71   1 4.71
   5  0.159  0.750  0.907-  10 3.46  13 3.46  21 3.48  21 3.48  11 3.50  16 3.50  22 3.54   9 3.55
                            14 3.55  17 3.71  20 3.82   1 4.41   1 4.41   3 4.42
   6  0.841  0.250  0.093-  14 3.46   9 3.46  22 3.48  22 3.48  15 3.50  12 3.50  21 3.54  13 3.55
                            10 3.55  18 3.71  19 3.82   2 4.41   2 4.41   4 4.42
   7  0.341  0.250  0.407-  15 3.46  12 3.46  23 3.48  23 3.48  14 3.50   9 3.50  24 3.54  16 3.55
                            11 3.55  19 3.71  18 3.82   3 4.41   3 4.41   1 4.42
   8  0.659  0.750  0.593-  11 3.46  16 3.46  24 3.48  24 3.48  10 3.50  13 3.50  23 3.54  12 3.55
                            15 3.55  20 3.71  17 3.82   4 4.41   4 4.41   2 4.42
   9  0.194  0.073  0.147-  14 2.41  21 2.41  19 2.42   2 3.45   3 3.45   6 3.46   7 3.50   5 3.55

  10  0.806  0.927  0.853-  13 2.41  22 2.41  20 2.42   1 3.45   4 3.45   5 3.46   8 3.50   6 3.55

  11  0.306  0.927  0.647-  16 2.41  23 2.41  17 2.42   4 3.45   1 3.45   8 3.46   5 3.50   7 3.55

  12  0.694  0.073  0.353-  15 2.41  24 2.41  18 2.42   3 3.45   2 3.45   7 3.46   6 3.50   8 3.55

  13  0.806  0.573  0.853-  10 2.41  22 2.41  20 2.42   1 3.45   4 3.45   5 3.46   8 3.50   6 3.55

  14  0.194  0.427  0.147-   9 2.41  21 2.41  19 2.42   2 3.45   3 3.45   6 3.46   7 3.50   5 3.55

  15  0.694  0.427  0.353-  12 2.41  24 2.41  18 2.42   3 3.45   2 3.45   7 3.46   6 3.50   8 3.55

  16  0.306  0.573  0.647-  11 2.41  23 2.41  17 2.42   4 3.45   1 3.45   8 3.46   5 3.50   7 3.55

  17  0.083  0.750  0.592-  11 2.42  16 2.42  23 2.45   2 3.40   1 3.63   1 3.63   5 3.71   8 3.82

  18  0.917  0.250  0.408-  15 2.42  12 2.42  24 2.45   1 3.40   2 3.63   2 3.63   6 3.71   7 3.82

  19  0.417  0.250  0.092-  14 2.42   9 2.42  21 2.45   4 3.40   3 3.63   3 3.63   7 3.71   6 3.82

  20  0.583  0.750  0.908-  10 2.42  13 2.42  22 2.45   3 3.40   4 3.63   4 3.63   8 3.71   5 3.82

  21  0.198  0.250  0.967-  14 2.41   9 2.41  19 2.45   4 3.40   5 3.48   5 3.48   6 3.54   1 3.60

  22  0.802  0.750  0.033-  10 2.41  13 2.41  20 2.45   3 3.40   6 3.48   6 3.48   5 3.54   2 3.60

  23  0.302  0.750  0.467-  11 2.41  16 2.41  17 2.45   2 3.40   7 3.48   7 3.48   8 3.54   3 3.60

  24  0.698  0.250  0.533-  15 2.41  12 2.41  18 2.45   1 3.40   8 3.48   8 3.48   7 3.54   4 3.60

 
  LATTYP: Found a simple orthorhombic cell.
 ALAT       =     6.7778496742
 B/A-ratio  =     1.3292516818
 C/A-ratio  =     1.7117734747
  
  Lattice vectors:
  
 A1 = (   0.0000000000,  -6.7778496742,   0.0000000000)
 A2 = (  -9.0094680786,   0.0000000000,   0.0000000000)
 A3 = (   0.0000000000,   0.0000000000, -11.6021432877)


Analysis of symmetry for initial positions (statically):
=====================================================================
 Subroutine PRICEL returns:
 Original cell was already a primitive cell.
 

 Routine SETGRP: Setting up the symmetry group for a 
 simple orthorhombic supercell.


 Subroutine GETGRP returns: Found  8 space group operations
 (whereof  2 operations were pure point group operations)
 out of a pool of  8 trial point group operations.


The static configuration has the point symmetry S_2 .
 The point group associated with its full space group is D_2h.


Analysis of symmetry for dynamics (positions and initial velocities):
=====================================================================
 Subroutine PRICEL returns:
 Original cell was already a primitive cell.
 

 Routine SETGRP: Setting up the symmetry group for a 
 simple orthorhombic supercell.


 Subroutine GETGRP returns: Found  8 space group operations
 (whereof  2 operations were pure point group operations)
 out of a pool of  8 trial point group operations.


The dynamic configuration has the point symmetry S_2 .
 The point group associated with its full space group is D_2h.


 Subroutine INISYM returns: Found  8 space group operations
 (whereof  2 operations are pure point group operations),
 and found     1 'primitive' translations

 
 
 KPOINTS: k-density: 6.0                          

Automatic generation of k-mesh.
Space group operators:
 irot       det(A)        alpha          n_x          n_y          n_z        tau_x        tau_y        tau_z
    1     1.000000     0.000000     1.000000     0.000000     0.000000     0.000000     0.000000     0.000000
    2    -1.000000     0.000000     1.000000     0.000000     0.000000     0.000000     0.000000     0.000000
    3     1.000000   180.000000     0.000000     0.000000     1.000000    -0.500000     0.000000    -0.500000
    4    -1.000000   180.000000     0.000000     0.000000     1.000000    -0.500000     0.000000    -0.500000
    5     1.000000   180.000000     1.000000     0.000000     0.000000    -0.500000    -0.500000    -0.500000
    6    -1.000000   180.000000     1.000000     0.000000     0.000000    -0.500000    -0.500000    -0.500000
    7     1.000000   180.000000     0.000000     1.000000     0.000000    -0.000000    -0.500000    -0.000000
    8    -1.000000   180.000000     0.000000     1.000000     0.000000     0.000000    -0.500000     0.000000
 
 Subroutine IBZKPT returns following result:
 ===========================================
 
 Found     36 irreducible k-points:
 
 Following reciprocal coordinates:
            Coordinates               Weight
  0.000000  0.000000  0.000000      1.000000
  0.200000  0.000000  0.000000      2.000000
  0.400000  0.000000  0.000000      2.000000
  0.000000  0.166667  0.000000      2.000000
  0.200000  0.166667  0.000000      4.000000
  0.400000  0.166667  0.000000      4.000000
  0.000000  0.333333  0.000000      2.000000
  0.200000  0.333333  0.000000      4.000000
  0.400000  0.333333  0.000000      4.000000
  0.000000  0.500000  0.000000      1.000000
  0.200000  0.500000  0.000000      2.000000
  0.400000  0.500000  0.000000      2.000000
  0.000000  0.000000  0.250000      2.000000
  0.200000  0.000000  0.250000      4.000000
  0.400000  0.000000  0.250000      4.000000
  0.000000  0.166667  0.250000      4.000000
  0.200000  0.166667  0.250000      8.000000
  0.400000  0.166667  0.250000      8.000000
  0.000000  0.333333  0.250000      4.000000
  0.200000  0.333333  0.250000      8.000000
  0.400000  0.333333  0.250000      8.000000
  0.000000  0.500000  0.250000      2.000000
  0.200000  0.500000  0.250000      4.000000
  0.400000  0.500000  0.250000      4.000000
  0.000000  0.000000  0.500000      1.000000
  0.200000  0.000000  0.500000      2.000000
  0.400000  0.000000  0.500000      2.000000
  0.000000  0.166667  0.500000      2.000000
  0.200000  0.166667  0.500000      4.000000
  0.400000  0.166667  0.500000      4.000000
  0.000000  0.333333  0.500000      2.000000
  0.200000  0.333333  0.500000      4.000000
  0.400000  0.333333  0.500000      4.000000
  0.000000  0.500000  0.500000      1.000000
  0.200000  0.500000  0.500000      2.000000
  0.400000  0.500000  0.500000      2.000000
 
 Following cartesian coordinates:
            Coordinates               Weight
  0.000000  0.000000  0.000000      1.000000
  0.022199  0.000000  0.000000      2.000000
  0.044398  0.000000  0.000000      2.000000
  0.000000  0.024590  0.000000      2.000000
  0.022199  0.024590  0.000000      4.000000
  0.044398  0.024590  0.000000      4.000000
  0.000000  0.049180  0.000000      2.000000
  0.022199  0.049180  0.000000      4.000000
  0.044398  0.049180  0.000000      4.000000
  0.000000  0.073770  0.000000      1.000000
  0.022199  0.073770  0.000000      2.000000
  0.044398  0.073770  0.000000      2.000000
  0.000000  0.000000  0.021548      2.000000
  0.022199  0.000000  0.021548      4.000000
  0.044398  0.000000  0.021548      4.000000
  0.000000  0.024590  0.021548      4.000000
  0.022199  0.024590  0.021548      8.000000
  0.044398  0.024590  0.021548      8.000000
  0.000000  0.049180  0.021548      4.000000
  0.022199  0.049180  0.021548      8.000000
  0.044398  0.049180  0.021548      8.000000
  0.000000  0.073770  0.021548      2.000000
  0.022199  0.073770  0.021548      4.000000
  0.044398  0.073770  0.021548      4.000000
  0.000000  0.000000  0.043095      1.000000
  0.022199  0.000000  0.043095      2.000000
  0.044398  0.000000  0.043095      2.000000
  0.000000  0.024590  0.043095      2.000000
  0.022199  0.024590  0.043095      4.000000
  0.044398  0.024590  0.043095      4.000000
  0.000000  0.049180  0.043095      2.000000
  0.022199  0.049180  0.043095      4.000000
  0.044398  0.049180  0.043095      4.000000
  0.000000  0.073770  0.043095      1.000000
  0.022199  0.073770  0.043095      2.000000
  0.044398  0.073770  0.043095      2.000000
 
 TETIRR: Found    360 inequivalent tetrahedra from      720


--------------------------------------------------------------------------------------------------------




 Dimension of arrays:
   k-points           NKPTS =     36   k-points in BZ     NKDIM =     36   number of bands    NBANDS=     88
   number of dos      NEDOS =    301   number of ions     NIONS =     24
   non local maximal  LDIM  =      6   non local SUM 2l+1 LMDIM =     18
   total plane-waves  NPLWV = 128000
   max r-space proj   IRMAX =   2946   max aug-charges    IRDMAX=  11507
   dimension x,y,z NGX =    50 NGY =   40 NGZ =   64
   dimension x,y,z NGXF=   100 NGYF=   80 NGZF=  128
   support grid    NGXF=   100 NGYF=   80 NGZF=  128
   ions per type =               8  16
   NGX,Y,Z   is equivalent  to a cutoff of   9.23,  9.81,  9.17 a.u.
   NGXF,Y,Z  is equivalent  to a cutoff of  18.45, 19.62, 18.34 a.u.

 SYSTEM =  unknown system                          
 POSCAR =  ba8 si16                                

 Startparameter for this run:
   NWRITE =      2    write-flag & timer
   PREC   = normal    normal or accurate (medium, high low for compatibility)
   ISTART =      0    job   : 0-new  1-cont  2-samecut
   ICHARG =      2    charge: 1-file 2-atom 10-const
   ISPIN  =      1    spin polarized calculation?
   LNONCOLLINEAR =      F non collinear calculations
   LSORBIT =      F    spin-orbit coupling
   INIWAV =      1    electr: 0-lowe 1-rand  2-diag
   LASPH  =      T    aspherical Exc in radial PAW
   METAGGA=      F    non-selfconsistent MetaGGA calc.

 Electronic Relaxation 1
   ENCUT  =  500.0 eV  36.75 Ry    6.06 a.u.  16.43 12.36 21.15*2*pi/ulx,y,z
   ENINI  =  500.0     initial cutoff
   ENAUG  =  351.2 eV  augmentation charge cutoff
   NELM   =    100;   NELMIN=  2; NELMDL= -5     # of ELM steps 
   EDIFF  = 0.1E-05   stopping-criterion for ELM
   LREAL  =      T    real-space projection
   NLSPLINE    = F    spline interpolate recip. space projectors
   LCOMPAT=      F    compatible to vasp.4.4
   GGA_COMPAT  = T    GGA compatible to vasp.4.4-vasp.4.6
   LMAXPAW     = -100 max onsite density
   LMAXMIX     =    2 max onsite mixed and CHGCAR
   VOSKOWN=      0    Vosko Wilk Nusair interpolation
   ROPT   =   -0.00050  -0.00050
 Ionic relaxation
   EDIFFG = -.1E-01   stopping-criterion for IOM
   NSW    =    200    number of steps for IOM
   NBLOCK =      1;   KBLOCK =    200    inner block; outer block 
   IBRION =      2    ionic relax: 0-MD 1-quasi-New 2-CG
   NFREE  =      1    steps in history (QN), initial steepest desc. (CG)
   ISIF   =      3    stress and relaxation
   IWAVPR =     11    prediction:  0-non 1-charg 2-wave 3-comb
   ISYM   =      2    0-nonsym 1-usesym 2-fastsym
   LCORR  =      T    Harris-Foulkes like correction to forces

   POTIM  = 0.5000    time-step for ionic-motion
   TEIN   =    0.0    initial temperature
   TEBEG  =    0.0;   TEEND  =   0.0 temperature during run
   SMASS  =  -3.00    Nose mass-parameter (am)
   estimated Nose-frequenzy (Omega)   =  0.10E-29 period in steps =****** mass=  -0.185E-26a.u.
   SCALEE = 1.0000    scale energy and forces
   NPACO  =    256;   APACO  = 16.0  distance and # of slots for P.C.
   PSTRESS=    0.0 pullay stress

  Mass of Ions in am
   POMASS = 137.33 28.09
  Ionic Valenz
   ZVAL   =  10.00  4.00
  Atomic Wigner-Seitz radii
   RWIGS  =  -1.00 -1.00
  virtual crystal weights 
   VCA    =   1.00  1.00
   NELECT =     144.0000    total number of electrons
   NUPDOWN=      -1.0000    fix difference up-down

 DOS related values:
   EMIN   =  10.00;   EMAX   =-10.00  energy-range for DOS
   EFERMI =   0.00
   ISMEAR =    -5;   SIGMA  =   0.01  broadening in eV -4-tet -1-fermi 0-gaus

 Electronic relaxation 2 (details)
   IALGO  =     38    algorithm
   LDIAG  =      T    sub-space diagonalisation (order eigenvalues)
   LSUBROT=      F    optimize rotation matrix (better conditioning)
   TURBO    =      0    0=normal 1=particle mesh
   IRESTART =      0    0=no restart 2=restart with 2 vectors
   NREBOOT  =      0    no. of reboots
   NMIN     =      0    reboot dimension
   EREF     =   0.00    reference energy to select bands
   IMIX   =      4    mixing-type and parameters
     AMIX     =   0.40;   BMIX     =  1.00
     AMIX_MAG =   1.60;   BMIX_MAG =  1.00
     AMIN     =   0.10
     WC   =   100.;   INIMIX=   1;  MIXPRE=   1;  MAXMIX= -45

 Intra band minimization:
   WEIMIN = 0.0010     energy-eigenvalue tresh-hold
   EBREAK =  0.28E-08  absolut break condition
   DEPER  =   0.30     relativ break condition  

   TIME   =   0.40     timestep for ELM

  volume/ion in A,a.u.               =      29.52       199.21
  Fermi-wavevector in a.u.,A,eV,Ry     =   0.962541  1.818939 12.605595  0.926485
  Thomas-Fermi vector in A             =   2.092009
 
 Write flags
   LWAVE        =      T    write WAVECAR
   LDOWNSAMPLE  =      F    k-point downsampling of WAVECAR
   LCHARG       =      T    write CHGCAR
   LVTOT        =      F    write LOCPOT, total local potential
   LVHAR        =      F    write LOCPOT, Hartree potential only
   LELF         =      F    write electronic localiz. function (ELF)
   LORBIT       =      0    0 simple, 1 ext, 2 COOP (PROOUT), +10 PAW based schemes


 Dipole corrections
   LMONO  =      F    monopole corrections only (constant potential shift)
   LDIPOL =      F    correct potential (dipole corrections)
   IDIPOL =      0    1-x, 2-y, 3-z, 4-all directions 
   EPSILON=  1.0000000 bulk dielectric constant

 Exchange correlation treatment:
   GGA     =    MK    GGA type
   LEXCH   =    43    internal setting for exchange type
   VOSKOWN=      0    Vosko Wilk Nusair interpolation
   LHFCALC =     F    Hartree Fock is set to
   LHFONE  =     F    Hartree Fock one center treatment
   AEXX    =    0.0000 exact exchange contribution

 vdW DFT:
   LUSE_VDW   =     T    switch on vdW DFT
   Zab_VDW    =******    correlation parameter
   PARAM1     =0.1234
   PARAM2     =0.7114
   PARAM3     =0.0000
   -- rVV10 --
   BPARAM     = 6.3000
   CPARAM     = 0.0093

 Linear response parameters
   LEPSILON=     F    determine dielectric tensor
   LRPA    =     F    only Hartree local field effects (RPA)
   LNABLA  =     F    use nabla operator in PAW spheres
   LVEL    =     F    velocity operator in full k-point grid
   LINTERFAST=   F  fast interpolation
   KINTER  =     0    interpolate to denser k-point grid
   CSHIFT  =0.1000    complex shift for real part using Kramers Kronig
   OMEGAMAX=  -1.0    maximum frequency
   DEG_THRESHOLD= 0.2000000E-02 threshold for treating states as degnerate
   RTIME   =   -0.100 relaxation time in fs
  (WPLASMAI=    0.000 imaginary part of plasma frequency in eV, 0.658/RTIME)
   DFIELD  = 0.0000000 0.0000000 0.0000000 field for delta impulse in time
 
 Orbital magnetization related:
   ORBITALMAG=     F  switch on orbital magnetization
   LCHIMAG   =     F  perturbation theory with respect to B field
   DQ        =  0.001000  dq finite difference perturbation B field
   LLRAUG    =     F  two centre corrections for induced B field



--------------------------------------------------------------------------------------------------------


 conjugate gradient relaxation of ions
 charge density and potential will be updated during run
 non-spin polarized calculation
 Variant of blocked Davidson
 Davidson routine will perform the subspace rotation
 perform sub-space diagonalisation
    after iterative eigenvector-optimisation
 modified Broyden-mixing scheme, WC =      100.0
 initial mixing is a Kerker type mixing with AMIX =  0.4000 and BMIX =      1.0000
 Hartree-type preconditioning will be used
 using additional bands           16
 real space projection scheme for non local part
 use partial core corrections
 calculate Harris-corrections to forces 
   (improved forces if not selfconsistent)
 use gradient corrections 
 use of overlap-Matrix (Vanderbilt PP)
 Fermi weights with tetrahedron method with Bloechl corrections


--------------------------------------------------------------------------------------------------------


  energy-cutoff  :      500.00
  volume of cell :      708.48
      direct lattice vectors                 reciprocal lattice vectors
     9.009468079  0.000000000  0.000000000     0.110994344  0.000000000  0.000000000
     0.000000000  6.777849674  0.000000000     0.000000000  0.147539419  0.000000000
     0.000000000  0.000000000 11.602143288     0.000000000  0.000000000  0.086190971

  length of vectors
     9.009468079  6.777849674 11.602143288     0.110994344  0.147539419  0.086190971


 
 k-points in units of 2pi/SCALE and weight: k-density: 6.0                          
   0.00000000  0.00000000  0.00000000       0.008
   0.02219887  0.00000000  0.00000000       0.017
   0.04439774  0.00000000  0.00000000       0.017
   0.00000000  0.02458990  0.00000000       0.017
   0.02219887  0.02458990  0.00000000       0.033
   0.04439774  0.02458990  0.00000000       0.033
   0.00000000  0.04917981  0.00000000       0.017
   0.02219887  0.04917981  0.00000000       0.033
   0.04439774  0.04917981  0.00000000       0.033
   0.00000000  0.07376971  0.00000000       0.008
   0.02219887  0.07376971  0.00000000       0.017
   0.04439774  0.07376971  0.00000000       0.017
   0.00000000  0.00000000  0.02154774       0.017
   0.02219887  0.00000000  0.02154774       0.033
   0.04439774  0.00000000  0.02154774       0.033
   0.00000000  0.02458990  0.02154774       0.033
   0.02219887  0.02458990  0.02154774       0.067
   0.04439774  0.02458990  0.02154774       0.067
   0.00000000  0.04917981  0.02154774       0.033
   0.02219887  0.04917981  0.02154774       0.067
   0.04439774  0.04917981  0.02154774       0.067
   0.00000000  0.07376971  0.02154774       0.017
   0.02219887  0.07376971  0.02154774       0.033
   0.04439774  0.07376971  0.02154774       0.033
   0.00000000  0.00000000  0.04309549       0.008
   0.02219887  0.00000000  0.04309549       0.017
   0.04439774  0.00000000  0.04309549       0.017
   0.00000000  0.02458990  0.04309549       0.017
   0.02219887  0.02458990  0.04309549       0.033
   0.04439774  0.02458990  0.04309549       0.033
   0.00000000  0.04917981  0.04309549       0.017
   0.02219887  0.04917981  0.04309549       0.033
   0.04439774  0.04917981  0.04309549       0.033
   0.00000000  0.07376971  0.04309549       0.008
   0.02219887  0.07376971  0.04309549       0.017
   0.04439774  0.07376971  0.04309549       0.017
 
 k-points in reciprocal lattice and weights: k-density: 6.0                          
   0.00000000  0.00000000  0.00000000       0.008
   0.20000000  0.00000000  0.00000000       0.017
   0.40000000  0.00000000  0.00000000       0.017
   0.00000000  0.16666667  0.00000000       0.017
   0.20000000  0.16666667  0.00000000       0.033
   0.40000000  0.16666667  0.00000000       0.033
   0.00000000  0.33333333  0.00000000       0.017
   0.20000000  0.33333333  0.00000000       0.033
   0.40000000  0.33333333  0.00000000       0.033
   0.00000000  0.50000000  0.00000000       0.008
   0.20000000  0.50000000  0.00000000       0.017
   0.40000000  0.50000000  0.00000000       0.017
   0.00000000  0.00000000  0.25000000       0.017
   0.20000000  0.00000000  0.25000000       0.033
   0.40000000  0.00000000  0.25000000       0.033
   0.00000000  0.16666667  0.25000000       0.033
   0.20000000  0.16666667  0.25000000       0.067
   0.40000000  0.16666667  0.25000000       0.067
   0.00000000  0.33333333  0.25000000       0.033
   0.20000000  0.33333333  0.25000000       0.067
   0.40000000  0.33333333  0.25000000       0.067
   0.00000000  0.50000000  0.25000000       0.017
   0.20000000  0.50000000  0.25000000       0.033
   0.40000000  0.50000000  0.25000000       0.033
   0.00000000  0.00000000  0.50000000       0.008
   0.20000000  0.00000000  0.50000000       0.017
   0.40000000  0.00000000  0.50000000       0.017
   0.00000000  0.16666667  0.50000000       0.017
   0.20000000  0.16666667  0.50000000       0.033
   0.40000000  0.16666667  0.50000000       0.033
   0.00000000  0.33333333  0.50000000       0.017
   0.20000000  0.33333333  0.50000000       0.033
   0.40000000  0.33333333  0.50000000       0.033
   0.00000000  0.50000000  0.50000000       0.008
   0.20000000  0.50000000  0.50000000       0.017
   0.40000000  0.50000000  0.50000000       0.017
 
 position of ions in fractional coordinates (direct lattice) 
   0.01517300  0.25000000  0.69130999
   0.98482700  0.75000002  0.30869001
   0.48482700  0.75000002  0.19130993
   0.51517300  0.25000000  0.80869005
   0.15930900  0.75000002  0.90664998
   0.84069100  0.25000000  0.09335000
   0.34069100  0.25000000  0.40665007
   0.65930900  0.75000002  0.59334998
   0.19427001  0.07254100  0.14674400
   0.80572999  0.92745899  0.85325598
   0.30572999  0.92745899  0.64674402
   0.69427001  0.07254100  0.35325598
   0.80572999  0.57254101  0.85325598
   0.19427001  0.42745899  0.14674400
   0.69427001  0.42745899  0.35325598
   0.30572999  0.57254101  0.64674402
   0.08290500  0.75000002  0.59200102
   0.91709498  0.25000000  0.40799898
   0.41709501  0.25000000  0.09200096
   0.58290502  0.75000002  0.90799902
   0.19769400  0.25000000  0.96694000
   0.80230599  0.75000002  0.03306002
   0.30230599  0.75000002  0.46693992
   0.69769401  0.25000000  0.53306000
 
 position of ions in cartesian coordinates  (Angst):
   0.13670066  1.69446242  8.02067757
   8.87276745  5.08338737  3.58146572
   4.36803341  5.08338737  2.21960521
   4.64143467  1.69446242  9.38253784
   1.43528938  5.08338737 10.51908302
   7.57417870  1.69446242  1.08306003
   3.06944466  1.69446242  4.71801233
   5.94002342  5.08338737  6.88413143
   1.75026941  0.49167198  1.70254493
   7.25919867  6.28617763  9.89959812
   2.75446463  6.28617763  7.50361681
   6.25500345  0.49167198  4.09852648
   7.25919867  3.88059688  9.89959812
   1.75026941  2.89725280  1.70254493
   6.25500345  2.89725280  4.09852648
   2.75446463  3.88059688  7.50361681
   0.74692994  5.08338737  6.86848068
   8.26253796  1.69446242  4.73366260
   3.75780416  1.69446242  1.06740832
   5.25166416  5.08338737 10.53473473
   1.78111780  1.69446242 11.21857643
   7.22835016  5.08338737  0.38356703
   2.72361612  5.08338737  5.41750383
   6.28585196  1.69446242  6.18463850
 


--------------------------------------------------------------------------------------------------------


 k-point  1 :   0.0000 0.0000 0.0000  plane waves:   18015
 k-point  2 :   0.2000 0.0000 0.0000  plane waves:   18061
 k-point  3 :   0.4000 0.0000 0.0000  plane waves:   17963
 k-point  4 :   0.0000 0.1667 0.0000  plane waves:   17981
 k-point  5 :   0.2000 0.1667 0.0000  plane waves:   17995
 k-point  6 :   0.4000 0.1667 0.0000  plane waves:   17998
 k-point  7 :   0.0000 0.3333 0.0000  plane waves:   17997
 k-point  8 :   0.2000 0.3333 0.0000  plane waves:   17955
 k-point  9 :   0.4000 0.3333 0.0000  plane waves:   17977
 k-point 10 :   0.0000 0.5000 0.0000  plane waves:   17944
 k-point 11 :   0.2000 0.5000 0.0000  plane waves:   17950
 k-point 12 :   0.4000 0.5000 0.0000  plane waves:   17980
 k-point 13 :   0.0000 0.0000 0.2500  plane waves:   18014
 k-point 14 :   0.2000 0.0000 0.2500  plane waves:   18010
 k-point 15 :   0.4000 0.0000 0.2500  plane waves:   17976
 k-point 16 :   0.0000 0.1667 0.2500  plane waves:   17994
 k-point 17 :   0.2000 0.1667 0.2500  plane waves:   18005
 k-point 18 :   0.4000 0.1667 0.2500  plane waves:   17983
 k-point 19 :   0.0000 0.3333 0.2500  plane waves:   17983
 k-point 20 :   0.2000 0.3333 0.2500  plane waves:   17976
 k-point 21 :   0.4000 0.3333 0.2500  plane waves:   17972
 k-point 22 :   0.0000 0.5000 0.2500  plane waves:   17960
 k-point 23 :   0.2000 0.5000 0.2500  plane waves:   17998
 k-point 24 :   0.4000 0.5000 0.2500  plane waves:   17972
 k-point 25 :   0.0000 0.0000 0.5000  plane waves:   17962
 k-point 26 :   0.2000 0.0000 0.5000  plane waves:   17982
 k-point 27 :   0.4000 0.0000 0.5000  plane waves:   17990
 k-point 28 :   0.0000 0.1667 0.5000  plane waves:   17998
 k-point 29 :   0.2000 0.1667 0.5000  plane waves:   17996
 k-point 30 :   0.4000 0.1667 0.5000  plane waves:   17998
 k-point 31 :   0.0000 0.3333 0.5000  plane waves:   18010
 k-point 32 :   0.2000 0.3333 0.5000  plane waves:   18006
 k-point 33 :   0.4000 0.3333 0.5000  plane waves:   17968
 k-point 34 :   0.0000 0.5000 0.5000  plane waves:   18004
 k-point 35 :   0.2000 0.5000 0.5000  plane waves:   18000
 k-point 36 :   0.4000 0.5000 0.5000  plane waves:   17992

 maximum and minimum number of plane-waves per node :      4533     4466

 maximum number of plane-waves:     18061
 maximum index in each direction: 
   IXMAX=   16   IYMAX=   12   IZMAX=   21
   IXMIN=  -16   IYMIN=  -12   IZMIN=  -21


 real space projection operators:
  total allocation   :       4328.62 KBytes
  max/ min on nodes  :       1126.75       1037.56


 parallel 3D FFT for wavefunctions:
    minimum data exchange during FFTs selected (reduces bandwidth)
 parallel 3D FFT for charge:
    minimum data exchange during FFTs selected (reduces bandwidth)


 total amount of memory used by VASP MPI-rank0    67772. kBytes
=======================================================================

   base      :      30000. kBytes
   nonlr-proj:       2580. kBytes
   fftplans  :       2347. kBytes
   grid      :       3658. kBytes
   one-center:         93. kBytes
   wavefun   :      29094. kBytes
 
     INWAV:  cpu time    0.0000: real time    0.0000
 Broyden mixing: mesh for mixing (old mesh)
   NGX = 33   NGY = 25   NGZ = 43
  (NGX  =100   NGY  = 80   NGZ  =128)
  gives a total of  35475 points

 initial charge density was supplied:
 charge density of overlapping atoms calculated
 number of electron     144.0000000 magnetization 
 keeping initial charge density in first step


--------------------------------------------------------------------------------------------------------


 Maximum index for non-local projection operator          837
 Maximum index for augmentation-charges         1190 (set IRDMAX)


--------------------------------------------------------------------------------------------------------


 First call to EWALD:  gamma=   0.199
 Maximum number of real-space cells 3x 3x 2
 Maximum number of reciprocal cells 3x 2x 3

    FEWALD:  cpu time    0.0285: real time    0.0285


--------------------------------------- Iteration      1(   1)  ---------------------------------------


vdW kernel read from vdw_kernel.bindat
  0.0000  0.2424  0.5071  0.7962  1.1119  1.4567  1.8333  2.2446  2.6937  3.1842
  3.7199  4.3049  4.9438  5.6415  6.4036  7.2358  8.1446  9.1372 10.2212 11.4050
 12.6979 14.1099 15.6519 17.3360 19.1751 21.1837 23.3773 25.7729 28.3892 31.2465
 34.3669 37.7748 41.4965 45.5611 50.0000
 
    POTLOK:  cpu time    1.3436: real time    1.3764
    SETDIJ:  cpu time    0.0770: real time    0.0774
     EDDAV:  cpu time    2.5158: real time    2.5278
 BZINTS: Fermi energy: 11.318286;144.000000 electrons
         Band energy:  80.217881;  BLOECHL correction: -0.051846
       DOS:  cpu time    0.0466: real time    0.0467
    --------------------------------------------
      LOOP:  cpu time    3.9830: real time    4.0282

 eigenvalue-minimisations  :  6336
 total energy-change (2. order) : 0.8656898E+03  (-0.5712004E+04)
 number of electron     144.0000000 magnetization 
 augmentation part      144.0000000 magnetization 

 Free energy of the ion-electron system (eV)
  ---------------------------------------------------
  alpha Z        PSCENC =       454.25479217
  Ewald energy   TEWEN  =     -6374.53395873
  -Hartree energ DENC   =      -917.06616594
  -exchange      EXHF   =         0.00000000
  -V(xc)+E(xc)   XCENC  =        43.44346808
  PAW double counting   =      3696.57165193    -3386.34934349
  entropy T*S    EENTRO =         0.00000000
  eigenvalues    EBANDS =        80.21788056
  atomic energy  EATOM  =      7269.15145414
  Solvation  Ediel_sol  =         0.00000000
  ---------------------------------------------------
  free energy    TOTEN  =       865.68977872 eV

  energy without entropy =      865.68977872  energy(sigma->0) =      865.68977872


--------------------------------------------------------------------------------------------------------




--------------------------------------- Iteration      1(   2)  ---------------------------------------


     EDDAV:  cpu time    3.1894: real time    3.2027
 BZINTS: Fermi energy:  4.730933;144.000000 electrons
         Band energy:-803.193743;  BLOECHL correction: -0.000766
       DOS:  cpu time    0.0346: real time    0.0347
    --------------------------------------------
      LOOP:  cpu time    3.2240: real time    3.2374

 eigenvalue-minimisations  :  8608
 total energy-change (2. order) :-0.8834116E+03  (-0.8549916E+03)
 number of electron     144.0000000 magnetization 
 augmentation part      144.0000000 magnetization 

 Free energy of the ion-electron system (eV)
  ---------------------------------------------------
  alpha Z        PSCENC =       454.25479217
  Ewald energy   TEWEN  =     -6374.53395873
  -Hartree energ DENC   =      -917.06616594
  -exchange      EXHF   =         0.00000000
  -V(xc)+E(xc)   XCENC  =        43.44346808
  PAW double counting   =      3696.57165193    -3386.34934349
  entropy T*S    EENTRO =         0.00000000
  eigenvalues    EBANDS =      -803.19374325
  atomic energy  EATOM  =      7269.15145414
  Solvation  Ediel_sol  =         0.00000000
  ---------------------------------------------------
  free energy    TOTEN  =       -17.72184509 eV

  energy without entropy =      -17.72184509  energy(sigma->0) =      -17.72184509


--------------------------------------------------------------------------------------------------------




--------------------------------------- Iteration      1(   3)  ---------------------------------------


     EDDAV:  cpu time    2.9402: real time    2.9538
 BZINTS: Fermi energy:  2.852416;144.000000 electrons
         Band energy:-883.807750;  BLOECHL correction:  0.000000
       DOS:  cpu time    0.0087: real time    0.0087
    --------------------------------------------
      LOOP:  cpu time    2.9488: real time    2.9625

 eigenvalue-minimisations  :  7752
 total energy-change (2. order) :-0.8061401E+02  (-0.7974512E+02)
 number of electron     144.0000000 magnetization 
 augmentation part      144.0000000 magnetization 

 Free energy of the ion-electron system (eV)
  ---------------------------------------------------
  alpha Z        PSCENC =       454.25479217
  Ewald energy   TEWEN  =     -6374.53395873
  -Hartree energ DENC   =      -917.06616594
  -exchange      EXHF   =         0.00000000
  -V(xc)+E(xc)   XCENC  =        43.44346808
  PAW double counting   =      3696.57165193    -3386.34934349
  entropy T*S    EENTRO =         0.00000000
  eigenvalues    EBANDS =      -883.80775020
  atomic energy  EATOM  =      7269.15145414
  Solvation  Ediel_sol  =         0.00000000
  ---------------------------------------------------
  free energy    TOTEN  =       -98.33585204 eV

  energy without entropy =      -98.33585204  energy(sigma->0) =      -98.33585204


--------------------------------------------------------------------------------------------------------




--------------------------------------- Iteration      1(   4)  ---------------------------------------


     EDDAV:  cpu time    3.3870: real time    3.4010
 BZINTS: Fermi energy:  2.847848;144.000000 electrons
         Band energy:-886.325020;  BLOECHL correction:  0.000000
       DOS:  cpu time    0.0095: real time    0.0095
    --------------------------------------------
      LOOP:  cpu time    3.3964: real time    3.4105

 eigenvalue-minimisations  :  9296
 total energy-change (2. order) :-0.2517270E+01  (-0.2510235E+01)
 number of electron     144.0000000 magnetization 
 augmentation part      144.0000000 magnetization 

 Free energy of the ion-electron system (eV)
  ---------------------------------------------------
  alpha Z        PSCENC =       454.25479217
  Ewald energy   TEWEN  =     -6374.53395873
  -Hartree energ DENC   =      -917.06616594
  -exchange      EXHF   =         0.00000000
  -V(xc)+E(xc)   XCENC  =        43.44346808
  PAW double counting   =      3696.57165193    -3386.34934349
  entropy T*S    EENTRO =         0.00000000
  eigenvalues    EBANDS =      -886.32502012
  atomic energy  EATOM  =      7269.15145414
  Solvation  Ediel_sol  =         0.00000000
  ---------------------------------------------------
  free energy    TOTEN  =      -100.85312196 eV

  energy without entropy =     -100.85312196  energy(sigma->0) =     -100.85312196


--------------------------------------------------------------------------------------------------------




--------------------------------------- Iteration      1(   5)  ---------------------------------------


     EDDAV:  cpu time    3.0176: real time    3.0312
 BZINTS: Fermi energy:  2.835813;144.000000 electrons
         Band energy:-886.397925;  BLOECHL correction:  0.000000
       DOS:  cpu time    0.0084: real time    0.0084
    CHARGE:  cpu time    0.0847: real time    0.0851
    MIXING:  cpu time    0.0035: real time    0.0037
    --------------------------------------------
      LOOP:  cpu time    3.1142: real time    3.1285

 eigenvalue-minimisations  :  8304
 total energy-change (2. order) :-0.7290519E-01  (-0.7286592E-01)
 number of electron     144.0000000 magnetization 
 augmentation part      -17.6605106 magnetization 

 Broyden mixing:
  rms(total) = 0.81036E+00    rms(broyden)= 0.81035E+00
  rms(prec ) = 0.12833E+01
  weight for this iteration     100.00

 Free energy of the ion-electron system (eV)
  ---------------------------------------------------
  alpha Z        PSCENC =       454.25479217
  Ewald energy   TEWEN  =     -6374.53395873
  -Hartree energ DENC   =      -917.06616594
  -exchange      EXHF   =         0.00000000
  -V(xc)+E(xc)   XCENC  =        43.44346808
  PAW double counting   =      3696.57165193    -3386.34934349
  entropy T*S    EENTRO =         0.00000000
  eigenvalues    EBANDS =      -886.39792531
  atomic energy  EATOM  =      7269.15145414
  Solvation  Ediel_sol  =         0.00000000
  ---------------------------------------------------
  free energy    TOTEN  =      -100.92602715 eV

  energy without entropy =     -100.92602715  energy(sigma->0) =     -100.92602715


--------------------------------------------------------------------------------------------------------




--------------------------------------- Iteration      1(   6)  ---------------------------------------


    POTLOK:  cpu time    0.9971: real time    1.0048
    SETDIJ:  cpu time    0.0089: real time    0.0090
     EDDAV:  cpu time    2.5932: real time    2.5993
 BZINTS: Fermi energy:  3.257393;144.000000 electrons
         Band energy:-870.081879;  BLOECHL correction:  0.000000
       DOS:  cpu time    0.0085: real time    0.0085
    CHARGE:  cpu time    0.0802: real time    0.0804
    MIXING:  cpu time    0.0030: real time    0.0031
    --------------------------------------------
      LOOP:  cpu time    3.6908: real time    3.7050

 eigenvalue-minimisations  :  7216
 total energy-change (2. order) : 0.3577457E+01  (-0.1122122E+01)
 number of electron     143.9999999 magnetization 
 augmentation part      -17.5576732 magnetization 

 Broyden mixing:
  rms(total) = 0.41728E+00    rms(broyden)= 0.41728E+00
  rms(prec ) = 0.53990E+00
  weight for this iteration     100.00

 eigenvalues of (default mixing * dielectric matrix)
  average eigenvalue GAMMA=   1.7058
  1.7058

 Free energy of the ion-electron system (eV)
  ---------------------------------------------------
  alpha Z        PSCENC =       454.25479217
  Ewald energy   TEWEN  =     -6374.53395873
  -Hartree energ DENC   =      -924.95790567
  -exchange      EXHF   =         0.00000000
  -V(xc)+E(xc)   XCENC  =        45.55432919
  PAW double counting   =      3738.22904106    -3434.96444349
  entropy T*S    EENTRO =         0.00000000
  eigenvalues    EBANDS =      -870.08187928
  atomic energy  EATOM  =      7269.15145414
  Solvation  Ediel_sol  =         0.00000000
  ---------------------------------------------------
  free energy    TOTEN  =       -97.34857061 eV

  energy without entropy =      -97.34857061  energy(sigma->0) =      -97.34857061


--------------------------------------------------------------------------------------------------------




--------------------------------------- Iteration      1(   7)  ---------------------------------------


    POTLOK:  cpu time    0.9543: real time    0.9624
    SETDIJ:  cpu time    0.0505: real time    0.0506
     EDDAV:  cpu time    2.8649: real time    2.8717
 BZINTS: Fermi energy:  3.439706;144.000000 electrons
         Band energy:-865.176897;  BLOECHL correction:  0.000000
       DOS:  cpu time    0.0096: real time    0.0096
    CHARGE:  cpu time    0.0827: real time    0.0829
    MIXING:  cpu time    0.0027: real time    0.0030
    --------------------------------------------
      LOOP:  cpu time    3.9647: real time    3.9801

 eigenvalue-minimisations  :  8120
 total energy-change (2. order) :-0.1944648E-01  (-0.3802960E+00)
 number of electron     143.9999999 magnetization 
 augmentation part      -17.6073651 magnetization 

 Broyden mixing:
  rms(total) = 0.19549E+00    rms(broyden)= 0.19549E+00
  rms(prec ) = 0.24336E+00
  weight for this iteration     100.00

 eigenvalues of (default mixing * dielectric matrix)
  average eigenvalue GAMMA=   1.8857
  1.5613  2.2100

 Free energy of the ion-electron system (eV)
  ---------------------------------------------------
  alpha Z        PSCENC =       454.25479217
  Ewald energy   TEWEN  =     -6374.53395873
  -Hartree energ DENC   =      -925.77742424
  -exchange      EXHF   =         0.00000000
  -V(xc)+E(xc)   XCENC  =        46.99931774
  PAW double counting   =      3789.69140885    -3491.97670965
  entropy T*S    EENTRO =         0.00000000
  eigenvalues    EBANDS =      -865.17689738
  atomic energy  EATOM  =      7269.15145414
  Solvation  Ediel_sol  =         0.00000000
  ---------------------------------------------------
  free energy    TOTEN  =       -97.36801710 eV

  energy without entropy =      -97.36801710  energy(sigma->0) =      -97.36801710


--------------------------------------------------------------------------------------------------------




--------------------------------------- Iteration      1(   8)  ---------------------------------------


    POTLOK:  cpu time    0.9583: real time    0.9665
    SETDIJ:  cpu time    0.0770: real time    0.0771
     EDDAV:  cpu time    2.6749: real time    2.6813
 BZINTS: Fermi energy:  3.351860;144.000000 electrons
         Band energy:-865.075392;  BLOECHL correction:  0.000000
       DOS:  cpu time    0.0082: real time    0.0082
    CHARGE:  cpu time    0.0862: real time    0.0864
    MIXING:  cpu time    0.0027: real time    0.0030
    --------------------------------------------
      LOOP:  cpu time    3.8074: real time    3.8225

 eigenvalue-minimisations  :  7152
 total energy-change (2. order) :-0.5976223E-01  (-0.1108883E+00)
 number of electron     143.9999999 magnetization 
 augmentation part      -17.6792892 magnetization 

 Broyden mixing:
  rms(total) = 0.69847E-01    rms(broyden)= 0.69847E-01
  rms(prec ) = 0.12871E+00
  weight for this iteration     100.00

 eigenvalues of (default mixing * dielectric matrix)
  average eigenvalue GAMMA=   1.6609
  2.6554  1.1636  1.1636

 Free energy of the ion-electron system (eV)
  ---------------------------------------------------
  alpha Z        PSCENC =       454.25479217
  Ewald energy   TEWEN  =     -6374.53395873
  -Hartree energ DENC   =      -923.92713871
  -exchange      EXHF   =         0.00000000
  -V(xc)+E(xc)   XCENC  =        47.71741665
  PAW double counting   =      3844.04031782    -3549.05527033
  entropy T*S    EENTRO =         0.00000000
  eigenvalues    EBANDS =      -865.07539234
  atomic energy  EATOM  =      7269.15145414
  Solvation  Ediel_sol  =         0.00000000
  ---------------------------------------------------
  free energy    TOTEN  =       -97.42777933 eV

  energy without entropy =      -97.42777933  energy(sigma->0) =      -97.42777933


--------------------------------------------------------------------------------------------------------




--------------------------------------- Iteration      1(   9)  ---------------------------------------


    POTLOK:  cpu time    0.9620: real time    0.9698
    SETDIJ:  cpu time    0.0600: real time    0.0602
     EDDAV:  cpu time    2.7099: real time    2.7163
 BZINTS: Fermi energy:  3.452400;144.000000 electrons
         Band energy:-862.550905;  BLOECHL correction:  0.000000
       DOS:  cpu time    0.0082: real time    0.0082
    CHARGE:  cpu time    0.0958: real time    0.0961
    MIXING:  cpu time    0.0031: real time    0.0032
    --------------------------------------------
      LOOP:  cpu time    3.8391: real time    3.8538

 eigenvalue-minimisations  :  7008
 total energy-change (2. order) : 0.4284405E-01  (-0.3028912E-01)
 number of electron     143.9999999 magnetization 
 augmentation part      -17.6524262 magnetization 

 Broyden mixing:
  rms(total) = 0.12791E-01    rms(broyden)= 0.12790E-01
  rms(prec ) = 0.15063E-01
  weight for this iteration     100.00

 eigenvalues of (default mixing * dielectric matrix)
  average eigenvalue GAMMA=   1.6261
  2.6387  1.5696  1.1480  1.1480

 Free energy of the ion-electron system (eV)
  ---------------------------------------------------
  alpha Z        PSCENC =       454.25479217
  Ewald energy   TEWEN  =     -6374.53395873
  -Hartree energ DENC   =      -925.97042589
  -exchange      EXHF   =         0.00000000
  -V(xc)+E(xc)   XCENC  =        48.14994176
  PAW double counting   =      3851.29138862    -3557.17722241
  entropy T*S    EENTRO =         0.00000000
  eigenvalues    EBANDS =      -862.55090494
  atomic energy  EATOM  =      7269.15145414
  Solvation  Ediel_sol  =         0.00000000
  ---------------------------------------------------
  free energy    TOTEN  =       -97.38493527 eV

  energy without entropy =      -97.38493527  energy(sigma->0) =      -97.38493527


--------------------------------------------------------------------------------------------------------




--------------------------------------- Iteration      1(  10)  ---------------------------------------


    POTLOK:  cpu time    0.9590: real time    0.9668
    SETDIJ:  cpu time    0.0478: real time    0.0480
     EDDAV:  cpu time    2.9894: real time    2.9964
 BZINTS: Fermi energy:  3.447990;144.000000 electrons
         Band energy:-862.576118;  BLOECHL correction:  0.000000
       DOS:  cpu time    0.0083: real time    0.0084
    CHARGE:  cpu time    0.0850: real time    0.0852
    MIXING:  cpu time    0.0031: real time    0.0031
    --------------------------------------------
      LOOP:  cpu time    4.0926: real time    4.1078

 eigenvalue-minimisations  :  8032
 total energy-change (2. order) :-0.3301403E-02  (-0.2832432E-02)
 number of electron     143.9999999 magnetization 
 augmentation part      -17.6595798 magnetization 

 Broyden mixing:
  rms(total) = 0.97175E-02    rms(broyden)= 0.97174E-02
  rms(prec ) = 0.14266E-01
  weight for this iteration     100.00

 eigenvalues of (default mixing * dielectric matrix)
  average eigenvalue GAMMA=   1.7105
  2.9951  2.4692  1.0805  1.0805  0.9272

 Free energy of the ion-electron system (eV)
  ---------------------------------------------------
  alpha Z        PSCENC =       454.25479217
  Ewald energy   TEWEN  =     -6374.53395873
  -Hartree energ DENC   =      -926.14926154
  -exchange      EXHF   =         0.00000000
  -V(xc)+E(xc)   XCENC  =        48.14274557
  PAW double counting   =      3850.54013818    -3556.21802864
  entropy T*S    EENTRO =         0.00000000
  eigenvalues    EBANDS =      -862.57611782
  atomic energy  EATOM  =      7269.15145414
  Solvation  Ediel_sol  =         0.00000000
  ---------------------------------------------------
  free energy    TOTEN  =       -97.38823668 eV

  energy without entropy =      -97.38823668  energy(sigma->0) =      -97.38823668


--------------------------------------------------------------------------------------------------------




--------------------------------------- Iteration      1(  11)  ---------------------------------------


    POTLOK:  cpu time    0.9478: real time    0.9562
    SETDIJ:  cpu time    0.0740: real time    0.0742
     EDDAV:  cpu time    2.7711: real time    2.7777
 BZINTS: Fermi energy:  3.446004;144.000000 electrons
         Band energy:-862.457869;  BLOECHL correction:  0.000000
       DOS:  cpu time    0.0083: real time    0.0083
    CHARGE:  cpu time    0.0841: real time    0.0843
    MIXING:  cpu time    0.0030: real time    0.0031
    --------------------------------------------
      LOOP:  cpu time    3.8884: real time    3.9038

 eigenvalue-minimisations  :  7264
 total energy-change (2. order) :-0.7510492E-04  (-0.2240351E-03)
 number of electron     143.9999999 magnetization 
 augmentation part      -17.6593531 magnetization 

 Broyden mixing:
  rms(total) = 0.21777E-02    rms(broyden)= 0.21776E-02
  rms(prec ) = 0.33589E-02
  weight for this iteration     100.00

 eigenvalues of (default mixing * dielectric matrix)
  average eigenvalue GAMMA=   1.6188
  2.9042  2.3679  1.2919  0.9938  1.0775  1.0775

 Free energy of the ion-electron system (eV)
  ---------------------------------------------------
  alpha Z        PSCENC =       454.25479217
  Ewald energy   TEWEN  =     -6374.53395873
  -Hartree energ DENC   =      -926.41844375
  -exchange      EXHF   =         0.00000000
  -V(xc)+E(xc)   XCENC  =        48.16645244
  PAW double counting   =      3851.77400398    -3557.32474277
  entropy T*S    EENTRO =         0.00000000
  eigenvalues    EBANDS =      -862.45786927
  atomic energy  EATOM  =      7269.15145414
  Solvation  Ediel_sol  =         0.00000000
  ---------------------------------------------------
  free energy    TOTEN  =       -97.38831178 eV

  energy without entropy =      -97.38831178  energy(sigma->0) =      -97.38831178


--------------------------------------------------------------------------------------------------------




--------------------------------------- Iteration      1(  12)  ---------------------------------------


    POTLOK:  cpu time    0.9672: real time    0.9755
    SETDIJ:  cpu time    0.0360: real time    0.0361
     EDDAV:  cpu time    3.2432: real time    3.2509
 BZINTS: Fermi energy:  3.443087;144.000000 electrons
         Band energy:-862.424505;  BLOECHL correction:  0.000000
       DOS:  cpu time    0.0081: real time    0.0082
    CHARGE:  cpu time    0.0851: real time    0.0853
    MIXING:  cpu time    0.0029: real time    0.0030
    --------------------------------------------
      LOOP:  cpu time    4.3426: real time    4.3589

 eigenvalue-minimisations  :  8832
 total energy-change (2. order) :-0.1262064E-04  (-0.2553916E-04)
 number of electron     143.9999999 magnetization 
 augmentation part      -17.6564602 magnetization 

 Broyden mixing:
  rms(total) = 0.93550E-03    rms(broyden)= 0.93550E-03
  rms(prec ) = 0.13410E-02
  weight for this iteration     100.00

 eigenvalues of (default mixing * dielectric matrix)
  average eigenvalue GAMMA=   1.6657
  3.1095  2.3905  1.8635  1.0663  1.0663  0.9481  1.2159

 Free energy of the ion-electron system (eV)
  ---------------------------------------------------
  alpha Z        PSCENC =       454.25479217
  Ewald energy   TEWEN  =     -6374.53395873
  -Hartree energ DENC   =      -926.45976910
  -exchange      EXHF   =         0.00000000
  -V(xc)+E(xc)   XCENC  =        48.16867411
  PAW double counting   =      3851.73368159    -3557.27869393
  entropy T*S    EENTRO =         0.00000000
  eigenvalues    EBANDS =      -862.42450465
  atomic energy  EATOM  =      7269.15145414
  Solvation  Ediel_sol  =         0.00000000
  ---------------------------------------------------
  free energy    TOTEN  =       -97.38832440 eV

  energy without entropy =      -97.38832440  energy(sigma->0) =      -97.38832440


--------------------------------------------------------------------------------------------------------




--------------------------------------- Iteration      1(  13)  ---------------------------------------


    POTLOK:  cpu time    0.9547: real time    0.9631
    SETDIJ:  cpu time    0.0636: real time    0.0637
     EDDAV:  cpu time    2.8421: real time    2.8489
 BZINTS: Fermi energy:  3.440849;144.000000 electrons
         Band energy:-862.411575;  BLOECHL correction:  0.000000
       DOS:  cpu time    0.0083: real time    0.0083
    CHARGE:  cpu time    0.0894: real time    0.0896
    MIXING:  cpu time    0.0029: real time    0.0029
    --------------------------------------------
      LOOP:  cpu time    3.9610: real time    3.9765

 eigenvalue-minimisations  :  7528
 total energy-change (2. order) :-0.7935797E-05  (-0.5939884E-05)
 number of electron     143.9999999 magnetization 
 augmentation part      -17.6560439 magnetization 

 Broyden mixing:
  rms(total) = 0.45627E-03    rms(broyden)= 0.45626E-03
  rms(prec ) = 0.79937E-03
  weight for this iteration     100.00

 eigenvalues of (default mixing * dielectric matrix)
  average eigenvalue GAMMA=   1.6474
  3.1019  2.3654  2.3654  1.0781  1.0781  1.1390  1.1390  0.9120

 Free energy of the ion-electron system (eV)
  ---------------------------------------------------
  alpha Z        PSCENC =       454.25479217
  Ewald energy   TEWEN  =     -6374.53395873
  -Hartree energ DENC   =      -926.47991967
  -exchange      EXHF   =         0.00000000
  -V(xc)+E(xc)   XCENC  =        48.17080202
  PAW double counting   =      3851.71854435    -3557.25847126
  entropy T*S    EENTRO =         0.00000000
  eigenvalues    EBANDS =      -862.41157535
  atomic energy  EATOM  =      7269.15145414
  Solvation  Ediel_sol  =         0.00000000
  ---------------------------------------------------
  free energy    TOTEN  =       -97.38833234 eV

  energy without entropy =      -97.38833234  energy(sigma->0) =      -97.38833234


--------------------------------------------------------------------------------------------------------




--------------------------------------- Iteration      1(  14)  ---------------------------------------


    POTLOK:  cpu time    0.9571: real time    0.9652
    SETDIJ:  cpu time    0.0604: real time    0.0606
     EDDAV:  cpu time    2.3973: real time    2.4031
 BZINTS: Fermi energy:  3.438912;144.000000 electrons
         Band energy:-862.403758;  BLOECHL correction:  0.000000
       DOS:  cpu time    0.0082: real time    0.0082
    CHARGE:  cpu time    0.0859: real time    0.0861
    MIXING:  cpu time    0.0041: real time    0.0042
    --------------------------------------------
      LOOP:  cpu time    3.5130: real time    3.5272

 eigenvalue-minimisations  :  5992
 total energy-change (2. order) : 0.4822932E-06  (-0.1802434E-05)
 number of electron     143.9999999 magnetization 
 augmentation part      -17.6555758 magnetization 

 Broyden mixing:
  rms(total) = 0.14940E-03    rms(broyden)= 0.14940E-03
  rms(prec ) = 0.18426E-03
  weight for this iteration     100.00

 eigenvalues of (default mixing * dielectric matrix)
  average eigenvalue GAMMA=   1.6720
  3.1265  2.4638  2.4638  1.6648  1.0958  1.0958  1.2289  0.9542  0.9542

 Free energy of the ion-electron system (eV)
  ---------------------------------------------------
  alpha Z        PSCENC =       454.25479217
  Ewald energy   TEWEN  =     -6374.53395873
  -Hartree energ DENC   =      -926.48461561
  -exchange      EXHF   =         0.00000000
  -V(xc)+E(xc)   XCENC  =        48.17113968
  PAW double counting   =      3851.61221751    -3557.15560255
  entropy T*S    EENTRO =         0.00000000
  eigenvalues    EBANDS =      -862.40375847
  atomic energy  EATOM  =      7269.15145414
  Solvation  Ediel_sol  =         0.00000000
  ---------------------------------------------------
  free energy    TOTEN  =       -97.38833186 eV

  energy without entropy =      -97.38833186  energy(sigma->0) =      -97.38833186


--------------------------------------------------------------------------------------------------------




--------------------------------------- Iteration      1(  15)  ---------------------------------------


    POTLOK:  cpu time    0.9339: real time    0.9420
    SETDIJ:  cpu time    0.0949: real time    0.0951
     EDDAV:  cpu time    1.9330: real time    1.9375
 BZINTS: Fermi energy:  3.437440;144.000000 electrons
         Band energy:-862.406908;  BLOECHL correction:  0.000000
       DOS:  cpu time    0.0083: real time    0.0084
    --------------------------------------------
      LOOP:  cpu time    2.9701: real time    2.9830

 eigenvalue-minimisations  :  4344
 total energy-change (2. order) : 0.1862090E-06  (-0.1129485E-06)
 number of electron     143.9999999 magnetization 
 augmentation part      -17.6555758 magnetization 

 Free energy of the ion-electron system (eV)
  ---------------------------------------------------
  alpha Z        PSCENC =       454.25479217
  Ewald energy   TEWEN  =     -6374.53395873
  -Hartree energ DENC   =      -926.48098549
  -exchange      EXHF   =         0.00000000
  -V(xc)+E(xc)   XCENC  =        48.17078227
  PAW double counting   =      3851.58575185    -3557.12926023
  entropy T*S    EENTRO =         0.00000000
  eigenvalues    EBANDS =      -862.40690765
  atomic energy  EATOM  =      7269.15145414
  Solvation  Ediel_sol  =         0.00000000
  ---------------------------------------------------
  free energy    TOTEN  =       -97.38833167 eV

  energy without entropy =      -97.38833167  energy(sigma->0) =      -97.38833167


--------------------------------------------------------------------------------------------------------




 average (electrostatic) potential at core
  the test charge radii are     1.2192  0.9892
  (the norm of the test charge is              1.0000)
       1 -36.2541       2 -36.2541       3 -36.2541       4 -36.2541       5 -36.3506
       6 -36.3506       7 -36.3506       8 -36.3506       9 -85.2755      10 -85.2755
      11 -85.2755      12 -85.2755      13 -85.2755      14 -85.2755      15 -85.2755
      16 -85.2755      17 -85.3420      18 -85.3420      19 -85.3420      20 -85.3421
      21 -85.2369      22 -85.2369      23 -85.2369      24 -85.2369
 
 
 
 E-fermi :   3.4374     XC(G=0):  -8.8543     alpha+bet :-10.2470


 k-point     1 :       0.0000    0.0000    0.0000
  band No.  band energies     occupation 
      1     -24.2210      2.00000
      2     -24.2163      2.00000
      3     -24.2130      2.00000
      4     -24.2129      2.00000
      5     -24.1454      2.00000
      6     -24.1428      2.00000
      7     -24.1388      2.00000
      8     -24.1369      2.00000
      9      -9.7475      2.00000
     10      -9.7332      2.00000
     11      -9.6943      2.00000
     12      -9.6911      2.00000
     13      -9.6531      2.00000
     14      -9.6090      2.00000
     15      -9.6068      2.00000
     16      -9.5943      2.00000
     17      -9.5887      2.00000
     18      -9.5610      2.00000
     19      -9.5531      2.00000
     20      -9.5486      2.00000
     21      -9.5129      2.00000
     22      -9.4796      2.00000
     23      -9.4519      2.00000
     24      -9.4506      2.00000
     25      -9.4439      2.00000
     26      -9.4253      2.00000
     27      -9.4104      2.00000
     28      -9.4096      2.00000
     29      -9.3989      2.00000
     30      -9.3925      2.00000
     31      -9.3832      2.00000
     32      -9.3757      2.00000
     33      -7.3650      2.00000
     34      -7.1305      2.00000
     35      -7.0940      2.00000
     36      -7.0773      2.00000
     37      -2.7099      2.00000
     38      -2.6592      2.00000
     39      -2.3906      2.00000
     40      -2.3824      2.00000
     41      -2.2962      2.00000
     42      -2.2941      2.00000
     43      -2.2928      2.00000
     44      -2.2378      2.00000
     45      -2.1893      2.00000
     46      -2.1381      2.00000
     47      -2.1035      2.00000
     48      -1.9361      2.00000
     49      -0.1228      2.00000
     50       0.9298      2.00000
     51       1.0663      2.00000
     52       1.1108      2.00000
     53       1.1484      2.00000
     54       1.4259      2.00000
     55       1.6363      2.00000
     56       1.7072      2.00000
     57       1.7219      2.00000
     58       1.7535      2.00000
     59       1.8072      2.00000
     60       1.9921      2.00000
     61       2.0038      2.00000
     62       2.0112      2.00000
     63       2.1472      2.00000
     64       2.2718      2.00000
     65       2.3412      2.00000
     66       2.4096      2.00000
     67       2.4226      2.00000
     68       2.4471      2.00000
     69       2.7748      2.00000
     70       3.0036      2.00000
     71       3.0518      2.00000
     72       3.1978      2.00000
     73       4.3969      0.00000
     74       4.4202      0.00000
     75       4.7320      0.00000
     76       4.9051      0.00000
     77       4.9082      0.00000
     78       5.2622      0.00000
     79       5.3726      0.00000
     80       5.6362      0.00000
     81       5.6422      0.00000
     82       5.9045      0.00000
     83       5.9591      0.00000
     84       5.9830      0.00000
     85       5.9855      0.00000
     86       6.0222      0.00000
     87       6.0893      0.00000
     88       6.3950      0.00000

 k-point     2 :       0.2000    0.0000    0.0000
  band No.  band energies     occupation 
      1     -24.2205      2.00000
      2     -24.2165      2.00000
      3     -24.2132      2.00000
      4     -24.2131      2.00000
      5     -24.1448      2.00000
      6     -24.1423      2.00000
      7     -24.1394      2.00000
      8     -24.1376      2.00000
      9      -9.7575      2.00000
     10      -9.7175      2.00000
     11      -9.7008      2.00000
     12      -9.6851      2.00000
     13      -9.6310      2.00000
     14      -9.6024      2.00000
     15      -9.5985      2.00000
     16      -9.5978      2.00000
     17      -9.5954      2.00000
     18      -9.5617      2.00000
     19      -9.5616      2.00000
     20      -9.5571      2.00000
     21      -9.5282      2.00000
     22      -9.4638      2.00000
     23      -9.4598      2.00000
     24      -9.4479      2.00000
     25      -9.4390      2.00000
     26      -9.4246      2.00000
     27      -9.4114      2.00000
     28      -9.4112      2.00000
     29      -9.4041      2.00000
     30      -9.4010      2.00000
     31      -9.3895      2.00000
     32      -9.3807      2.00000
     33      -7.3279      2.00000
     34      -7.1182      2.00000
     35      -7.1090      2.00000
     36      -7.0748      2.00000
     37      -2.7094      2.00000
     38      -2.6552      2.00000
     39      -2.4719      2.00000
     40      -2.3824      2.00000
     41      -2.3734      2.00000
     42      -2.2752      2.00000
     43      -2.2434      2.00000
     44      -2.2108      2.00000
     45      -2.1831      2.00000
     46      -2.1640      2.00000
     47      -2.1209      2.00000
     48      -2.0731      2.00000
     49       0.0306      2.00000
     50       1.0073      2.00000
     51       1.0192      2.00000
     52       1.0386      2.00000
     53       1.1406      2.00000
     54       1.5858      2.00000
     55       1.6018      2.00000
     56       1.7322      2.00000
     57       1.8229      2.00000
     58       1.8500      2.00000
     59       1.9051      2.00000
     60       1.9100      2.00000
     61       2.1055      2.00000
     62       2.1232      2.00000
     63       2.1422      2.00000
     64       2.3479      2.00000
     65       2.3541      2.00000
     66       2.3581      2.00000
     67       2.4202      2.00000
     68       2.4880      2.00000
     69       2.7574      2.00000
     70       2.9700      2.00000
     71       3.0505      2.00000
     72       3.1058      2.00000
     73       4.3704      0.00000
     74       4.4467      0.00000
     75       4.6892      0.00000
     76       4.8580      0.00000
     77       4.9083      0.00000
     78       5.2007      0.00000
     79       5.3110      0.00000
     80       5.3167      0.00000
     81       5.3859      0.00000
     82       5.7213      0.00000
     83       5.7891      0.00000
     84       6.0095      0.00000
     85       6.2406      0.00000
     86       6.3449      0.00000
     87       6.3956      0.00000
     88       6.4509      0.00000

 k-point     3 :       0.4000    0.0000    0.0000
  band No.  band energies     occupation 
      1     -24.2190      2.00000
      2     -24.2175      2.00000
      3     -24.2134      2.00000
      4     -24.2133      2.00000
      5     -24.1430      2.00000
      6     -24.1410      2.00000
      7     -24.1409      2.00000
      8     -24.1391      2.00000
      9      -9.7597      2.00000
     10      -9.7466      2.00000
     11      -9.6600      2.00000
     12      -9.6401      2.00000
     13      -9.6267      2.00000
     14      -9.6156      2.00000
     15      -9.5936      2.00000
     16      -9.5911      2.00000
     17      -9.5765      2.00000
     18      -9.5745      2.00000
     19      -9.5674      2.00000
     20      -9.5558      2.00000
     21      -9.5530      2.00000
     22      -9.5101      2.00000
     23      -9.4572      2.00000
     24      -9.4412      2.00000
     25      -9.4285      2.00000
     26      -9.4277      2.00000
     27      -9.4260      2.00000
     28      -9.4151      2.00000
     29      -9.4090      2.00000
     30      -9.3967      2.00000
     31      -9.3922      2.00000
     32      -9.3829      2.00000
     33      -7.2422      2.00000
     34      -7.1587      2.00000
     35      -7.0929      2.00000
     36      -7.0763      2.00000
     37      -2.6994      2.00000
     38      -2.6393      2.00000
     39      -2.5838      2.00000
     40      -2.4461      2.00000
     41      -2.3264      2.00000
     42      -2.2645      2.00000
     43      -2.2569      2.00000
     44      -2.2566      2.00000
     45      -2.2263      2.00000
     46      -2.1739      2.00000
     47      -2.1674      2.00000
     48      -2.1662      2.00000
     49       0.3574      2.00000
     50       0.7290      2.00000
     51       0.9720      2.00000
     52       0.9995      2.00000
     53       1.3927      2.00000
     54       1.5582      2.00000
     55       1.7980      2.00000
     56       1.8515      2.00000
     57       1.8663      2.00000
     58       1.8858      2.00000
     59       1.9468      2.00000
     60       2.0825      2.00000
     61       2.2133      2.00000
     62       2.2239      2.00000
     63       2.2257      2.00000
     64       2.3098      2.00000
     65       2.3942      2.00000
     66       2.4784      2.00000
     67       2.4839      2.00000
     68       2.6877      2.00000
     69       2.7695      2.00000
     70       2.7917      2.00000
     71       2.8749      2.00000
     72       2.9749      2.00000
     73       4.5300      0.00000
     74       4.5445      0.00000
     75       4.6456      0.00000
     76       4.7197      0.00000
     77       4.7829      0.00000
     78       4.8195      0.00000
     79       5.0308      0.00000
     80       5.1050      0.00000
     81       5.5100      0.00000
     82       5.7711      0.00000
     83       5.8140      0.00000
     84       5.9398      0.00000
     85       5.9641      0.00000
     86       6.1165      0.00000
     87       6.3037      0.00000
     88       6.4034      0.00000

 k-point     4 :       0.0000    0.1667    0.0000
  band No.  band energies     occupation 
      1     -24.2200      2.00000
      2     -24.2159      2.00000
      3     -24.2130      2.00000
      4     -24.2130      2.00000
      5     -24.1458      2.00000
      6     -24.1435      2.00000
      7     -24.1388      2.00000
      8     -24.1371      2.00000
      9      -9.7379      2.00000
     10      -9.7373      2.00000
     11      -9.7314      2.00000
     12      -9.6542      2.00000
     13      -9.6531      2.00000
     14      -9.6441      2.00000
     15      -9.6329      2.00000
     16      -9.6313      2.00000
     17      -9.6088      2.00000
     18      -9.5504      2.00000
     19      -9.5299      2.00000
     20      -9.5290      2.00000
     21      -9.4949      2.00000
     22      -9.4822      2.00000
     23      -9.4516      2.00000
     24      -9.4499      2.00000
     25      -9.4405      2.00000
     26      -9.4312      2.00000
     27      -9.4056      2.00000
     28      -9.4033      2.00000
     29      -9.3984      2.00000
     30      -9.3965      2.00000
     31      -9.3859      2.00000
     32      -9.3726      2.00000
     33      -7.3163      2.00000
     34      -7.1200      2.00000
     35      -7.0923      2.00000
     36      -7.0786      2.00000
     37      -2.6533      2.00000
     38      -2.6080      2.00000
     39      -2.3798      2.00000
     40      -2.3757      2.00000
     41      -2.3541      2.00000
     42      -2.3194      2.00000
     43      -2.2726      2.00000
     44      -2.2219      2.00000
     45      -2.2182      2.00000
     46      -2.1748      2.00000
     47      -2.1331      2.00000
     48      -1.9446      2.00000
     49       0.1195      2.00000
     50       0.9956      2.00000
     51       1.1143      2.00000
     52       1.1770      2.00000
     53       1.1783      2.00000
     54       1.3307      2.00000
     55       1.4012      2.00000
     56       1.6960      2.00000
     57       1.7428      2.00000
     58       1.8427      2.00000
     59       1.9179      2.00000
     60       1.9470      2.00000
     61       2.0435      2.00000
     62       2.0694      2.00000
     63       2.1511      2.00000
     64       2.1721      2.00000
     65       2.3151      2.00000
     66       2.3501      2.00000
     67       2.4488      2.00000
     68       2.4990      2.00000
     69       2.6899      2.00000
     70       2.7598      2.00000
[...]
     29      -9.1220      2.00000
     30      -9.1220      2.00000
     31      -9.1159      2.00000
     32      -9.1159      2.00000
     33      -6.9100      2.00000
     34      -6.9100      2.00000
     35      -6.9070      2.00000
     36      -6.9070      2.00000
     37      -2.5826      2.00000
     38      -2.5826      2.00000
     39      -2.2666      2.00000
     40      -2.2666      2.00000
     41      -2.1339      2.00000
     42      -2.1339      2.00000
     43      -2.0585      2.00000
     44      -2.0585      2.00000
     45      -2.0164      2.00000
     46      -2.0164      2.00000
     47      -1.8696      2.00000
     48      -1.8696      2.00000
     49       1.0573      2.00000
     50       1.0573      2.00000
     51       1.1930      2.00000
     52       1.1930      2.00000
     53       1.4831      2.00000
     54       1.4831      2.00000
     55       1.6350      2.00000
     56       1.6350      2.00000
     57       2.0179      2.00000
     58       2.0179      2.00000
     59       2.0917      2.00000
     60       2.0917      2.00000
     61       2.3306      2.00000
     62       2.3306      2.00000
     63       2.3539      2.00000
     64       2.3539      2.00000
     65       2.6133      2.00000
     66       2.6133      2.00000
     67       2.6248      2.00000
     68       2.6248      2.00000
     69       2.9957      2.00000
     70       2.9957      2.00000
     71       3.2170      2.00000
     72       3.2170      2.00000
     73       4.3453      0.00000
     74       4.3453      0.00000
     75       4.4837      0.00000
     76       4.4837      0.00000
     77       4.9276      0.00000
     78       4.9276      0.00000
     79       5.2066      0.00000
     80       5.2066      0.00000
     81       5.5746      0.00000
     82       5.5746      0.00000
     83       5.6205      0.00000
     84       5.6205      0.00000
     85       6.1114      0.00000
     86       6.1114      0.00000
     87       6.4350      0.00000
     88       6.4350      0.00000

 k-point    36 :       0.4000    0.5000    0.5000
  band No.  band energies     occupation 
      1     -23.9526      2.00000
      2     -23.9526      2.00000
      3     -23.9524      2.00000
      4     -23.9524      2.00000
      5     -23.8727      2.00000
      6     -23.8727      2.00000
      7     -23.8698      2.00000
      8     -23.8698      2.00000
      9      -9.5392      2.00000
     10      -9.5392      2.00000
     11      -9.5186      2.00000
     12      -9.5186      2.00000
     13      -9.4597      2.00000
     14      -9.4597      2.00000
     15      -9.4434      2.00000
     16      -9.4434      2.00000
     17      -9.3237      2.00000
     18      -9.3237      2.00000
     19      -9.2800      2.00000
     20      -9.2800      2.00000
     21      -9.2161      2.00000
     22      -9.2161      2.00000
     23      -9.2046      2.00000
     24      -9.2046      2.00000
     25      -9.1624      2.00000
     26      -9.1624      2.00000
     27      -9.1549      2.00000
     28      -9.1549      2.00000
     29      -9.1291      2.00000
     30      -9.1291      2.00000
     31      -9.1276      2.00000
     32      -9.1276      2.00000
     33      -6.8964      2.00000
     34      -6.8964      2.00000
     35      -6.8952      2.00000
     36      -6.8952      2.00000
     37      -2.5438      2.00000
     38      -2.5438      2.00000
     39      -2.4415      2.00000
     40      -2.4415      2.00000
     41      -2.1295      2.00000
     42      -2.1295      2.00000
     43      -2.0931      2.00000
     44      -2.0931      2.00000
     45      -1.9805      2.00000
     46      -1.9805      2.00000
     47      -1.9142      2.00000
     48      -1.9142      2.00000
     49       1.1465      2.00000
     50       1.1465      2.00000
     51       1.2322      2.00000
     52       1.2322      2.00000
     53       1.6625      2.00000
     54       1.6625      2.00000
     55       1.8191      2.00000
     56       1.8191      2.00000
     57       2.0175      2.00000
     58       2.0175      2.00000
     59       2.1063      2.00000
     60       2.1063      2.00000
     61       2.2344      2.00000
     62       2.2344      2.00000
     63       2.2952      2.00000
     64       2.2952      2.00000
     65       2.6796      2.00000
     66       2.6796      2.00000
     67       2.7149      2.00000
     68       2.7149      2.00000
     69       3.1273      2.00000
     70       3.1273      2.00000
     71       3.1410      2.00000
     72       3.1410      2.00000
     73       4.4155      0.00000
     74       4.4156      0.00000
     75       4.5959      0.00000
     76       4.5959      0.00000
     77       4.7745      0.00000
     78       4.7745      0.00000
     79       5.0435      0.00000
     80       5.0435      0.00000
     81       5.5094      0.00000
     82       5.5094      0.00000
     83       5.6586      0.00000
     84       5.6586      0.00000
     85       5.9849      0.00000
     86       5.9849      0.00000
     87       6.0961      0.00000
     88       6.0961      0.00000


--------------------------------------------------------------------------------------------------------


 soft charge-density along one line, spin component           1
         0         1         2         3         4         5         6         7         8         9
 total charge-density along one line
 
 pseudopotential strength for first ion, spin component:           1
  2.181  -4.465  -0.000   0.003   0.001  -0.000   0.002   0.001
 -4.465  -2.808   0.000  -0.001   0.000  -0.000   0.001   0.000
 -0.000   0.000  -7.449  -0.000  -0.000   1.124  -0.000  -0.000
  0.003  -0.001  -0.000  -7.448  -0.001  -0.000   1.126  -0.002
  0.001   0.000  -0.000  -0.001  -7.448  -0.000  -0.002   1.125
 -0.000  -0.000   1.124  -0.000  -0.000   7.404  -0.000  -0.000
  0.002   0.001  -0.000   1.126  -0.002  -0.000   7.404  -0.000
  0.001   0.000  -0.000  -0.002   1.125  -0.000  -0.000   7.404
 -0.000   0.000   0.000  -0.000  -0.000   0.000  -0.000  -0.000
 -0.000   0.000   0.001  -0.000  -0.000   0.001  -0.000  -0.000
  0.000  -0.000   0.000   0.001   0.000   0.000   0.001   0.000
 -0.001   0.000  -0.000   0.001   0.001  -0.000   0.001   0.001
  0.000  -0.000   0.000  -0.000   0.001   0.000  -0.000   0.001
  0.000   0.000  -0.000   0.000   0.000   0.000   0.000   0.000
  0.000   0.000  -0.000   0.000   0.000  -0.000   0.000   0.000
 -0.000  -0.000  -0.000  -0.000   0.000  -0.000  -0.000  -0.000
  0.000   0.000   0.000  -0.000  -0.000   0.000  -0.000  -0.000
 -0.000  -0.000  -0.000   0.000  -0.000  -0.000   0.000  -0.000
 total augmentation occupancy for first ion, spin component:           1
  2.102  -0.242  -0.000  -0.006  -0.004  -0.000   0.003   0.001   0.000   0.000   0.003  -0.011  -0.001   0.000  -0.000  -0.002
 -0.242   0.596   0.000   0.016   0.010   0.000  -0.007  -0.002   0.000   0.000  -0.006   0.022   0.004  -0.000   0.000   0.008
 -0.000  -0.000   2.011  -0.000   0.000  -0.013   0.000   0.000  -0.014  -0.002   0.000   0.000   0.000   0.020   0.005   0.000
 -0.006   0.016  -0.000   2.008   0.003   0.000  -0.012  -0.002   0.000   0.000   0.004   0.026   0.004   0.000  -0.000   0.004
 -0.004   0.010   0.000   0.003   2.010   0.000  -0.002  -0.013  -0.000   0.000   0.014   0.010   0.014   0.000   0.000  -0.021
 -0.000  -0.000  -0.013   0.000   0.000   0.010  -0.000   0.000   0.006   0.003   0.000   0.000  -0.000  -0.011  -0.005   0.000
  0.003  -0.007   0.000  -0.012  -0.002   0.000   0.010   0.001  -0.000  -0.000  -0.002  -0.009  -0.003   0.000   0.000   0.003
  0.001  -0.002   0.000  -0.002  -0.013   0.000   0.001   0.011   0.000  -0.000  -0.006  -0.004  -0.005   0.000   0.000   0.011
 -0.000   0.000  -0.014  -0.000   0.000   0.006   0.000   0.000   0.124  -0.040  -0.000  -0.000  -0.000  -0.239   0.079   0.000
 -0.000   0.000  -0.002   0.000   0.000   0.003  -0.000  -0.000  -0.040   0.081   0.000   0.000   0.000   0.079  -0.153  -0.000
  0.003  -0.006   0.000   0.004   0.014   0.000  -0.002  -0.006  -0.000   0.000   0.109   0.029   0.012   0.000  -0.000  -0.209
 -0.011   0.022   0.000   0.026   0.010   0.000  -0.009  -0.004   0.000  -0.000   0.029   0.117   0.029   0.000   0.000  -0.060
 -0.001   0.004   0.000   0.004   0.014  -0.000  -0.003  -0.005  -0.000   0.000   0.012   0.029   0.088   0.000   0.000  -0.018
  0.000   0.000   0.020   0.000   0.000  -0.011   0.000  -0.000  -0.239   0.079   0.000  -0.000   0.000   0.488  -0.170  -0.000
 -0.000  -0.000   0.005  -0.000   0.000  -0.005   0.000   0.000   0.079  -0.153  -0.000   0.000  -0.000  -0.170   0.308   0.000
 -0.002   0.008   0.000   0.004  -0.021   0.000   0.003   0.011   0.000   0.000  -0.209  -0.060  -0.018  -0.000   0.000   0.426
  0.011  -0.032  -0.000  -0.040  -0.003   0.000   0.018   0.006   0.000   0.000  -0.060  -0.221  -0.055   0.000   0.000   0.134
  0.005  -0.016  -0.000  -0.001  -0.020   0.000   0.005   0.008   0.000  -0.000  -0.018  -0.055  -0.166  -0.000   0.000   0.035


------------------------ aborting loop because EDIFF is reached ----------------------------------------


    CHARGE:  cpu time    0.0905: real time    0.0907
    FORLOC:  cpu time    0.0038: real time    0.0038
    FORNL :  cpu time    0.4443: real time    0.4454
    STRESS:  cpu time    1.3710: real time    1.3742
    FORCOR:  cpu time    0.9262: real time    0.9284
    FORHAR:  cpu time    0.0087: real time    0.0087
    MIXING:  cpu time    0.0024: real time    0.0024
    OFIELD:  cpu time    0.0000: real time    0.0000

  FORCE on cell =-STRESS in cart. coord.  units (eV):
  Direction    XX          YY          ZZ          XY          YZ          ZX
  --------------------------------------------------------------------------------------
  Alpha Z   466.98395   466.98395   466.98395
  Ewald   -2161.54199 -2147.76076 -2134.64534    -0.00000    -0.00000    -0.00014
  Hartree   291.31026   302.40805   305.27420     0.00000    -0.00000     0.00001
  E(xc)    -466.71186  -466.66520  -466.65724    -0.00000    -0.00000    -0.00000
  Local     138.87361   120.33748   105.03911     0.00000     0.00000     0.00009
  n-local   341.60650   339.15732   339.68466    -0.10452    -0.04391    -0.14957
  augment  -167.91182  -166.95582  -167.15167    -0.00000    -0.00000    -0.00000
  Kinetic  1557.42155  1552.45936  1551.48869     0.67381    -0.77119    -0.01334
  Fock        0.00000     0.00000     0.00000     0.00000     0.00000     0.00000
  -------------------------------------------------------------------------------------
  Total       0.03020    -0.03562     0.01636    -0.00000     0.00000     0.00000
  in kB       0.07021    -0.08281     0.03803    -0.00000     0.00000     0.00000
  external pressure =        0.01 kB  Pullay stress =        0.00 kB


 VOLUME and BASIS-vectors are now :
 -----------------------------------------------------------------------------
  energy-cutoff  :      500.00
  volume of cell :      689.17
      direct lattice vectors                 reciprocal lattice vectors
     8.905834933  0.000000000  0.000000000     0.112285935 -0.000000000  0.000000000
     0.000000000  6.725852125  0.000000000    -0.000000000  0.148680046  0.000000000
     0.000000000  0.000000000 11.505484702     0.000000000  0.000000000  0.086915069

  length of vectors
     8.905834933  6.725852125 11.505484702     0.112285935  0.148680046  0.086915069


 FORCES acting on ions
    electron-ion (+dipol)            ewald-force                    non-local-force                 convergence-correction
 -----------------------------------------------------------------------------------------------
   0.282E+01 0.804E-04 0.165E+01   -.314E+01 0.141E-04 -.199E+01   0.326E+00 -.140E-17 0.343E+00   -.528E-04 -.208E-08 0.603E-04
   -.282E+01 0.868E-05 -.165E+01   0.314E+01 -.201E-04 0.199E+01   -.326E+00 -.528E-18 -.343E+00   0.528E-04 -.144E-08 -.603E-04
   -.282E+01 0.449E-05 0.165E+01   0.314E+01 -.201E-04 -.199E+01   -.326E+00 -.285E-18 0.343E+00   0.528E-04 -.268E-08 0.603E-04
   0.282E+01 0.762E-04 -.165E+01   -.314E+01 0.141E-04 0.199E+01   0.326E+00 -.840E-19 -.343E+00   -.528E-04 -.332E-08 -.603E-04
   -.219E+02 0.737E-05 -.552E+01   0.211E+02 -.179E-04 0.559E+01   0.749E+00 -.411E-18 -.708E-01   0.974E-04 0.960E-09 0.200E-03
   0.219E+02 0.789E-04 0.552E+01   -.211E+02 0.173E-04 -.559E+01   -.749E+00 -.442E-18 0.708E-01   -.974E-04 0.160E-08 -.200E-03
   0.219E+02 0.768E-04 -.552E+01   -.211E+02 0.173E-04 0.559E+01   -.749E+00 -.620E-18 -.708E-01   -.974E-04 0.456E-09 0.200E-03
   -.219E+02 0.527E-05 0.552E+01   0.211E+02 -.179E-04 -.559E+01   0.749E+00 0.339E-18 0.708E-01   0.974E-04 -.189E-09 -.200E-03
   0.103E+02 0.304E+02 -.167E+02   -.108E+02 -.318E+02 0.176E+02   0.430E+00 0.133E+01 -.819E+00   -.743E-04 -.209E-03 0.124E-03
   -.103E+02 -.304E+02 0.167E+02   0.108E+02 0.318E+02 -.176E+02   -.430E+00 -.133E+01 0.819E+00   0.743E-04 0.209E-03 -.124E-03
   -.103E+02 -.304E+02 -.167E+02   0.108E+02 0.318E+02 0.176E+02   -.430E+00 -.133E+01 -.819E+00   0.743E-04 0.209E-03 0.124E-03
   0.103E+02 0.304E+02 0.167E+02   -.108E+02 -.318E+02 -.176E+02   0.430E+00 0.133E+01 0.819E+00   -.743E-04 -.209E-03 -.124E-03
   -.103E+02 0.304E+02 0.167E+02   0.108E+02 -.318E+02 -.176E+02   -.430E+00 0.133E+01 0.819E+00   0.743E-04 -.209E-03 -.124E-03
   0.103E+02 -.304E+02 -.167E+02   -.108E+02 0.318E+02 0.176E+02   0.430E+00 -.133E+01 -.819E+00   -.743E-04 0.209E-03 0.124E-03
   0.103E+02 -.304E+02 0.167E+02   -.108E+02 0.318E+02 -.176E+02   0.430E+00 -.133E+01 0.819E+00   -.743E-04 0.209E-03 -.124E-03
   -.103E+02 0.304E+02 -.167E+02   0.108E+02 -.318E+02 0.176E+02   -.430E+00 0.133E+01 -.819E+00   0.743E-04 -.209E-03 0.124E-03
   0.429E+02 -.121E-04 0.593E+00   -.449E+02 -.786E-05 -.138E+01   0.192E+01 0.219E-17 0.796E+00   -.254E-03 0.618E-09 -.729E-04
   -.429E+02 -.682E-06 -.593E+00   0.449E+02 0.815E-05 0.138E+01   -.192E+01 -.104E-17 -.796E+00   0.254E-03 0.750E-09 0.729E-04
   -.429E+02 0.757E-05 0.593E+00   0.449E+02 0.815E-05 -.138E+01   -.192E+01 0.117E-17 0.796E+00   0.254E-03 0.247E-09 -.729E-04
   0.429E+02 -.387E-05 -.593E+00   -.449E+02 -.786E-05 0.138E+01   0.192E+01 -.783E-17 -.796E+00   -.254E-03 0.115E-09 0.729E-04
   0.791E+01 -.421E-05 0.346E+02   -.789E+01 0.875E-05 -.362E+02   -.198E-01 -.774E-18 0.163E+01   -.108E-03 -.104E-09 -.333E-03
   -.791E+01 -.150E-04 -.346E+02   0.789E+01 -.914E-05 0.362E+02   0.198E-01 0.144E-18 -.163E+01   0.108E-03 -.763E-09 0.333E-03
   -.791E+01 -.123E-05 0.346E+02   0.789E+01 -.914E-05 -.362E+02   0.198E-01 0.451E-17 0.163E+01   0.108E-03 -.774E-09 -.333E-03
   0.791E+01 0.952E-05 -.346E+02   -.789E+01 0.875E-05 0.362E+02   -.198E-01 0.486E-17 -.163E+01   -.108E-03 -.114E-09 0.333E-03
 -----------------------------------------------------------------------------------------------
   -.273E-03 0.394E-03 0.617E-04   0.178E-14 -.284E-13 -.284E-13   0.215E-15 -.219E-15 -.222E-15   -.329E-08 -.406E-08 0.231E-08
 
 
 POSITION                                       TOTAL-FORCE (eV/Angst)
 -----------------------------------------------------------------------------------
      0.13724      1.68146      7.96359         0.003119     -0.000000      0.001880
      8.76859      5.04439      3.54189        -0.003119     -0.000000     -0.001880
      4.31567      5.04439      2.21085        -0.003119     -0.000000      0.001880
      4.59016      1.68146      9.29464         0.003119     -0.000000     -0.001880
      1.43167      5.04439     10.42872        -0.004074     -0.000000     -0.003155
      7.47417      1.68146      1.07676         0.004074      0.000000      0.003155
      3.02125      1.68146      4.67598         0.004074     -0.000000     -0.003155
      5.88458      5.04439      6.82950        -0.004074      0.000000      0.003155
      1.72190      0.47715      1.68293        -0.001390     -0.001227     -0.006086
      7.18394      6.24870      9.82255         0.001390      0.001227      0.006086
      2.73102      6.24870      7.43568         0.001390      0.001227     -0.006086
      6.17482      0.47715      4.06981        -0.001390     -0.001227      0.006086
      7.18394      3.84008      9.82255         0.001390     -0.001227      0.006086
      1.72190      2.88577      1.68293        -0.001390      0.001227     -0.006086
      6.17482      2.88577      4.06981        -0.001390      0.001227      0.006086
      2.73102      3.84008      7.43568         0.001390     -0.001227     -0.006086
      0.72463      5.04439      6.79850         0.000254     -0.000000      0.007467
      8.18121      1.68146      4.70698        -0.000254      0.000000     -0.007467
      3.72829      1.68146      1.04576        -0.000254      0.000000      0.007467
      5.17754      5.04439     10.45973         0.000254      0.000000     -0.007467
      1.74942      1.68146     11.10083        -0.003275     -0.000000     -0.003482
      7.15641      5.04439      0.40465         0.003275     -0.000000      0.003482
      2.70350      5.04439      5.34809         0.003275      0.000000     -0.003482
      6.20234      1.68146      6.15740        -0.003275     -0.000000      0.003482
 -----------------------------------------------------------------------------------
    total drift:                               -0.000273      0.000394      0.000062


--------------------------------------------------------------------------------------------------------



  FREE ENERGIE OF THE ION-ELECTRON SYSTEM (eV)
  ---------------------------------------------------
  free  energy   TOTEN  =       -97.45277641 eV

  energy  without entropy=      -97.45277641  energy(sigma->0) =      -97.45277641
 
 d Force = 0.6529628E-04[ 0.296E-04, 0.101E-03]  d Energy = 0.7269879E-04-0.740E-05
 d Force = 0.1336427E+00[ 0.133E+00, 0.134E+00]  d Ewald  = 0.4420606E+00-0.308E+00


--------------------------------------------------------------------------------------------------------


    POTLOK:  cpu time    1.0358: real time    1.0382


--------------------------------------------------------------------------------------------------------


 Conjugate gradient step on ions:
 trial-energy change:   -0.000073  1 .order   -0.000069   -0.000104   -0.000034
  (g-gl).g = 0.661E-04      g.g   = 0.723E-04  gl.gl    = 0.163E-03
 g(Force)  = 0.708E-04   g(Stress)= 0.148E-05 ortho     = 0.137E-05
 gamma     =   0.40652
 trial     =   1.43116
 opt step  =   2.11873  (harmonic =   2.11873) maximal distance =0.00113830
 next E    =   -97.452781   (d E  =  -0.00008)


--------------------------------------------------------------------------------------------------------


  
 reached required accuracy - stopping structural energy minimisation
 writing wavefunctions
     LOOP+:  cpu time   22.3956: real time   22.8140
    4ORBIT:  cpu time    0.0000: real time    0.0000
 BZINTS: Fermi energy:  3.648836;144.000000 electrons
         Band energy:-834.149583;  BLOECHL correction:  0.000000

 total amount of memory used by VASP MPI-rank0    67772. kBytes
=======================================================================

   base      :      30000. kBytes
   nonlr-proj:       2580. kBytes
   fftplans  :       2347. kBytes
   grid      :       3658. kBytes
   one-center:         93. kBytes
   wavefun   :      29094. kBytes
 
  
  
 General timing and accounting informations for this job:
 ========================================================
  
                  Total CPU time used (sec):      485.368
                            User time (sec):      482.117
                          System time (sec):        3.251
                         Elapsed time (sec):      490.077
  
                   Maximum memory used (kb):      262820.
                   Average memory used (kb):           0.
  
                          Minor page faults:        60487
                          Major page faults:          221
                 Voluntary context switches:        20855
