<?xml version="1.0" encoding="ISO-8859-1"?>
<modeling>
 <generator>
  <i name="program" type="string">vasp </i>
  <i name="version" type="string">5.4.4.18Apr17-6-g9f103f2a35  </i>
  <i name="subversion" type="string">(build Nov 21 2017 15:30:27) complex            parallel </i>
  <i name="platform" type="string">LinuxIFC </i>
  <i name="date" type="string">2021 02 22 </i>
  <i name="time" type="string">13:55:12 </i>
 </generator>
 <incar>
  <i type="string" name="PREC">normal</i>
  <i type="int" name="ICHARG">    11</i>
  <i type="int" name="NELM">   100</i>
  <i name="EDIFF">      0.00000100</i>
  <i name="EDIFFG">     -0.01000000</i>
  <i name="ENCUT">    500.00000000</i>
  <i name="POTIM">      0.30000000</i>
  <i type="string" name="LREAL"> Auto       ! Projection in reciprocal s</i>
  <i type="int" name="ISMEAR">     0</i>
  <i name="SIGMA">      0.01000000</i>
  <i type="logical" name="LWAVE"> T  </i>
  <i type="logical" name="LCHARG"> T  </i>
  <i type="logical" name="LASPH"> T  </i>
  <v type="int" name="KPOINT_BSE">    -1     0     0     0</v>
  <i type="int" name="NELM">   100</i>
  <i type="string" name="GGA"> MK</i>
  <i name="PARAM1">      0.12340000</i>
  <i name="PARAM2">      0.71135700</i>
  <i type="logical" name="LUSE_VDW"> T  </i>
  <i name="Zab_VDW">     -1.88670000</i>
  <i name="AGGAC">      0.00000000</i>
  <i type="logical" name="LASPH"> T  </i>
 </incar>
 <structure name="primitive_cell" >
  <crystal>
   <varray name="basis" >
    <v>      33.01893616       0.00000000       0.00000000 </v>
    <v>       0.00000000       6.64406295       0.00000000 </v>
    <v>       0.00000000       0.00000000      11.38767529 </v>
   </varray>
   <i name="volume">   2498.22695818 </i>
   <varray name="rec_basis" >
    <v>       0.03028565       0.00000000       0.00000000 </v>
    <v>       0.00000000       0.15051031       0.00000000 </v>
    <v>       0.00000000       0.00000000       0.08781424 </v>
   </varray>
  </crystal>
  <varray name="positions" >
   <v>       0.01007105       0.25993040      -0.29002539 </v>
   <v>       0.04991590       0.25978161      -0.02749306 </v>
   <v>       0.08502096      -0.05990032      -0.34857689 </v>
   <v>       0.08500983      -0.42010394      -0.34854278 </v>
   <v>       0.02110414      -0.24000117      -0.37403719 </v>
   <v>       0.05960335      -0.23984338      -0.07818239 </v>
   <v>       0.09500901       0.25994267       0.40532172 </v>
   <v>       0.14161993       0.26036901      -0.18125001 </v>
   <v>       0.07162466      -0.24006534       0.47002585 </v>
   <v>       0.04954119       0.43989177       0.15632739 </v>
   <v>       0.04951382       0.07994694       0.15641234 </v>
   <v>       0.11146952       0.25966902       0.09254737 </v>
   <v>       0.18977523       0.25999500      -0.45418763 </v>
   <v>       0.16171625      -0.23954114      -0.08209665 </v>
   <v>       0.18042312      -0.24003327      -0.39441051 </v>
   <v>       0.18858399       0.07815478       0.36273910 </v>
   <v>       0.18861317       0.44160215       0.36262253 </v>
   <v>       0.22220801      -0.05805551      -0.13656897 </v>
   <v>       0.22221366      -0.42079223      -0.13655231 </v>
   <v>       0.12928181      -0.23998903       0.20169464 </v>
   <v>       0.22795480       0.26026110       0.10276978 </v>
   <v>       0.24925064       0.25999297       0.41721398 </v>
   <v>       0.21992077      -0.23946167       0.04709850 </v>
   <v>       0.27753846       0.26010559      -0.30070209 </v>
   <v>       0.29646459      -0.23985667      -0.39838064 </v>
   <v>       0.26817676      -0.23996929       0.31953543 </v>
   <v>       0.32579447       0.25959797      -0.02826514 </v>
   <v>       0.31776042      -0.24012480      -0.08393646 </v>
   <v>       0.32350158       0.44092851       0.15538563 </v>
   <v>       0.32350723       0.07819178       0.15540229 </v>
   <v>       0.35710204      -0.42146587      -0.34378919 </v>
   <v>       0.35713122      -0.05801851      -0.34390576 </v>
   <v>       0.35593998      -0.23985870       0.47302089 </v>
   <v>       0.36529211       0.26016957       0.41324389 </v>
   <v>       0.38399897       0.25967744       0.10092997 </v>
   <v>       0.41643341       0.26012532      -0.18286132 </v>
   <v>       0.40409529      -0.24023271       0.20008333 </v>
   <v>       0.43424571      -0.23953272      -0.07371405 </v>
   <v>       0.45070621      -0.23980637      -0.38648834 </v>
   <v>       0.46069428       0.08003659       0.36741023 </v>
   <v>       0.46070540       0.44024023       0.36737613 </v>
   <v>       0.47409058       0.26020164      -0.45119259 </v>
   <v>       0.49617405      -0.41975549      -0.13749407 </v>
   <v>       0.49620142      -0.05981067      -0.13757902 </v>
   <v>       0.48611188       0.25997968       0.09701571 </v>
   <v>      -0.47538895       0.26013747       0.39287053 </v>
   <v>      -0.46435580      -0.23979410       0.30885873 </v>
   <v>       0.49579931      -0.23964531       0.04632642 </v>
  </varray>
 </structure>
 <varray name="primitive_index" >
  <v type="int" >        1 </v>
  <v type="int" >       41 </v>
  <v type="int" >       19 </v>
  <v type="int" >       24 </v>
  <v type="int" >       33 </v>
  <v type="int" >        9 </v>
  <v type="int" >       11 </v>
  <v type="int" >        4 </v>
  <v type="int" >       43 </v>
  <v type="int" >       22 </v>
  <v type="int" >       17 </v>
  <v type="int" >       35 </v>
  <v type="int" >       44 </v>
  <v type="int" >       36 </v>
  <v type="int" >       12 </v>
  <v type="int" >       20 </v>
  <v type="int" >       23 </v>
  <v type="int" >       26 </v>
  <v type="int" >       29 </v>
  <v type="int" >        3 </v>
  <v type="int" >       14 </v>
  <v type="int" >       38 </v>
  <v type="int" >       46 </v>
  <v type="int" >        5 </v>
  <v type="int" >       37 </v>
  <v type="int" >        6 </v>
  <v type="int" >       45 </v>
  <v type="int" >       13 </v>
  <v type="int" >       30 </v>
  <v type="int" >       25 </v>
  <v type="int" >       32 </v>
  <v type="int" >       27 </v>
  <v type="int" >       47 </v>
  <v type="int" >       15 </v>
  <v type="int" >       39 </v>
  <v type="int" >        8 </v>
  <v type="int" >        7 </v>
  <v type="int" >       40 </v>
  <v type="int" >       16 </v>
  <v type="int" >       28 </v>
  <v type="int" >       31 </v>
  <v type="int" >       48 </v>
  <v type="int" >       21 </v>
  <v type="int" >       18 </v>
  <v type="int" >       10 </v>
  <v type="int" >       34 </v>
  <v type="int" >        2 </v>
  <v type="int" >       42 </v>
 </varray>
 <kpoints>
  <generation param="listgenerated">
   <i name="divisions" type="int">      20 </i>
   <v>       0.00000000       0.00000000       0.00000000 </v>
   <v>       0.00000000       0.50000000       0.00000000 </v>
   <v>       0.00000000       0.50000000       0.50000000 </v>
   <v>       0.00000000       0.00000000       0.50000000 </v>
   <v>       0.00000000       0.00000000       0.00000000 </v>
  </generation>
  <varray name="kpointlist" >
   <v>       0.00000000       0.00000000       0.00000000 </v>
   <v>       0.00000000       0.02631579       0.00000000 </v>
   <v>       0.00000000       0.05263158       0.00000000 </v>
   <v>       0.00000000       0.07894737       0.00000000 </v>
   <v>       0.00000000       0.10526316       0.00000000 </v>
   <v>       0.00000000       0.13157895       0.00000000 </v>
   <v>       0.00000000       0.15789474       0.00000000 </v>
   <v>       0.00000000       0.18421053       0.00000000 </v>
   <v>       0.00000000       0.21052632       0.00000000 </v>
   <v>       0.00000000       0.23684211       0.00000000 </v>
   <v>       0.00000000       0.26315789       0.00000000 </v>
   <v>       0.00000000       0.28947368       0.00000000 </v>
   <v>       0.00000000       0.31578947       0.00000000 </v>
   <v>       0.00000000       0.34210526       0.00000000 </v>
   <v>       0.00000000       0.36842105       0.00000000 </v>
   <v>       0.00000000       0.39473684       0.00000000 </v>
   <v>       0.00000000       0.42105263       0.00000000 </v>
   <v>       0.00000000       0.44736842       0.00000000 </v>
   <v>       0.00000000       0.47368421       0.00000000 </v>
   <v>       0.00000000       0.50000000       0.00000000 </v>
   <v>       0.00000000       0.50000000       0.00000000 </v>
   <v>       0.00000000       0.50000000       0.02631579 </v>
   <v>       0.00000000       0.50000000       0.05263158 </v>
   <v>       0.00000000       0.50000000       0.07894737 </v>
   <v>       0.00000000       0.50000000       0.10526316 </v>
   <v>       0.00000000       0.50000000       0.13157895 </v>
   <v>       0.00000000       0.50000000       0.15789474 </v>
   <v>       0.00000000       0.50000000       0.18421053 </v>
   <v>       0.00000000       0.50000000       0.21052632 </v>
   <v>       0.00000000       0.50000000       0.23684211 </v>
   <v>       0.00000000       0.50000000       0.26315789 </v>
   <v>       0.00000000       0.50000000       0.28947368 </v>
   <v>       0.00000000       0.50000000       0.31578947 </v>
   <v>       0.00000000       0.50000000       0.34210526 </v>
   <v>       0.00000000       0.50000000       0.36842105 </v>
   <v>       0.00000000       0.50000000       0.39473684 </v>
   <v>       0.00000000       0.50000000       0.42105263 </v>
   <v>       0.00000000       0.50000000       0.44736842 </v>
   <v>       0.00000000       0.50000000       0.47368421 </v>
   <v>       0.00000000       0.50000000       0.50000000 </v>
   <v>       0.00000000       0.50000000       0.50000000 </v>
   <v>       0.00000000       0.47368421       0.50000000 </v>
   <v>       0.00000000       0.44736842       0.50000000 </v>
   <v>       0.00000000       0.42105263       0.50000000 </v>
   <v>       0.00000000       0.39473684       0.50000000 </v>
   <v>       0.00000000       0.36842105       0.50000000 </v>
   <v>       0.00000000       0.34210526       0.50000000 </v>
   <v>       0.00000000       0.31578947       0.50000000 </v>
   <v>       0.00000000       0.28947368       0.50000000 </v>
   <v>       0.00000000       0.26315789       0.50000000 </v>
   <v>       0.00000000       0.23684211       0.50000000 </v>
   <v>       0.00000000       0.21052632       0.50000000 </v>
   <v>       0.00000000       0.18421053       0.50000000 </v>
   <v>       0.00000000       0.15789474       0.50000000 </v>
   <v>       0.00000000       0.13157895       0.50000000 </v>
   <v>       0.00000000       0.10526316       0.50000000 </v>
   <v>       0.00000000       0.07894737       0.50000000 </v>
   <v>       0.00000000       0.05263158       0.50000000 </v>
   <v>       0.00000000       0.02631579       0.50000000 </v>
   <v>       0.00000000       0.00000000       0.50000000 </v>
   <v>       0.00000000       0.00000000       0.50000000 </v>
   <v>       0.00000000       0.00000000       0.47368421 </v>
   <v>       0.00000000       0.00000000       0.44736842 </v>
   <v>       0.00000000       0.00000000       0.42105263 </v>
   <v>       0.00000000       0.00000000       0.39473684 </v>
   <v>       0.00000000       0.00000000       0.36842105 </v>
   <v>       0.00000000       0.00000000       0.34210526 </v>
   <v>       0.00000000       0.00000000       0.31578947 </v>
   <v>       0.00000000       0.00000000       0.28947368 </v>
   <v>       0.00000000       0.00000000       0.26315789 </v>
   <v>       0.00000000       0.00000000       0.23684211 </v>
   <v>       0.00000000       0.00000000       0.21052632 </v>
   <v>       0.00000000       0.00000000       0.18421053 </v>
   <v>       0.00000000       0.00000000       0.15789474 </v>
   <v>       0.00000000       0.00000000       0.13157895 </v>
   <v>       0.00000000       0.00000000       0.10526316 </v>
   <v>       0.00000000       0.00000000       0.07894737 </v>
   <v>       0.00000000       0.00000000       0.05263158 </v>
   <v>       0.00000000       0.00000000       0.02631579 </v>
   <v>       0.00000000       0.00000000       0.00000000 </v>
  </varray>
  <varray name="weights" >
   <v>       0.01250000 </v>
   <v>       0.01250000 </v>
   <v>       0.01250000 </v>
   <v>       0.01250000 </v>
   <v>       0.01250000 </v>
   <v>       0.01250000 </v>
   <v>       0.01250000 </v>
   <v>       0.01250000 </v>
   <v>       0.01250000 </v>
   <v>       0.01250000 </v>
   <v>       0.01250000 </v>
   <v>       0.01250000 </v>
   <v>       0.01250000 </v>
   <v>       0.01250000 </v>
   <v>       0.01250000 </v>
   <v>       0.01250000 </v>
   <v>       0.01250000 </v>
   <v>       0.01250000 </v>
   <v>       0.01250000 </v>
   <v>       0.01250000 </v>
   <v>       0.01250000 </v>
   <v>       0.01250000 </v>
   <v>       0.01250000 </v>
   <v>       0.01250000 </v>
   <v>       0.01250000 </v>
   <v>       0.01250000 </v>
   <v>       0.01250000 </v>
   <v>       0.01250000 </v>
   <v>       0.01250000 </v>
   <v>       0.01250000 </v>
   <v>       0.01250000 </v>
   <v>       0.01250000 </v>
   <v>       0.01250000 </v>
   <v>       0.01250000 </v>
   <v>       0.01250000 </v>
   <v>       0.01250000 </v>
   <v>       0.01250000 </v>
   <v>       0.01250000 </v>
   <v>       0.01250000 </v>
   <v>       0.01250000 </v>
   <v>       0.01250000 </v>
   <v>       0.01250000 </v>
   <v>       0.01250000 </v>
   <v>       0.01250000 </v>
   <v>       0.01250000 </v>
   <v>       0.01250000 </v>
   <v>       0.01250000 </v>
   <v>       0.01250000 </v>
   <v>       0.01250000 </v>
   <v>       0.01250000 </v>
   <v>       0.01250000 </v>
   <v>       0.01250000 </v>
   <v>       0.01250000 </v>
   <v>       0.01250000 </v>
   <v>       0.01250000 </v>
   <v>       0.01250000 </v>
   <v>       0.01250000 </v>
   <v>       0.01250000 </v>
   <v>       0.01250000 </v>
   <v>       0.01250000 </v>
   <v>       0.01250000 </v>
   <v>       0.01250000 </v>
   <v>       0.01250000 </v>
   <v>       0.01250000 </v>
   <v>       0.01250000 </v>
   <v>       0.01250000 </v>
   <v>       0.01250000 </v>
   <v>       0.01250000 </v>
   <v>       0.01250000 </v>
   <v>       0.01250000 </v>
   <v>       0.01250000 </v>
   <v>       0.01250000 </v>
   <v>       0.01250000 </v>
   <v>       0.01250000 </v>
   <v>       0.01250000 </v>
   <v>       0.01250000 </v>
   <v>       0.01250000 </v>
   <v>       0.01250000 </v>
   <v>       0.01250000 </v>
   <v>       0.01250000 </v>
  </varray>
 </kpoints>
 <parameters>
  <separator name="general" >
   <i type="string" name="SYSTEM">unknown system</i>
   <i type="logical" name="LCOMPAT"> F  </i>
  </separator>
  <separator name="electronic" >
   <i type="string" name="PREC">normal</i>
   <i name="ENMAX">    500.00000000</i>
   <i name="ENAUG">    351.16500000</i>
   <i name="EDIFF">      0.00000100</i>
   <i type="int" name="IALGO">    38</i>
   <i type="int" name="IWAVPR">    10</i>
   <i type="int" name="NBANDS">   176</i>
   <i name="NELECT">    288.00000000</i>
   <i type="int" name="TURBO">     0</i>
   <i type="int" name="IRESTART">     0</i>
   <i type="int" name="NREBOOT">     0</i>
   <i type="int" name="NMIN">     0</i>
   <i name="EREF">      0.00000000</i>
   <separator name="electronic smearing" >
    <i type="int" name="ISMEAR">     0</i>
    <i name="SIGMA">      0.01000000</i>
    <i name="KSPACING">      0.50000000</i>
    <i type="logical" name="KGAMMA"> T  </i>
   </separator>
   <separator name="electronic projectors" >
    <i type="logical" name="LREAL"> T  </i>
    <v name="ROPT">     -0.00050000     -0.00050000</v>
    <i type="int" name="LMAXPAW">  -100</i>
    <i type="int" name="LMAXMIX">     2</i>
    <i type="logical" name="NLSPLINE"> F  </i>
   </separator>
   <separator name="electronic startup" >
    <i type="int" name="ISTART">     0</i>
    <i type="int" name="ICHARG">    11</i>
    <i type="int" name="INIWAV">     1</i>
   </separator>
   <separator name="electronic spin" >
    <i type="int" name="ISPIN">     1</i>
    <i type="logical" name="LNONCOLLINEAR"> F  </i>
    <v name="MAGMOM">      1.00000000      1.00000000      1.00000000      1.00000000      1.00000000      1.00000000      1.00000000      1.00000000      1.00000000      1.00000000      1.00000000      1.00000000      1.00000000      1.00000000      1.00000000      1.00000000      1.00000000      1.00000000      1.00000000      1.00000000
      1.00000000      1.00000000      1.00000000      1.00000000      1.00000000      1.00000000      1.00000000      1.00000000      1.00000000      1.00000000      1.00000000      1.00000000      1.00000000      1.00000000      1.00000000      1.00000000      1.00000000      1.00000000      1.00000000      1.00000000
      1.00000000      1.00000000      1.00000000      1.00000000      1.00000000      1.00000000      1.00000000      1.00000000</v>
    <i name="NUPDOWN">     -1.00000000</i>
    <i type="logical" name="LSORBIT"> F  </i>
    <v name="SAXIS">      0.00000000      0.00000000      1.00000000</v>
    <i type="logical" name="LSPIRAL"> F  </i>
    <v name="QSPIRAL">      0.00000000      0.00000000      0.00000000</v>
    <i type="logical" name="LZEROZ"> F  </i>
   </separator>
   <separator name="electronic exchange-correlation" >
    <i type="logical" name="LASPH"> T  </i>
    <i type="logical" name="LMETAGGA"> F  </i>
   </separator>
   <separator name="electronic convergence" >
    <i type="int" name="NELM">   100</i>
    <i type="int" name="NELMDL">    -5</i>
    <i type="int" name="NELMIN">     2</i>
    <i name="ENINI">    500.00000000</i>
    <separator name="electronic convergence detail" >
     <i type="logical" name="LDIAG"> T  </i>
     <i type="logical" name="LSUBROT"> F  </i>
     <i name="WEIMIN">      0.00000000</i>
     <i name="EBREAK">      0.00000000</i>
     <i name="DEPER">      0.30000000</i>
     <i type="int" name="NRMM">     4</i>
     <i name="TIME">      0.40000000</i>
    </separator>
   </separator>
   <separator name="electronic mixer" >
    <i name="AMIX">      0.40000000</i>
    <i name="BMIX">      1.00000000</i>
    <i name="AMIN">      0.10000000</i>
    <i name="AMIX_MAG">      1.60000000</i>
    <i name="BMIX_MAG">      1.00000000</i>
    <separator name="electronic mixer details" >
     <i type="int" name="IMIX">     4</i>
     <i type="logical" name="MIXFIRST"> F  </i>
     <i type="int" name="MAXMIX">   -45</i>
     <i name="WC">    100.00000000</i>
     <i type="int" name="INIMIX">     1</i>
     <i type="int" name="MIXPRE">     1</i>
     <i type="int" name="MREMOVE">     5</i>
    </separator>
   </separator>
   <separator name="electronic dipolcorrection" >
    <i type="logical" name="LDIPOL"> F  </i>
    <i type="logical" name="LMONO"> F  </i>
    <i type="int" name="IDIPOL">     0</i>
    <i name="EPSILON">      1.00000000</i>
    <v name="DIPOL">   -100.00000000   -100.00000000   -100.00000000</v>
    <i name="EFIELD">      0.00000000</i>
   </separator>
  </separator>
  <separator name="grids" >
   <i type="int" name="NGX">   192</i>
   <i type="int" name="NGY">    36</i>
   <i type="int" name="NGZ">    64</i>
   <i type="int" name="NGXF">   384</i>
   <i type="int" name="NGYF">    72</i>
   <i type="int" name="NGZF">   128</i>
   <i type="logical" name="ADDGRID"> F  </i>
  </separator>
  <separator name="ionic" >
   <i type="int" name="NSW">     0</i>
   <i type="int" name="IBRION">    -1</i>
   <i type="int" name="MDALGO">     0</i>
   <i type="int" name="ISIF">     2</i>
   <i name="PSTRESS">      0.00000000</i>
   <i name="EDIFFG">     -0.01000000</i>
   <i type="int" name="NFREE">     0</i>
   <i name="POTIM">      0.30000000</i>
   <i name="SMASS">     -3.00000000</i>
   <i name="SCALEE">      1.00000000</i>
  </separator>
  <separator name="ionic md" >
   <i name="TEBEG">      0.00010000</i>
   <i name="TEEND">      0.00010000</i>
   <i type="int" name="NBLOCK">     1</i>
   <i type="int" name="KBLOCK">     1</i>
   <i type="int" name="NPACO">   256</i>
   <i name="APACO">     16.00000000</i>
  </separator>
  <separator name="symmetry" >
   <i type="int" name="ISYM">     2</i>
   <i name="SYMPREC">      0.00001000</i>
  </separator>
  <separator name="dos" >
   <i type="int" name="LORBIT">     0</i>
   <v name="RWIGS">     -1.00000000     -1.00000000</v>
   <i type="int" name="NEDOS">   301</i>
   <i name="EMIN">     10.00000000</i>
   <i name="EMAX">    -10.00000000</i>
   <i name="EFERMI">      0.00000000</i>
  </separator>
  <separator name="writing" >
   <i type="int" name="NWRITE">     2</i>
   <i type="logical" name="LWAVE"> T  </i>
   <i type="logical" name="LDOWNSAMPLE"> F  </i>
   <i type="logical" name="LCHARG"> T  </i>
   <i type="logical" name="LPARD"> F  </i>
   <i type="logical" name="LVTOT"> F  </i>
   <i type="logical" name="LVHAR"> F  </i>
   <i type="logical" name="LELF"> F  </i>
   <i type="logical" name="LOPTICS"> F  </i>
   <v name="STM">      0.00000000      0.00000000      0.00000000      0.00000000      0.00000000      0.00000000      0.00000000</v>
  </separator>
  <separator name="performance" >
   <i type="int" name="NPAR">     8</i>
   <i type="int" name="NSIM">     4</i>
   <i type="int" name="NBLK">    -1</i>
   <i type="logical" name="LPLANE"> T  </i>
   <i type="logical" name="LSCALAPACK"> T  </i>
   <i type="logical" name="LSCAAWARE"> F  </i>
   <i type="logical" name="LSCALU"> F  </i>
   <i type="logical" name="LASYNC"> F  </i>
   <i type="logical" name="LORBITALREAL"> F  </i>
  </separator>
  <separator name="miscellaneous" >
   <i type="int" name="IDIOT">     3</i>
   <i type="int" name="ISPECIAL">     0</i>
   <i type="logical" name="LMUSIC"> F  </i>
   <v name="POMASS">    137.32700000     28.08500000</v>
   <v name="DARWINR">      0.00000000      0.00000000</v>
   <v name="DARWINV">      1.00000000      1.00000000</v>
   <i type="logical" name="LCORR"> T  </i>
  </separator>
  <i type="logical" name="GGA_COMPAT"> T  </i>
  <i type="logical" name="LBERRY"> F  </i>
  <i type="int" name="ICORELEVEL">     0</i>
  <i type="logical" name="LDAU"> F  </i>
  <i type="int" name="I_CONSTRAINED_M">     0</i>
  <separator name="electronic exchange-correlation" >
   <i type="string" name="GGA">MK</i>
   <i type="int" name="VOSKOWN">     0</i>
   <i type="logical" name="LHFCALC"> F  </i>
   <i type="string" name="PRECFOCK"></i>
   <i type="logical" name="LSYMGRAD"> F  </i>
   <i type="logical" name="LHFONE"> F  </i>
   <i type="logical" name="LRHFCALC"> F  </i>
   <i type="logical" name="LTHOMAS"> F  </i>
   <i type="logical" name="LMODELHF"> F  </i>
   <i name="ENCUT4O">     -1.00000000</i>
   <i type="int" name="EXXOEP">     0</i>
   <i type="int" name="FOURORBIT">     0</i>
   <i name="AEXX">      0.00000000</i>
   <i name="HFALPHA">      0.00000000</i>
   <i name="MCALPHA">      0.00000000</i>
   <i name="ALDAX">      1.00000000</i>
   <i name="AGGAX">      1.00000000</i>
   <i name="ALDAC">      1.00000000</i>
   <i name="AGGAC">      0.00000000</i>
   <i type="int" name="NKREDX">     1</i>
   <i type="int" name="NKREDY">     1</i>
   <i type="int" name="NKREDZ">     1</i>
   <i type="logical" name="SHIFTRED"> F  </i>
   <i type="logical" name="ODDONLY"> F  </i>
   <i type="logical" name="EVENONLY"> F  </i>
   <i type="int" name="LMAXFOCK">     0</i>
   <i type="int" name="NMAXFOCKAE">     0</i>
   <i type="logical" name="LFOCKAEDFT"> F  </i>
   <i name="HFSCREEN">      0.00000000</i>
   <i name="HFSCREENC">      0.00000000</i>
   <i type="int" name="NBANDSGWLOW">     0</i>
  </separator>
  <separator name="vdW DFT" >
   <i type="logical" name="LUSE_VDW"> T  </i>
   <i name="Zab_VDW">     -1.88670000</i>
   <i name="PARAM1">      0.12340000</i>
   <i name="PARAM2">      0.71135700</i>
   <i name="PARAM3">      0.00000000</i>
  </separator>
  <separator name="model GW" >
   <i type="int" name="MODEL_GW">     0</i>
   <i name="MODEL_EPS0">     31.22783698</i>
   <i name="MODEL_ALPHA">      1.00000000</i>
  </separator>
  <separator name="linear response parameters" >
   <i type="logical" name="LEPSILON"> F  </i>
   <i type="logical" name="LRPA"> F  </i>
   <i type="logical" name="LNABLA"> F  </i>
   <i type="logical" name="LVEL"> F  </i>
   <i type="int" name="KINTER">     0</i>
   <i name="CSHIFT">      0.10000000</i>
   <i name="OMEGAMAX">     -1.00000000</i>
   <i name="DEG_THRESHOLD">      0.00200000</i>
   <i name="RTIME">     -0.10000000</i>
   <i name="WPLASMAI">      0.00000000</i>
   <v name="DFIELD">      0.00000000      0.00000000      0.00000000</v>
   <v name="WPLASMA">      0.00000000      0.00000000      0.00000000      0.00000000      0.00000000      0.00000000      0.00000000      0.00000000      0.00000000</v>
  </separator>
  <separator name="orbital magnetization" >
   <i type="logical" name="NUCIND"> F  </i>
   <v name="MAGPOS">      0.00000000      0.00000000      0.00000000</v>
   <i type="logical" name="LNICSALL"> T  </i>
   <i type="logical" name="ORBITALMAG"> F  </i>
   <i type="logical" name="LMAGBLOCH"> F  </i>
   <i type="logical" name="LCHIMAG"> F  </i>
   <i type="logical" name="LGAUGE"> T  </i>
   <i type="int" name="MAGATOM">     0</i>
   <v name="MAGDIPOL">      0.00000000      0.00000000      0.00000000</v>
   <v name="AVECCONST">      0.00000000      0.00000000      0.00000000</v>
  </separator>
  <separator name="response functions" >
   <i type="logical" name="LADDER"> F  </i>
   <i type="logical" name="LRPAFORCE"> F  </i>
   <i type="logical" name="LFXC"> F  </i>
   <i type="logical" name="LHARTREE"> T  </i>
   <i type="int" name="IBSE">     0</i>
   <v type="int" name="KPOINT">    -1     0     0     0</v>
   <i type="logical" name="LTCTE"> F  </i>
   <i type="logical" name="LTETE"> F  </i>
   <i type="logical" name="LTRIPLET"> F  </i>
   <i type="logical" name="LFXCEPS"> F  </i>
   <i type="logical" name="LFXHEG"> F  </i>
   <i type="int" name="NATURALO">     2</i>
   <i type="logical" name="L2ORDER"> F  </i>
   <i type="logical" name="LMP2LT"> F  </i>
   <i type="logical" name="LUSEW"> F  </i>
   <i name="ENCUTGW">     -2.00000000</i>
   <i name="ENCUTGWSOFT">     -2.00000000</i>
   <i name="ENCUTLF">     -1.00000000</i>
   <i type="int" name="LMAXMP2">    -1</i>
   <i name="SCISSOR">      0.00000000</i>
   <i type="int" name="NOMEGA">     0</i>
   <i type="int" name="NOMEGAR">     0</i>
   <i type="int" name="NBANDSGW">    -1</i>
   <i type="int" name="NBANDSO">    -1</i>
   <i type="int" name="NBANDSV">    -1</i>
   <i type="int" name="NELM">   100</i>
   <i type="int" name="NELMHF">     1</i>
   <i type="int" name="DIM">     3</i>
   <i type="int" name="ANTIRES">     0</i>
   <i name="OMEGAMAX">    -30.00000000</i>
   <i name="OMEGAMIN">    -30.00000000</i>
   <i name="OMEGATL">   -200.00000000</i>
   <i type="int" name="OMEGAGRID">   140</i>
   <i name="CSHIFT">     -0.10000000</i>
   <i type="logical" name="SELFENERGY"> F  </i>
   <i type="logical" name="LSPECTRAL"> F  </i>
   <i type="logical" name="LSPECTRALGW"> F  </i>
   <i type="logical" name="LSINGLES"> F  </i>
   <i type="logical" name="LFERMIGW"> F  </i>
   <i type="logical" name="ODDONLYGW"> F  </i>
   <i type="logical" name="EVENONLYGW"> F  </i>
   <i type="int" name="NKREDLFX">     1</i>
   <i type="int" name="NKREDLFY">     1</i>
   <i type="int" name="NKREDLFZ">     1</i>
   <i type="int" name="MAXMEM">  2800</i>
   <i type="int" name="TELESCOPE">     0</i>
   <i type="int" name="TAUPAR">     1</i>
   <i type="int" name="OMEGAPAR">    -1</i>
   <i name="LAMBDA">      1.00000000</i>
  </separator>
  <separator name="External order field" >
   <i name="OFIELD_KAPPA">      0.00000000</i>
   <v name="OFIELD_K">      0.00000000      0.00000000      0.00000000</v>
   <i name="OFIELD_Q6_NEAR">      0.00000000</i>
   <i name="OFIELD_Q6_FAR">      0.00000000</i>
   <i name="OFIELD_A">      0.00000000</i>
  </separator>
 </parameters>
 <atominfo>
  <atoms>      48 </atoms>
  <types>       2 </types>
  <array name="atoms" >
   <dimension dim="1">ion</dimension>
   <field type="string">element</field>
   <field type="int">atomtype</field>
   <set>
    <rc><c>Ba</c><c>   1</c></rc>
    <rc><c>Ba</c><c>   1</c></rc>
    <rc><c>Ba</c><c>   1</c></rc>
    <rc><c>Ba</c><c>   1</c></rc>
    <rc><c>Ba</c><c>   1</c></rc>
    <rc><c>Ba</c><c>   1</c></rc>
    <rc><c>Ba</c><c>   1</c></rc>
    <rc><c>Ba</c><c>   1</c></rc>
    <rc><c>Ba</c><c>   1</c></rc>
    <rc><c>Ba</c><c>   1</c></rc>
    <rc><c>Ba</c><c>   1</c></rc>
    <rc><c>Ba</c><c>   1</c></rc>
    <rc><c>Ba</c><c>   1</c></rc>
    <rc><c>Ba</c><c>   1</c></rc>
    <rc><c>Ba</c><c>   1</c></rc>
    <rc><c>Ba</c><c>   1</c></rc>
    <rc><c>Si</c><c>   2</c></rc>
    <rc><c>Si</c><c>   2</c></rc>
    <rc><c>Si</c><c>   2</c></rc>
    <rc><c>Si</c><c>   2</c></rc>
    <rc><c>Si</c><c>   2</c></rc>
    <rc><c>Si</c><c>   2</c></rc>
    <rc><c>Si</c><c>   2</c></rc>
    <rc><c>Si</c><c>   2</c></rc>
    <rc><c>Si</c><c>   2</c></rc>
    <rc><c>Si</c><c>   2</c></rc>
    <rc><c>Si</c><c>   2</c></rc>
    <rc><c>Si</c><c>   2</c></rc>
    <rc><c>Si</c><c>   2</c></rc>
    <rc><c>Si</c><c>   2</c></rc>
    <rc><c>Si</c><c>   2</c></rc>
    <rc><c>Si</c><c>   2</c></rc>
    <rc><c>Si</c><c>   2</c></rc>
    <rc><c>Si</c><c>   2</c></rc>
    <rc><c>Si</c><c>   2</c></rc>
    <rc><c>Si</c><c>   2</c></rc>
    <rc><c>Si</c><c>   2</c></rc>
    <rc><c>Si</c><c>   2</c></rc>
    <rc><c>Si</c><c>   2</c></rc>
    <rc><c>Si</c><c>   2</c></rc>
    <rc><c>Si</c><c>   2</c></rc>
    <rc><c>Si</c><c>   2</c></rc>
    <rc><c>Si</c><c>   2</c></rc>
    <rc><c>Si</c><c>   2</c></rc>
    <rc><c>Si</c><c>   2</c></rc>
    <rc><c>Si</c><c>   2</c></rc>
    <rc><c>Si</c><c>   2</c></rc>
    <rc><c>Si</c><c>   2</c></rc>
   </set>
  </array>
  <array name="atomtypes" >
   <dimension dim="1">type</dimension>
   <field type="int">atomspertype</field>
   <field type="string">element</field>
   <field>mass</field>
   <field>valence</field>
   <field type="string">pseudopotential</field>
   <set>
    <rc><c>  16</c><c>Ba</c><c>    137.32700000</c><c>     10.00000000</c><c> PAW_PBE Ba_sv 06Sep2000                </c></rc>
    <rc><c>  32</c><c>Si</c><c>     28.08500000</c><c>      4.00000000</c><c> PAW_PBE Si 05Jan2001                   </c></rc>
   </set>
  </array>
 </atominfo>
 <structure name="initialpos" >
  <crystal>
   <varray name="basis" >
    <v>      33.01893616       0.00000000       0.00000000 </v>
    <v>       0.00000000       6.64406295       0.00000000 </v>
    <v>       0.00000000       0.00000000      11.38767529 </v>
   </varray>
   <i name="volume">   2498.22695818 </i>
   <varray name="rec_basis" >
    <v>       0.03028565       0.00000000       0.00000000 </v>
    <v>       0.00000000       0.15051031       0.00000000 </v>
    <v>       0.00000000       0.00000000       0.08781424 </v>
   </varray>
  </crystal>
  <varray name="positions" >
   <v>       0.01007105       0.25993040       0.70997461 </v>
   <v>       0.53564420       0.76020590       0.30885873 </v>
   <v>       0.12928181       0.76001097       0.20169464 </v>
   <v>       0.14161993       0.26036901       0.81874999 </v>
   <v>       0.27753846       0.26010559       0.69929791 </v>
   <v>       0.26817676       0.76003071       0.31953543 </v>
   <v>       0.40409529       0.75976729       0.20008333 </v>
   <v>       0.41643341       0.26012532       0.81713868 </v>
   <v>       0.05960335       0.76015662       0.92181761 </v>
   <v>       0.48611188       0.25997968       0.09701571 </v>
   <v>       0.09500901       0.25994267       0.40532172 </v>
   <v>       0.18042312       0.75996673       0.60558949 </v>
   <v>       0.31776042       0.75987520       0.91606354 </v>
   <v>       0.22795480       0.26026110       0.10276978 </v>
   <v>       0.36529211       0.26016957       0.41324389 </v>
   <v>       0.45070621       0.76019363       0.61351166 </v>
   <v>       0.04951382       0.07994694       0.15641234 </v>
   <v>       0.49620142       0.94018933       0.86242098 </v>
   <v>       0.08502096       0.94009968       0.65142311 </v>
   <v>       0.18858399       0.07815478       0.36273910 </v>
   <v>       0.49617405       0.58024451       0.86250593 </v>
   <v>       0.04954119       0.43989177       0.15632739 </v>
   <v>       0.18861317       0.44160215       0.36262253 </v>
   <v>       0.08500983       0.57989606       0.65145722 </v>
   <v>       0.32350723       0.07819178       0.15540229 </v>
   <v>       0.22220801       0.94194449       0.86343103 </v>
   <v>       0.35713122       0.94198149       0.65609424 </v>
   <v>       0.46069428       0.08003659       0.36741023 </v>
   <v>       0.22221366       0.57920777       0.86344769 </v>
   <v>       0.32350158       0.44092851       0.15538563 </v>
   <v>       0.46070540       0.44024023       0.36737613 </v>
   <v>       0.35710204       0.57853413       0.65621081 </v>
   <v>       0.02110414       0.75999883       0.62596281 </v>
   <v>       0.52461105       0.26013747       0.39287053 </v>
   <v>       0.11146952       0.25966902       0.09254737 </v>
   <v>       0.16171625       0.76045886       0.91790335 </v>
   <v>       0.29646459       0.76014333       0.60161936 </v>
   <v>       0.24925064       0.25999297       0.41721398 </v>
   <v>       0.38399897       0.25967744       0.10092997 </v>
   <v>       0.43424571       0.76046728       0.92628595 </v>
   <v>       0.04991590       0.25978161       0.97250694 </v>
   <v>       0.49579931       0.76035469       0.04632642 </v>
   <v>       0.07162466       0.75993466       0.47002585 </v>
   <v>       0.18977523       0.25999500       0.54581237 </v>
   <v>       0.32579447       0.25959797       0.97173486 </v>
   <v>       0.21992077       0.76053833       0.04709850 </v>
   <v>       0.35593998       0.76014130       0.47302089 </v>
   <v>       0.47409058       0.26020164       0.54880741 </v>
  </varray>
 </structure>
 <calculation>
  <scstep>
   <time name="dav">   40.41   40.99</time>
   <time name="total">   47.28   48.54</time>
   <energy>
    <i name="alphaZ">    515.29618416 </i>
    <i name="ewald">  44929.74495993 </i>
    <i name="hartreedc"> -58274.32671947 </i>
    <i name="XCdc">     96.95548780 </i>
    <i name="pawpsdc">   7735.38217259 </i>
    <i name="pawaedc">  -7146.50121012 </i>
    <i name="eentropy">     -0.00090990 </i>
    <i name="bandstr">   -284.71394128 </i>
    <i name="atom">  14538.30290828 </i>
    <i name="e_fr_energy">   2110.13893200 </i>
    <i name="e_wo_entrp">   2110.13984189 </i>
    <i name="e_0_energy">   2110.13938694 </i>
   </energy>
  </scstep>
  <scstep>
   <time name="dav">   52.20   52.92</time>
   <time name="total">   52.21   52.92</time>
   <energy>
    <i name="e_fr_energy">    100.54380226 </i>
    <i name="e_wo_entrp">    100.54380226 </i>
    <i name="e_0_energy">    100.54380226 </i>
   </energy>
  </scstep>
  <scstep>
   <time name="dav">   46.92   47.58</time>
   <time name="total">   46.92   47.58</time>
   <energy>
    <i name="e_fr_energy">   -176.31699442 </i>
    <i name="e_wo_entrp">   -176.31699442 </i>
    <i name="e_0_energy">   -176.31699442 </i>
   </energy>
  </scstep>
  <scstep>
   <time name="dav">   51.82   52.53</time>
   <time name="total">   51.82   52.53</time>
   <energy>
    <i name="e_fr_energy">   -188.03697421 </i>
    <i name="e_wo_entrp">   -188.03697421 </i>
    <i name="e_0_energy">   -188.03697421 </i>
   </energy>
  </scstep>
  <scstep>
   <time name="dav">   56.46   57.23</time>
   <time name="total">   56.46   57.23</time>
   <energy>
    <i name="e_fr_energy">   -188.55444099 </i>
    <i name="e_wo_entrp">   -188.55444099 </i>
    <i name="e_0_energy">   -188.55444099 </i>
   </energy>
  </scstep>
  <scstep>
   <time name="dav">   52.05   52.75</time>
   <time name="total">   52.05   52.75</time>
   <energy>
    <i name="e_fr_energy">   -188.56645279 </i>
    <i name="e_wo_entrp">   -188.56645279 </i>
    <i name="e_0_energy">   -188.56645279 </i>
   </energy>
  </scstep>
  <scstep>
   <time name="dav">   56.82   57.59</time>
   <time name="total">   56.82   57.59</time>
   <energy>
    <i name="e_fr_energy">   -188.56698357 </i>
    <i name="e_wo_entrp">   -188.56698357 </i>
    <i name="e_0_energy">   -188.56698357 </i>
   </energy>
  </scstep>
  <scstep>
   <time name="dav">   49.99   51.20</time>
   <time name="total">   49.99   51.20</time>
   <energy>
    <i name="e_fr_energy">   -188.56700453 </i>
    <i name="e_wo_entrp">   -188.56700453 </i>
    <i name="e_0_energy">   -188.56700453 </i>
   </energy>
  </scstep>
  <scstep>
   <time name="dav">   44.23   44.85</time>
   <time name="total">   44.23   44.85</time>
   <energy>
    <i name="e_fr_energy">   -188.56700560 </i>
    <i name="e_wo_entrp">   -188.56700560 </i>
    <i name="e_0_energy">   -188.56700560 </i>
   </energy>
  </scstep>
  <scstep>
   <time name="dav">   32.37   32.82</time>
   <time name="total">   32.37   32.82</time>
   <energy>
    <i name="alphaZ">    515.29618416 </i>
    <i name="ewald">  44929.74495993 </i>
    <i name="hartreedc"> -58274.32671947 </i>
    <i name="XCdc">     96.95548780 </i>
    <i name="pawpsdc">   7735.38217259 </i>
    <i name="pawaedc">  -7146.50121012 </i>
    <i name="eentropy">     -0.00000000 </i>
    <i name="bandstr">  -2583.42078882 </i>
    <i name="atom">  14538.30290828 </i>
    <i name="e_fr_energy">   -188.56700565 </i>
    <i name="e_wo_entrp">   -188.56700565 </i>
    <i name="e_0_energy">   -188.56700565 </i>
   </energy>
  </scstep>
  <structure>
   <crystal>
    <varray name="basis" >
     <v>      33.01893616       0.00000000       0.00000000 </v>
     <v>       0.00000000       6.64406295       0.00000000 </v>
     <v>       0.00000000       0.00000000      11.38767529 </v>
    </varray>
    <i name="volume">   2498.22695818 </i>
    <varray name="rec_basis" >
     <v>       0.03028565       0.00000000       0.00000000 </v>
     <v>       0.00000000       0.15051031       0.00000000 </v>
     <v>       0.00000000       0.00000000       0.08781424 </v>
    </varray>
   </crystal>
   <varray name="positions" >
    <v>       0.01007105       0.25993040       0.70997461 </v>
    <v>       0.53564420       0.76020590       0.30885873 </v>
    <v>       0.12928181       0.76001097       0.20169464 </v>
    <v>       0.14161993       0.26036901       0.81874999 </v>
    <v>       0.27753846       0.26010559       0.69929791 </v>
    <v>       0.26817676       0.76003071       0.31953543 </v>
    <v>       0.40409529       0.75976729       0.20008333 </v>
    <v>       0.41643341       0.26012532       0.81713868 </v>
    <v>       0.05960335       0.76015662       0.92181761 </v>
    <v>       0.48611188       0.25997968       0.09701571 </v>
    <v>       0.09500901       0.25994267       0.40532172 </v>
    <v>       0.18042312       0.75996673       0.60558949 </v>
    <v>       0.31776042       0.75987520       0.91606354 </v>
    <v>       0.22795480       0.26026110       0.10276978 </v>
    <v>       0.36529211       0.26016957       0.41324389 </v>
    <v>       0.45070621       0.76019363       0.61351166 </v>
    <v>       0.04951382       0.07994694       0.15641234 </v>
    <v>       0.49620142       0.94018933       0.86242098 </v>
    <v>       0.08502096       0.94009968       0.65142311 </v>
    <v>       0.18858399       0.07815478       0.36273910 </v>
    <v>       0.49617405       0.58024451       0.86250593 </v>
    <v>       0.04954119       0.43989177       0.15632739 </v>
    <v>       0.18861317       0.44160215       0.36262253 </v>
    <v>       0.08500983       0.57989606       0.65145722 </v>
    <v>       0.32350723       0.07819178       0.15540229 </v>
    <v>       0.22220801       0.94194449       0.86343103 </v>
    <v>       0.35713122       0.94198149       0.65609424 </v>
    <v>       0.46069428       0.08003659       0.36741023 </v>
    <v>       0.22221366       0.57920777       0.86344769 </v>
    <v>       0.32350158       0.44092851       0.15538563 </v>
    <v>       0.46070540       0.44024023       0.36737613 </v>
    <v>       0.35710204       0.57853413       0.65621081 </v>
    <v>       0.02110414       0.75999883       0.62596281 </v>
    <v>       0.52461105       0.26013747       0.39287053 </v>
    <v>       0.11146952       0.25966902       0.09254737 </v>
    <v>       0.16171625       0.76045886       0.91790335 </v>
    <v>       0.29646459       0.76014333       0.60161936 </v>
    <v>       0.24925064       0.25999297       0.41721398 </v>
    <v>       0.38399897       0.25967744       0.10092997 </v>
    <v>       0.43424571       0.76046728       0.92628595 </v>
    <v>       0.04991590       0.25978161       0.97250694 </v>
    <v>       0.49579931       0.76035469       0.04632642 </v>
    <v>       0.07162466       0.75993466       0.47002585 </v>
    <v>       0.18977523       0.25999500       0.54581237 </v>
    <v>       0.32579447       0.25959797       0.97173486 </v>
    <v>       0.21992077       0.76053833       0.04709850 </v>
    <v>       0.35593998       0.76014130       0.47302089 </v>
    <v>       0.47409058       0.26020164       0.54880741 </v>
   </varray>
  </structure>
  <varray name="forces" >
   <v>       0.02495208       0.00017735      -0.04065307 </v>
   <v>      -0.02495208      -0.00017735       0.04065307 </v>
   <v>      -0.05679727      -0.00153368      -0.02245650 </v>
   <v>       0.04169743       0.00056945       0.01364403 </v>
   <v>       0.03941876       0.00159966      -0.02061474 </v>
   <v>      -0.03941876      -0.00159966       0.02061474 </v>
   <v>      -0.04169743      -0.00056945      -0.01364403 </v>
   <v>       0.05679727       0.00153368       0.02245650 </v>
   <v>      -0.00008719      -0.00311243      -0.00527897 </v>
   <v>       0.00008719       0.00311243       0.00527897 </v>
   <v>      -0.02179831       0.00106356       0.03576534 </v>
   <v>       0.01479985      -0.00047399      -0.03016275 </v>
   <v>       0.01544139      -0.00106066       0.02805544 </v>
   <v>      -0.01544139       0.00106066      -0.02805544 </v>
   <v>      -0.01479985       0.00047399       0.03016275 </v>
   <v>       0.02179831      -0.00106356      -0.03576534 </v>
   <v>       0.01953261       0.00948505       0.00402112 </v>
   <v>      -0.01953261      -0.00948505      -0.00402112 </v>
   <v>      -0.02094142      -0.03604836      -0.00366524 </v>
   <v>       0.03030711       0.02798284       0.01272102 </v>
   <v>      -0.02038027       0.01353588      -0.00159438 </v>
   <v>       0.02038027      -0.01353588       0.00159438 </v>
   <v>       0.02632977      -0.02566751       0.01280737 </v>
   <v>      -0.01789842       0.03465700      -0.00419703 </v>
   <v>       0.02339534       0.02838148      -0.01182441 </v>
   <v>      -0.02339534      -0.02838148       0.01182441 </v>
   <v>      -0.03030711      -0.02798284      -0.01272102 </v>
   <v>       0.02094142       0.03604836       0.00366524 </v>
   <v>      -0.02032972       0.02564859       0.00967085 </v>
   <v>       0.02032972      -0.02564859      -0.00967085 </v>
   <v>       0.01789842      -0.03465700       0.00419703 </v>
   <v>      -0.02632977       0.02566751      -0.01280737 </v>
   <v>       0.02457649      -0.00073881       0.02391074 </v>
   <v>      -0.02457649       0.00073881      -0.02391074 </v>
   <v>       0.01786772       0.00027277      -0.00036605 </v>
   <v>      -0.00347409      -0.00308910      -0.01283352 </v>
   <v>       0.00014789       0.00042934       0.01663044 </v>
   <v>      -0.00014789      -0.00042934      -0.01663044 </v>
   <v>       0.00347409       0.00308910       0.01283352 </v>
   <v>      -0.01786772      -0.00027277       0.00036605 </v>
   <v>       0.00626643       0.00144199       0.01281280 </v>
   <v>      -0.00626643      -0.00144199      -0.01281280 </v>
   <v>       0.00611442      -0.00095679      -0.00845423 </v>
   <v>      -0.01338423       0.00200701       0.00625602 </v>
   <v>      -0.01982621       0.00271811       0.00511865 </v>
   <v>       0.01982621      -0.00271811      -0.00511865 </v>
   <v>       0.01338423      -0.00200701      -0.00625602 </v>
   <v>      -0.00611442       0.00095679       0.00845423 </v>
  </varray>
  <varray name="stress" >
   <v>      -0.30726486      -0.04126902       0.10789926 </v>
   <v>      -0.04126902      -0.65262418       0.00646779 </v>
   <v>       0.10789939       0.00646779      -0.60814374 </v>
  </varray>
  <energy>
   <i name="e_fr_energy">   -188.56700565 </i>
   <i name="e_wo_entrp">   -188.56700565 </i>
   <i name="e_0_energy">     -0.00000000 </i>
  </energy>
  <time name="totalsc">  581.06  648.69</time>
  <eigenvalues>
   <array>
    <dimension dim="1">band</dimension>
    <dimension dim="2">kpoint</dimension>
    <dimension dim="3">spin</dimension>
    <field>eigene</field>
    <field>occ</field>
    <set>
     <set comment="spin 1">
      <set comment="kpoint 1">
       <r>  -28.1658    1.0000 </r>
       <r>  -28.1653    1.0000 </r>
       <r>  -27.1816    1.0000 </r>
       <r>  -27.1813    1.0000 </r>
       <r>  -27.1728    1.0000 </r>
       <r>  -27.1722    1.0000 </r>
       <r>  -27.1456    1.0000 </r>
       <r>  -27.1452    1.0000 </r>
       <r>  -27.0803    1.0000 </r>
       <r>  -27.0746    1.0000 </r>
       <r>  -27.0270    1.0000 </r>
       <r>  -27.0267    1.0000 </r>
       <r>  -27.0160    1.0000 </r>
       <r>  -27.0157    1.0000 </r>
       <r>  -26.9716    1.0000 </r>
       <r>  -26.9714    1.0000 </r>
       <r>  -13.5411    1.0000 </r>
       <r>  -13.5406    1.0000 </r>
       <r>  -13.4679    1.0000 </r>
       <r>  -13.4674    1.0000 </r>
       <r>  -13.3785    1.0000 </r>
       <r>  -13.3780    1.0000 </r>
       <r>  -12.7895    1.0000 </r>
       <r>  -12.7857    1.0000 </r>
       <r>  -12.7150    1.0000 </r>
       <r>  -12.6746    1.0000 </r>
       <r>  -12.6626    1.0000 </r>
       <r>  -12.6507    1.0000 </r>
       <r>  -12.6272    1.0000 </r>
       <r>  -12.6173    1.0000 </r>
       <r>  -12.5866    1.0000 </r>
       <r>  -12.5804    1.0000 </r>
       <r>  -12.5662    1.0000 </r>
       <r>  -12.5568    1.0000 </r>
       <r>  -12.5556    1.0000 </r>
       <r>  -12.5368    1.0000 </r>
       <r>  -12.5337    1.0000 </r>
       <r>  -12.5301    1.0000 </r>
       <r>  -12.5179    1.0000 </r>
       <r>  -12.5073    1.0000 </r>
       <r>  -12.5036    1.0000 </r>
       <r>  -12.5006    1.0000 </r>
       <r>  -12.4985    1.0000 </r>
       <r>  -12.4907    1.0000 </r>
       <r>  -12.4867    1.0000 </r>
       <r>  -12.4413    1.0000 </r>
       <r>  -12.4377    1.0000 </r>
       <r>  -12.4081    1.0000 </r>
       <r>  -12.3522    1.0000 </r>
       <r>  -12.3461    1.0000 </r>
       <r>  -12.3243    1.0000 </r>
       <r>  -12.3231    1.0000 </r>
       <r>  -12.3222    1.0000 </r>
       <r>  -12.3129    1.0000 </r>
       <r>  -12.3060    1.0000 </r>
       <r>  -12.2910    1.0000 </r>
       <r>  -12.2866    1.0000 </r>
       <r>  -12.2834    1.0000 </r>
       <r>  -12.2718    1.0000 </r>
       <r>  -12.2689    1.0000 </r>
       <r>  -12.2671    1.0000 </r>
       <r>  -12.2665    1.0000 </r>
       <r>  -12.2541    1.0000 </r>
       <r>  -12.2515    1.0000 </r>
       <r>  -10.3747    1.0000 </r>
       <r>  -10.2279    1.0000 </r>
       <r>  -10.1377    1.0000 </r>
       <r>  -10.1184    1.0000 </r>
       <r>  -10.1037    1.0000 </r>
       <r>  -10.1012    1.0000 </r>
       <r>   -9.7283    1.0000 </r>
       <r>   -9.7281    1.0000 </r>
       <r>   -5.7866    1.0000 </r>
       <r>   -5.7164    1.0000 </r>
       <r>   -5.6208    1.0000 </r>
       <r>   -5.4922    1.0000 </r>
       <r>   -5.4864    1.0000 </r>
       <r>   -5.4309    1.0000 </r>
       <r>   -5.4019    1.0000 </r>
       <r>   -5.3833    1.0000 </r>
       <r>   -5.3256    1.0000 </r>
       <r>   -5.3253    1.0000 </r>
       <r>   -5.3232    1.0000 </r>
       <r>   -5.2741    1.0000 </r>
       <r>   -5.2730    1.0000 </r>
       <r>   -5.2561    1.0000 </r>
       <r>   -5.2139    1.0000 </r>
       <r>   -5.2062    1.0000 </r>
       <r>   -5.1986    1.0000 </r>
       <r>   -5.1568    1.0000 </r>
       <r>   -5.0344    1.0000 </r>
       <r>   -5.0168    1.0000 </r>
       <r>   -4.9665    1.0000 </r>
       <r>   -4.9080    1.0000 </r>
       <r>   -4.6888    1.0000 </r>
       <r>   -4.6885    1.0000 </r>
       <r>   -3.0054    1.0000 </r>
       <r>   -2.5919    1.0000 </r>
       <r>   -2.2753    1.0000 </r>
       <r>   -2.0905    1.0000 </r>
       <r>   -2.0511    1.0000 </r>
       <r>   -2.0375    1.0000 </r>
       <r>   -1.9101    1.0000 </r>
       <r>   -1.7266    1.0000 </r>
       <r>   -1.6818    1.0000 </r>
       <r>   -1.5510    1.0000 </r>
       <r>   -1.4660    1.0000 </r>
       <r>   -1.3901    1.0000 </r>
       <r>   -1.2995    1.0000 </r>
       <r>   -1.2786    1.0000 </r>
       <r>   -1.2578    1.0000 </r>
       <r>   -1.1502    1.0000 </r>
       <r>   -1.1215    1.0000 </r>
       <r>   -1.1107    1.0000 </r>
       <r>   -1.0835    1.0000 </r>
       <r>   -1.0760    1.0000 </r>
       <r>   -1.0050    1.0000 </r>
       <r>   -0.9865    1.0000 </r>
       <r>   -0.9591    1.0000 </r>
       <r>   -0.9405    1.0000 </r>
       <r>   -0.9148    1.0000 </r>
       <r>   -0.7611    1.0000 </r>
       <r>   -0.7578    1.0000 </r>
       <r>   -0.7054    1.0000 </r>
       <r>   -0.6655    1.0000 </r>
       <r>   -0.6616    1.0000 </r>
       <r>   -0.6455    1.0000 </r>
       <r>   -0.5870    1.0000 </r>
       <r>   -0.5856    1.0000 </r>
       <r>   -0.5763    1.0000 </r>
       <r>   -0.5114    1.0000 </r>
       <r>   -0.3482    1.0000 </r>
       <r>   -0.3074    1.0000 </r>
       <r>   -0.2716    1.0000 </r>
       <r>   -0.2557    1.0000 </r>
       <r>   -0.2146    1.0000 </r>
       <r>   -0.1960    1.0000 </r>
       <r>   -0.1260    1.0000 </r>
       <r>   -0.0881    1.0000 </r>
       <r>   -0.0191    1.0000 </r>
       <r>    0.0768    1.0000 </r>
       <r>    0.1036    1.0000 </r>
       <r>    0.1382    1.0000 </r>
       <r>    0.1890    1.0000 </r>
       <r>    1.3932    0.0000 </r>
       <r>    1.4970    0.0000 </r>
       <r>    1.5751    0.0000 </r>
       <r>    1.5897    0.0000 </r>
       <r>    1.6543    0.0000 </r>
       <r>    1.6611    0.0000 </r>
       <r>    1.6620    0.0000 </r>
       <r>    1.7000    0.0000 </r>
       <r>    1.8226    0.0000 </r>
       <r>    1.8564    0.0000 </r>
       <r>    1.9174    0.0000 </r>
       <r>    1.9201    0.0000 </r>
       <r>    2.0303    0.0000 </r>
       <r>    2.0685    0.0000 </r>
       <r>    2.1241    0.0000 </r>
       <r>    2.2527    0.0000 </r>
       <r>    2.2571    0.0000 </r>
       <r>    2.2770    0.0000 </r>
       <r>    2.2829    0.0000 </r>
       <r>    2.3858    0.0000 </r>
       <r>    2.5795    0.0000 </r>
       <r>    2.6244    0.0000 </r>
       <r>    2.6270    0.0000 </r>
       <r>    2.6972    0.0000 </r>
       <r>    2.7807    0.0000 </r>
       <r>    2.8281    0.0000 </r>
       <r>    2.8483    0.0000 </r>
       <r>    2.9976    0.0000 </r>
       <r>    3.0359    0.0000 </r>
       <r>    3.0745    0.0000 </r>
       <r>    3.0998    0.0000 </r>
       <r>    3.1203    0.0000 </r>
      </set>
      <set comment="kpoint 2">
       <r>  -28.1658    1.0000 </r>
       <r>  -28.1653    1.0000 </r>
       <r>  -27.1816    1.0000 </r>
       <r>  -27.1813    1.0000 </r>
       <r>  -27.1728    1.0000 </r>
       <r>  -27.1722    1.0000 </r>
       <r>  -27.1456    1.0000 </r>
       <r>  -27.1452    1.0000 </r>
       <r>  -27.0803    1.0000 </r>
       <r>  -27.0746    1.0000 </r>
       <r>  -27.0270    1.0000 </r>
       <r>  -27.0267    1.0000 </r>
       <r>  -27.0160    1.0000 </r>
       <r>  -27.0157    1.0000 </r>
       <r>  -26.9716    1.0000 </r>
       <r>  -26.9714    1.0000 </r>
       <r>  -13.5411    1.0000 </r>
       <r>  -13.5406    1.0000 </r>
       <r>  -13.4680    1.0000 </r>
       <r>  -13.4675    1.0000 </r>
       <r>  -13.3788    1.0000 </r>
       <r>  -13.3783    1.0000 </r>
       <r>  -12.7894    1.0000 </r>
       <r>  -12.7857    1.0000 </r>
       <r>  -12.7154    1.0000 </r>
       <r>  -12.6768    1.0000 </r>
       <r>  -12.6637    1.0000 </r>
       <r>  -12.6473    1.0000 </r>
       <r>  -12.6282    1.0000 </r>
       <r>  -12.6161    1.0000 </r>
       <r>  -12.5868    1.0000 </r>
       <r>  -12.5816    1.0000 </r>
       <r>  -12.5667    1.0000 </r>
       <r>  -12.5581    1.0000 </r>
       <r>  -12.5556    1.0000 </r>
       <r>  -12.5389    1.0000 </r>
       <r>  -12.5340    1.0000 </r>
       <r>  -12.5294    1.0000 </r>
       <r>  -12.5185    1.0000 </r>
       <r>  -12.5086    1.0000 </r>
       <r>  -12.5069    1.0000 </r>
       <r>  -12.4976    1.0000 </r>
       <r>  -12.4971    1.0000 </r>
       <r>  -12.4922    1.0000 </r>
       <r>  -12.4837    1.0000 </r>
       <r>  -12.4393    1.0000 </r>
       <r>  -12.4381    1.0000 </r>
       <r>  -12.4079    1.0000 </r>
       <r>  -12.3522    1.0000 </r>
       <r>  -12.3462    1.0000 </r>
       <r>  -12.3242    1.0000 </r>
       <r>  -12.3239    1.0000 </r>
       <r>  -12.3211    1.0000 </r>
       <r>  -12.3139    1.0000 </r>
       <r>  -12.3050    1.0000 </r>
       <r>  -12.2908    1.0000 </r>
       <r>  -12.2864    1.0000 </r>
       <r>  -12.2835    1.0000 </r>
       <r>  -12.2718    1.0000 </r>
       <r>  -12.2688    1.0000 </r>
       <r>  -12.2681    1.0000 </r>
       <r>  -12.2653    1.0000 </r>
       <r>  -12.2540    1.0000 </r>
       <r>  -12.2516    1.0000 </r>
       <r>  -10.3732    1.0000 </r>
       <r>  -10.2271    1.0000 </r>
       <r>  -10.1374    1.0000 </r>
       <r>  -10.1180    1.0000 </r>
       <r>  -10.1034    1.0000 </r>
       <r>  -10.1012    1.0000 </r>
       <r>   -9.7279    1.0000 </r>
       <r>   -9.7277    1.0000 </r>
       <r>   -5.7847    1.0000 </r>
       <r>   -5.7153    1.0000 </r>
       <r>   -5.6197    1.0000 </r>
       <r>   -5.4909    1.0000 </r>
       <r>   -5.4900    1.0000 </r>
       <r>   -5.4271    1.0000 </r>
       <r>   -5.4019    1.0000 </r>
       <r>   -5.3823    1.0000 </r>
       <r>   -5.3273    1.0000 </r>
       <r>   -5.3253    1.0000 </r>
       <r>   -5.3242    1.0000 </r>
       <r>   -5.2783    1.0000 </r>
       <r>   -5.2722    1.0000 </r>
       <r>   -5.2515    1.0000 </r>
       <r>   -5.2200    1.0000 </r>
       <r>   -5.2020    1.0000 </r>
       <r>   -5.1982    1.0000 </r>
       <r>   -5.1599    1.0000 </r>
       <r>   -5.0333    1.0000 </r>
       <r>   -5.0161    1.0000 </r>
       <r>   -4.9658    1.0000 </r>
       <r>   -4.9081    1.0000 </r>
       <r>   -4.6908    1.0000 </r>
       <r>   -4.6903    1.0000 </r>
       <r>   -2.9987    1.0000 </r>
       <r>   -2.5869    1.0000 </r>
       <r>   -2.2714    1.0000 </r>
       <r>   -2.0867    1.0000 </r>
       <r>   -2.0486    1.0000 </r>
       <r>   -2.0351    1.0000 </r>
       <r>   -1.9100    1.0000 </r>
       <r>   -1.7245    1.0000 </r>
       <r>   -1.6812    1.0000 </r>
       <r>   -1.5503    1.0000 </r>
       <r>   -1.4667    1.0000 </r>
       <r>   -1.3944    1.0000 </r>
       <r>   -1.3074    1.0000 </r>
       <r>   -1.2783    1.0000 </r>
       <r>   -1.2494    1.0000 </r>
       <r>   -1.1470    1.0000 </r>
       <r>   -1.1278    1.0000 </r>
       <r>   -1.1076    1.0000 </r>
       <r>   -1.0841    1.0000 </r>
       <r>   -1.0802    1.0000 </r>
       <r>   -1.0060    1.0000 </r>
       <r>   -0.9849    1.0000 </r>
       <r>   -0.9595    1.0000 </r>
       <r>   -0.9392    1.0000 </r>
       <r>   -0.9170    1.0000 </r>
       <r>   -0.7676    1.0000 </r>
       <r>   -0.7591    1.0000 </r>
       <r>   -0.7056    1.0000 </r>
       <r>   -0.6735    1.0000 </r>
       <r>   -0.6553    1.0000 </r>
       <r>   -0.6439    1.0000 </r>
       <r>   -0.5888    1.0000 </r>
       <r>   -0.5782    1.0000 </r>
       <r>   -0.5761    1.0000 </r>
       <r>   -0.5095    1.0000 </r>
       <r>   -0.3480    1.0000 </r>
       <r>   -0.3119    1.0000 </r>
       <r>   -0.2677    1.0000 </r>
       <r>   -0.2581    1.0000 </r>
       <r>   -0.2163    1.0000 </r>
       <r>   -0.1980    1.0000 </r>
       <r>   -0.1247    1.0000 </r>
       <r>   -0.0966    1.0000 </r>
       <r>   -0.0217    1.0000 </r>
       <r>    0.0775    1.0000 </r>
       <r>    0.1028    1.0000 </r>
       <r>    0.1437    1.0000 </r>
       <r>    0.1902    1.0000 </r>
       <r>    1.3933    0.0000 </r>
       <r>    1.4878    0.0000 </r>
       <r>    1.5679    0.0000 </r>
       <r>    1.5928    0.0000 </r>
       <r>    1.6456    0.0000 </r>
       <r>    1.6524    0.0000 </r>
       <r>    1.6732    0.0000 </r>
       <r>    1.7049    0.0000 </r>
       <r>    1.8244    0.0000 </r>
       <r>    1.8522    0.0000 </r>
       <r>    1.9199    0.0000 </r>
       <r>    1.9239    0.0000 </r>
       <r>    2.0343    0.0000 </r>
       <r>    2.0634    0.0000 </r>
       <r>    2.1289    0.0000 </r>
       <r>    2.2398    0.0000 </r>
       <r>    2.2529    0.0000 </r>
       <r>    2.2711    0.0000 </r>
       <r>    2.2856    0.0000 </r>
       <r>    2.3972    0.0000 </r>
       <r>    2.5687    0.0000 </r>
       <r>    2.6264    0.0000 </r>
       <r>    2.6391    0.0000 </r>
       <r>    2.6876    0.0000 </r>
       <r>    2.7853    0.0000 </r>
       <r>    2.8340    0.0000 </r>
       <r>    2.8513    0.0000 </r>
       <r>    2.9848    0.0000 </r>
       <r>    3.0409    0.0000 </r>
       <r>    3.0689    0.0000 </r>
       <r>    3.1188    0.0000 </r>
       <r>    3.1365    0.0000 </r>
      </set>
      <set comment="kpoint 3">
       <r>  -28.1658    1.0000 </r>
       <r>  -28.1653    1.0000 </r>
       <r>  -27.1816    1.0000 </r>
       <r>  -27.1813    1.0000 </r>
       <r>  -27.1727    1.0000 </r>
       <r>  -27.1722    1.0000 </r>
       <r>  -27.1455    1.0000 </r>
       <r>  -27.1452    1.0000 </r>
       <r>  -27.0802    1.0000 </r>
       <r>  -27.0745    1.0000 </r>
       <r>  -27.0271    1.0000 </r>
       <r>  -27.0268    1.0000 </r>
       <r>  -27.0160    1.0000 </r>
       <r>  -27.0157    1.0000 </r>
       <r>  -26.9716    1.0000 </r>
       <r>  -26.9714    1.0000 </r>
       <r>  -13.5409    1.0000 </r>
       <r>  -13.5405    1.0000 </r>
       <r>  -13.4681    1.0000 </r>
       <r>  -13.4676    1.0000 </r>
       <r>  -13.3794    1.0000 </r>
       <r>  -13.3790    1.0000 </r>
       <r>  -12.7891    1.0000 </r>
       <r>  -12.7858    1.0000 </r>
       <r>  -12.7164    1.0000 </r>
       <r>  -12.6822    1.0000 </r>
       <r>  -12.6653    1.0000 </r>
       <r>  -12.6406    1.0000 </r>
       <r>  -12.6304    1.0000 </r>
       <r>  -12.6136    1.0000 </r>
       <r>  -12.5873    1.0000 </r>
       <r>  -12.5852    1.0000 </r>
       <r>  -12.5686    1.0000 </r>
       <r>  -12.5613    1.0000 </r>
       <r>  -12.5558    1.0000 </r>
       <r>  -12.5432    1.0000 </r>
       <r>  -12.5352    1.0000 </r>
       <r>  -12.5288    1.0000 </r>
       <r>  -12.5217    1.0000 </r>
       <r>  -12.5112    1.0000 </r>
       <r>  -12.5092    1.0000 </r>
       <r>  -12.5011    1.0000 </r>
       <r>  -12.4906    1.0000 </r>
       <r>  -12.4890    1.0000 </r>
       <r>  -12.4797    1.0000 </r>
       <r>  -12.4395    1.0000 </r>
       <r>  -12.4341    1.0000 </r>
       <r>  -12.4071    1.0000 </r>
       <r>  -12.3522    1.0000 </r>
       <r>  -12.3465    1.0000 </r>
       <r>  -12.3250    1.0000 </r>
       <r>  -12.3239    1.0000 </r>
       <r>  -12.3195    1.0000 </r>
       <r>  -12.3160    1.0000 </r>
       <r>  -12.3028    1.0000 </r>
       <r>  -12.2905    1.0000 </r>
       <r>  -12.2855    1.0000 </r>
       <r>  -12.2837    1.0000 </r>
       <r>  -12.2719    1.0000 </r>
       <r>  -12.2690    1.0000 </r>
       <r>  -12.2688    1.0000 </r>
       <r>  -12.2638    1.0000 </r>
       <r>  -12.2536    1.0000 </r>
       <r>  -12.2521    1.0000 </r>
       <r>  -10.3690    1.0000 </r>
       <r>  -10.2248    1.0000 </r>
       <r>  -10.1366    1.0000 </r>
       <r>  -10.1168    1.0000 </r>
       <r>  -10.1027    1.0000 </r>
       <r>  -10.1010    1.0000 </r>
       <r>   -9.7266    1.0000 </r>
       <r>   -9.7264    1.0000 </r>
       <r>   -5.7789    1.0000 </r>
       <r>   -5.7120    1.0000 </r>
       <r>   -5.6164    1.0000 </r>
       <r>   -5.4991    1.0000 </r>
       <r>   -5.4870    1.0000 </r>
       <r>   -5.4177    1.0000 </r>
       <r>   -5.4023    1.0000 </r>
       <r>   -5.3796    1.0000 </r>
       <r>   -5.3322    1.0000 </r>
       <r>   -5.3284    1.0000 </r>
       <r>   -5.3227    1.0000 </r>
       <r>   -5.2878    1.0000 </r>
       <r>   -5.2685    1.0000 </r>
       <r>   -5.2438    1.0000 </r>
       <r>   -5.2303    1.0000 </r>
       <r>   -5.1972    1.0000 </r>
       <r>   -5.1967    1.0000 </r>
       <r>   -5.1689    1.0000 </r>
       <r>   -5.0300    1.0000 </r>
       <r>   -5.0140    1.0000 </r>
       <r>   -4.9638    1.0000 </r>
       <r>   -4.9084    1.0000 </r>
       <r>   -4.6971    1.0000 </r>
       <r>   -4.6954    1.0000 </r>
       <r>   -2.9790    1.0000 </r>
       <r>   -2.5720    1.0000 </r>
       <r>   -2.2600    1.0000 </r>
       <r>   -2.0754    1.0000 </r>
       <r>   -2.0411    1.0000 </r>
       <r>   -2.0280    1.0000 </r>
       <r>   -1.9096    1.0000 </r>
       <r>   -1.7184    1.0000 </r>
       <r>   -1.6798    1.0000 </r>
       <r>   -1.5484    1.0000 </r>
       <r>   -1.4688    1.0000 </r>
       <r>   -1.4072    1.0000 </r>
       <r>   -1.3194    1.0000 </r>
       <r>   -1.2774    1.0000 </r>
       <r>   -1.2348    1.0000 </r>
       <r>   -1.1409    1.0000 </r>
       <r>   -1.1390    1.0000 </r>
       <r>   -1.1042    1.0000 </r>
       <r>   -1.0922    1.0000 </r>
       <r>   -1.0839    1.0000 </r>
       <r>   -1.0090    1.0000 </r>
       <r>   -0.9809    1.0000 </r>
       <r>   -0.9608    1.0000 </r>
       <r>   -0.9360    1.0000 </r>
       <r>   -0.9231    1.0000 </r>
       <r>   -0.7842    1.0000 </r>
       <r>   -0.7631    1.0000 </r>
       <r>   -0.7072    1.0000 </r>
       <r>   -0.6845    1.0000 </r>
       <r>   -0.6490    1.0000 </r>
       <r>   -0.6409    1.0000 </r>
       <r>   -0.5845    1.0000 </r>
       <r>   -0.5751    1.0000 </r>
       <r>   -0.5662    1.0000 </r>
       <r>   -0.5048    1.0000 </r>
       <r>   -0.3471    1.0000 </r>
       <r>   -0.3205    1.0000 </r>
       <r>   -0.2661    1.0000 </r>
       <r>   -0.2653    1.0000 </r>
       <r>   -0.2167    1.0000 </r>
       <r>   -0.2032    1.0000 </r>
       <r>   -0.1218    1.0000 </r>
       <r>   -0.1193    1.0000 </r>
       <r>   -0.0292    1.0000 </r>
       <r>    0.0794    1.0000 </r>
       <r>    0.1008    1.0000 </r>
       <r>    0.1575    1.0000 </r>
       <r>    0.1932    1.0000 </r>
       <r>    1.3933    0.0000 </r>
       <r>    1.4623    0.0000 </r>
       <r>    1.5490    0.0000 </r>
       <r>    1.6015    0.0000 </r>
       <r>    1.6285    0.0000 </r>
       <r>    1.6373    0.0000 </r>
       <r>    1.6911    0.0000 </r>
       <r>    1.7156    0.0000 </r>
       <r>    1.8272    0.0000 </r>
       <r>    1.8422    0.0000 </r>
       <r>    1.9196    0.0000 </r>
       <r>    1.9403    0.0000 </r>
       <r>    2.0433    0.0000 </r>
       <r>    2.0520    0.0000 </r>
       <r>    2.1412    0.0000 </r>
       <r>    2.1995    0.0000 </r>
       <r>    2.2474    0.0000 </r>
       <r>    2.2557    0.0000 </r>
       <r>    2.2987    0.0000 </r>
       <r>    2.4206    0.0000 </r>
       <r>    2.5510    0.0000 </r>
       <r>    2.6318    0.0000 </r>
       <r>    2.6608    0.0000 </r>
       <r>    2.6664    0.0000 </r>
       <r>    2.7906    0.0000 </r>
       <r>    2.8505    0.0000 </r>
       <r>    2.8536    0.0000 </r>
       <r>    2.9472    0.0000 </r>
       <r>    3.0451    0.0000 </r>
       <r>    3.0684    0.0000 </r>
       <r>    3.0828    0.0000 </r>
       <r>    3.1262    0.0000 </r>
      </set>
      <set comment="kpoint 4">
       <r>  -28.1658    1.0000 </r>
       <r>  -28.1653    1.0000 </r>
       <r>  -27.1816    1.0000 </r>
       <r>  -27.1812    1.0000 </r>
       <r>  -27.1727    1.0000 </r>
       <r>  -27.1722    1.0000 </r>
       <r>  -27.1455    1.0000 </r>
       <r>  -27.1451    1.0000 </r>
       <r>  -27.0801    1.0000 </r>
       <r>  -27.0745    1.0000 </r>
       <r>  -27.0271    1.0000 </r>
       <r>  -27.0269    1.0000 </r>
       <r>  -27.0161    1.0000 </r>
       <r>  -27.0158    1.0000 </r>
       <r>  -26.9716    1.0000 </r>
       <r>  -26.9715    1.0000 </r>
       <r>  -13.5407    1.0000 </r>
       <r>  -13.5402    1.0000 </r>
       <r>  -13.4683    1.0000 </r>
       <r>  -13.4678    1.0000 </r>
       <r>  -13.3805    1.0000 </r>
       <r>  -13.3801    1.0000 </r>
       <r>  -12.7886    1.0000 </r>
       <r>  -12.7860    1.0000 </r>
       <r>  -12.7180    1.0000 </r>
       <r>  -12.6887    1.0000 </r>
       <r>  -12.6667    1.0000 </r>
       <r>  -12.6330    1.0000 </r>
       <r>  -12.6324    1.0000 </r>
       <r>  -12.6113    1.0000 </r>
       <r>  -12.5908    1.0000 </r>
       <r>  -12.5883    1.0000 </r>
       <r>  -12.5723    1.0000 </r>
       <r>  -12.5655    1.0000 </r>
       <r>  -12.5565    1.0000 </r>
       <r>  -12.5469    1.0000 </r>
       <r>  -12.5375    1.0000 </r>
       <r>  -12.5294    1.0000 </r>
       <r>  -12.5289    1.0000 </r>
       <r>  -12.5124    1.0000 </r>
       <r>  -12.5081    1.0000 </r>
       <r>  -12.5062    1.0000 </r>
       <r>  -12.4840    1.0000 </r>
       <r>  -12.4835    1.0000 </r>
       <r>  -12.4760    1.0000 </r>
       <r>  -12.4416    1.0000 </r>
       <r>  -12.4269    1.0000 </r>
       <r>  -12.4057    1.0000 </r>
       <r>  -12.3521    1.0000 </r>
       <r>  -12.3471    1.0000 </r>
       <r>  -12.3258    1.0000 </r>
       <r>  -12.3240    1.0000 </r>
       <r>  -12.3178    1.0000 </r>
       <r>  -12.3176    1.0000 </r>
       <r>  -12.3004    1.0000 </r>
       <r>  -12.2899    1.0000 </r>
       <r>  -12.2842    1.0000 </r>
       <r>  -12.2839    1.0000 </r>
       <r>  -12.2720    1.0000 </r>
       <r>  -12.2694    1.0000 </r>
       <r>  -12.2688    1.0000 </r>
       <r>  -12.2622    1.0000 </r>
       <r>  -12.2531    1.0000 </r>
       <r>  -12.2526    1.0000 </r>
       <r>  -10.3621    1.0000 </r>
       <r>  -10.2211    1.0000 </r>
       <r>  -10.1352    1.0000 </r>
       <r>  -10.1149    1.0000 </r>
       <r>  -10.1015    1.0000 </r>
       <r>  -10.1007    1.0000 </r>
       <r>   -9.7245    1.0000 </r>
       <r>   -9.7243    1.0000 </r>
       <r>   -5.7695    1.0000 </r>
       <r>   -5.7068    1.0000 </r>
       <r>   -5.6111    1.0000 </r>
       <r>   -5.5105    1.0000 </r>
       <r>   -5.4808    1.0000 </r>
       <r>   -5.4058    1.0000 </r>
       <r>   -5.4040    1.0000 </r>
       <r>   -5.3751    1.0000 </r>
       <r>   -5.3391    1.0000 </r>
       <r>   -5.3321    1.0000 </r>
       <r>   -5.3202    1.0000 </r>
       <r>   -5.2979    1.0000 </r>
       <r>   -5.2668    1.0000 </r>
       <r>   -5.2401    1.0000 </r>
       <r>   -5.2364    1.0000 </r>
       <r>   -5.1956    1.0000 </r>
       <r>   -5.1920    1.0000 </r>
       <r>   -5.1830    1.0000 </r>
       <r>   -5.0250    1.0000 </r>
       <r>   -5.0106    1.0000 </r>
       <r>   -4.9607    1.0000 </r>
       <r>   -4.9089    1.0000 </r>
       <r>   -4.7071    1.0000 </r>
       <r>   -4.7035    1.0000 </r>
       <r>   -2.9470    1.0000 </r>
       <r>   -2.5476    1.0000 </r>
       <r>   -2.2412    1.0000 </r>
       <r>   -2.0574    1.0000 </r>
       <r>   -2.0286    1.0000 </r>
       <r>   -2.0160    1.0000 </r>
       <r>   -1.9088    1.0000 </r>
       <r>   -1.7086    1.0000 </r>
       <r>   -1.6792    1.0000 </r>
       <r>   -1.5451    1.0000 </r>
       <r>   -1.4718    1.0000 </r>
       <r>   -1.4259    1.0000 </r>
       <r>   -1.3273    1.0000 </r>
       <r>   -1.2757    1.0000 </r>
       <r>   -1.2230    1.0000 </r>
       <r>   -1.1578    1.0000 </r>
       <r>   -1.1310    1.0000 </r>
       <r>   -1.1057    1.0000 </r>
       <r>   -1.1027    1.0000 </r>
       <r>   -1.0822    1.0000 </r>
       <r>   -1.0143    1.0000 </r>
       <r>   -0.9761    1.0000 </r>
       <r>   -0.9632    1.0000 </r>
       <r>   -0.9322    1.0000 </r>
       <r>   -0.9317    1.0000 </r>
       <r>   -0.8069    1.0000 </r>
       <r>   -0.7702    1.0000 </r>
       <r>   -0.7112    1.0000 </r>
       <r>   -0.6962    1.0000 </r>
       <r>   -0.6439    1.0000 </r>
       <r>   -0.6383    1.0000 </r>
       <r>   -0.5755    1.0000 </r>
       <r>   -0.5721    1.0000 </r>
       <r>   -0.5513    1.0000 </r>
       <r>   -0.4994    1.0000 </r>
       <r>   -0.3455    1.0000 </r>
       <r>   -0.3301    1.0000 </r>
       <r>   -0.2773    1.0000 </r>
       <r>   -0.2770    1.0000 </r>
       <r>   -0.2099    1.0000 </r>
       <r>   -0.2094    1.0000 </r>
       <r>   -0.1498    1.0000 </r>
       <r>   -0.1192    1.0000 </r>
       <r>   -0.0398    1.0000 </r>
       <r>    0.0817    1.0000 </r>
       <r>    0.0982    1.0000 </r>
       <r>    0.1749    1.0000 </r>
       <r>    0.1970    1.0000 </r>
       <r>    1.3925    0.0000 </r>
       <r>    1.4261    0.0000 </r>
       <r>    1.5245    0.0000 </r>
       <r>    1.5943    0.0000 </r>
       <r>    1.6158    0.0000 </r>
       <r>    1.6322    0.0000 </r>
       <r>    1.7108    0.0000 </r>
       <r>    1.7283    0.0000 </r>
       <r>    1.8261    0.0000 </r>
       <r>    1.8311    0.0000 </r>
       <r>    1.9175    0.0000 </r>
       <r>    1.9623    0.0000 </r>
       <r>    2.0399    0.0000 </r>
       <r>    2.0498    0.0000 </r>
       <r>    2.1527    0.0000 </r>
       <r>    2.1579    0.0000 </r>
       <r>    2.2229    0.0000 </r>
       <r>    2.2518    0.0000 </r>
       <r>    2.3185    0.0000 </r>
       <r>    2.4444    0.0000 </r>
       <r>    2.5368    0.0000 </r>
       <r>    2.6361    0.0000 </r>
       <r>    2.6416    0.0000 </r>
       <r>    2.6824    0.0000 </r>
       <r>    2.7926    0.0000 </r>
       <r>    2.8527    0.0000 </r>
       <r>    2.8619    0.0000 </r>
       <r>    2.9116    0.0000 </r>
       <r>    3.0040    0.0000 </r>
       <r>    3.0500    0.0000 </r>
       <r>    3.1008    0.0000 </r>
       <r>    3.1369    0.0000 </r>
      </set>
      <set comment="kpoint 5">
       <r>  -28.1658    1.0000 </r>
       <r>  -28.1653    1.0000 </r>
       <r>  -27.1815    1.0000 </r>
       <r>  -27.1812    1.0000 </r>
       <r>  -27.1726    1.0000 </r>
       <r>  -27.1722    1.0000 </r>
       <r>  -27.1454    1.0000 </r>
       <r>  -27.1450    1.0000 </r>
       <r>  -27.0799    1.0000 </r>
       <r>  -27.0745    1.0000 </r>
       <r>  -27.0272    1.0000 </r>
       <r>  -27.0270    1.0000 </r>
       <r>  -27.0162    1.0000 </r>
       <r>  -27.0159    1.0000 </r>
       <r>  -26.9717    1.0000 </r>
       <r>  -26.9715    1.0000 </r>
       <r>  -13.5404    1.0000 </r>
       <r>  -13.5399    1.0000 </r>
       <r>  -13.4686    1.0000 </r>
       <r>  -13.4681    1.0000 </r>
       <r>  -13.3821    1.0000 </r>
       <r>  -13.3816    1.0000 </r>
       <r>  -12.7880    1.0000 </r>
       <r>  -12.7862    1.0000 </r>
       <r>  -12.7202    1.0000 </r>
       <r>  -12.6951    1.0000 </r>
       <r>  -12.6682    1.0000 </r>
       <r>  -12.6343    1.0000 </r>
       <r>  -12.6252    1.0000 </r>
       <r>  -12.6101    1.0000 </r>
       <r>  -12.5979    1.0000 </r>
       <r>  -12.5897    1.0000 </r>
       <r>  -12.5782    1.0000 </r>
       <r>  -12.5696    1.0000 </r>
       <r>  -12.5578    1.0000 </r>
       <r>  -12.5486    1.0000 </r>
       <r>  -12.5416    1.0000 </r>
       <r>  -12.5381    1.0000 </r>
       <r>  -12.5293    1.0000 </r>
       <r>  -12.5122    1.0000 </r>
       <r>  -12.5119    1.0000 </r>
       <r>  -12.5060    1.0000 </r>
       <r>  -12.4788    1.0000 </r>
       <r>  -12.4766    1.0000 </r>
       <r>  -12.4720    1.0000 </r>
       <r>  -12.4444    1.0000 </r>
       <r>  -12.4191    1.0000 </r>
       <r>  -12.4039    1.0000 </r>
       <r>  -12.3520    1.0000 </r>
       <r>  -12.3482    1.0000 </r>
       <r>  -12.3262    1.0000 </r>
       <r>  -12.3253    1.0000 </r>
       <r>  -12.3182    1.0000 </r>
       <r>  -12.3154    1.0000 </r>
       <r>  -12.2980    1.0000 </r>
       <r>  -12.2894    1.0000 </r>
       <r>  -12.2841    1.0000 </r>
       <r>  -12.2823    1.0000 </r>
       <r>  -12.2719    1.0000 </r>
       <r>  -12.2694    1.0000 </r>
       <r>  -12.2688    1.0000 </r>
       <r>  -12.2607    1.0000 </r>
       <r>  -12.2533    1.0000 </r>
       <r>  -12.2525    1.0000 </r>
       <r>  -10.3527    1.0000 </r>
       <r>  -10.2160    1.0000 </r>
       <r>  -10.1334    1.0000 </r>
       <r>  -10.1123    1.0000 </r>
       <r>  -10.1003    1.0000 </r>
       <r>  -10.0999    1.0000 </r>
       <r>   -9.7215    1.0000 </r>
       <r>   -9.7214    1.0000 </r>
       <r>   -5.7565    1.0000 </r>
       <r>   -5.6997    1.0000 </r>
       <r>   -5.6042    1.0000 </r>
       <r>   -5.5228    1.0000 </r>
       <r>   -5.4727    1.0000 </r>
       <r>   -5.4082    1.0000 </r>
       <r>   -5.3930    1.0000 </r>
       <r>   -5.3695    1.0000 </r>
       <r>   -5.3462    1.0000 </r>
       <r>   -5.3348    1.0000 </r>
       <r>   -5.3187    1.0000 </r>
       <r>   -5.3055    1.0000 </r>
       <r>   -5.2734    1.0000 </r>
       <r>   -5.2431    1.0000 </r>
       <r>   -5.2310    1.0000 </r>
       <r>   -5.2022    1.0000 </r>
       <r>   -5.1919    1.0000 </r>
       <r>   -5.1874    1.0000 </r>
       <r>   -5.0185    1.0000 </r>
       <r>   -5.0059    1.0000 </r>
       <r>   -4.9569    1.0000 </r>
       <r>   -4.9096    1.0000 </r>
       <r>   -4.7203    1.0000 </r>
       <r>   -4.7144    1.0000 </r>
       <r>   -2.9039    1.0000 </r>
       <r>   -2.5144    1.0000 </r>
       <r>   -2.2156    1.0000 </r>
       <r>   -2.0339    1.0000 </r>
       <r>   -2.0115    1.0000 </r>
       <r>   -1.9990    1.0000 </r>
       <r>   -1.9072    1.0000 </r>
       <r>   -1.6960    1.0000 </r>
       <r>   -1.6815    1.0000 </r>
       <r>   -1.5407    1.0000 </r>
       <r>   -1.4749    1.0000 </r>
       <r>   -1.4447    1.0000 </r>
       <r>   -1.3310    1.0000 </r>
       <r>   -1.2732    1.0000 </r>
       <r>   -1.2194    1.0000 </r>
       <r>   -1.1782    1.0000 </r>
       <r>   -1.1273    1.0000 </r>
       <r>   -1.1156    1.0000 </r>
       <r>   -1.1033    1.0000 </r>
       <r>   -1.0749    1.0000 </r>
       <r>   -1.0221    1.0000 </r>
       <r>   -0.9720    1.0000 </r>
       <r>   -0.9671    1.0000 </r>
       <r>   -0.9415    1.0000 </r>
       <r>   -0.9284    1.0000 </r>
       <r>   -0.8340    1.0000 </r>
       <r>   -0.7804    1.0000 </r>
       <r>   -0.7172    1.0000 </r>
       <r>   -0.7076    1.0000 </r>
       <r>   -0.6397    1.0000 </r>
       <r>   -0.6357    1.0000 </r>
       <r>   -0.5667    1.0000 </r>
       <r>   -0.5657    1.0000 </r>
       <r>   -0.5346    1.0000 </r>
       <r>   -0.4951    1.0000 </r>
       <r>   -0.3447    1.0000 </r>
       <r>   -0.3431    1.0000 </r>
       <r>   -0.2938    1.0000 </r>
       <r>   -0.2924    1.0000 </r>
       <r>   -0.2152    1.0000 </r>
       <r>   -0.2079    1.0000 </r>
       <r>   -0.1760    1.0000 </r>
       <r>   -0.1188    1.0000 </r>
       <r>   -0.0507    1.0000 </r>
       <r>    0.0837    1.0000 </r>
       <r>    0.0958    1.0000 </r>
       <r>    0.1921    1.0000 </r>
       <r>    0.2002    1.0000 </r>
       <r>    1.3847    0.0000 </r>
       <r>    1.3894    0.0000 </r>
       <r>    1.5005    0.0000 </r>
       <r>    1.5577    0.0000 </r>
       <r>    1.6296    0.0000 </r>
       <r>    1.6300    0.0000 </r>
       <r>    1.7295    0.0000 </r>
       <r>    1.7390    0.0000 </r>
       <r>    1.8197    0.0000 </r>
       <r>    1.8245    0.0000 </r>
       <r>    1.9093    0.0000 </r>
       <r>    1.9846    0.0000 </r>
       <r>    2.0261    0.0000 </r>
       <r>    2.0458    0.0000 </r>
       <r>    2.1180    0.0000 </r>
       <r>    2.1755    0.0000 </r>
       <r>    2.2007    0.0000 </r>
       <r>    2.2495    0.0000 </r>
       <r>    2.3411    0.0000 </r>
       <r>    2.4643    0.0000 </r>
       <r>    2.5285    0.0000 </r>
       <r>    2.6046    0.0000 </r>
       <r>    2.6415    0.0000 </r>
       <r>    2.6998    0.0000 </r>
       <r>    2.7863    0.0000 </r>
       <r>    2.8315    0.0000 </r>
       <r>    2.8516    0.0000 </r>
       <r>    2.9051    0.0000 </r>
       <r>    2.9430    0.0000 </r>
       <r>    3.0501    0.0000 </r>
       <r>    3.0587    0.0000 </r>
       <r>    3.1365    0.0000 </r>
      </set>
      <set comment="kpoint 6">
       <r>  -28.1658    1.0000 </r>
       <r>  -28.1653    1.0000 </r>
       <r>  -27.1815    1.0000 </r>
       <r>  -27.1812    1.0000 </r>
       <r>  -27.1726    1.0000 </r>
       <r>  -27.1721    1.0000 </r>
       <r>  -27.1453    1.0000 </r>
       <r>  -27.1450    1.0000 </r>
       <r>  -27.0797    1.0000 </r>
       <r>  -27.0744    1.0000 </r>
       <r>  -27.0274    1.0000 </r>
       <r>  -27.0271    1.0000 </r>
       <r>  -27.0163    1.0000 </r>
       <r>  -27.0160    1.0000 </r>
       <r>  -26.9717    1.0000 </r>
       <r>  -26.9716    1.0000 </r>
       <r>  -13.5400    1.0000 </r>
       <r>  -13.5395    1.0000 </r>
       <r>  -13.4690    1.0000 </r>
       <r>  -13.4685    1.0000 </r>
       <r>  -13.3839    1.0000 </r>
       <r>  -13.3834    1.0000 </r>
       <r>  -12.7872    1.0000 </r>
       <r>  -12.7865    1.0000 </r>
       <r>  -12.7227    1.0000 </r>
       <r>  -12.7011    1.0000 </r>
       <r>  -12.6699    1.0000 </r>
       <r>  -12.6359    1.0000 </r>
       <r>  -12.6182    1.0000 </r>
       <r>  -12.6104    1.0000 </r>
       <r>  -12.6060    1.0000 </r>
       <r>  -12.5923    1.0000 </r>
       <r>  -12.5855    1.0000 </r>
       <r>  -12.5724    1.0000 </r>
       <r>  -12.5599    1.0000 </r>
       <r>  -12.5503    1.0000 </r>
       <r>  -12.5486    1.0000 </r>
       <r>  -12.5427    1.0000 </r>
       <r>  -12.5301    1.0000 </r>
       <r>  -12.5189    1.0000 </r>
       <r>  -12.5111    1.0000 </r>
       <r>  -12.5037    1.0000 </r>
       <r>  -12.4743    1.0000 </r>
       <r>  -12.4703    1.0000 </r>
       <r>  -12.4673    1.0000 </r>
       <r>  -12.4476    1.0000 </r>
       <r>  -12.4114    1.0000 </r>
       <r>  -12.4018    1.0000 </r>
       <r>  -12.3518    1.0000 </r>
       <r>  -12.3497    1.0000 </r>
       <r>  -12.3279    1.0000 </r>
       <r>  -12.3262    1.0000 </r>
       <r>  -12.3171    1.0000 </r>
       <r>  -12.3130    1.0000 </r>
       <r>  -12.2957    1.0000 </r>
       <r>  -12.2889    1.0000 </r>
       <r>  -12.2840    1.0000 </r>
       <r>  -12.2803    1.0000 </r>
       <r>  -12.2716    1.0000 </r>
       <r>  -12.2688    1.0000 </r>
       <r>  -12.2687    1.0000 </r>
       <r>  -12.2594    1.0000 </r>
       <r>  -12.2538    1.0000 </r>
       <r>  -12.2518    1.0000 </r>
       <r>  -10.3410    1.0000 </r>
       <r>  -10.2098    1.0000 </r>
       <r>  -10.1312    1.0000 </r>
       <r>  -10.1094    1.0000 </r>
       <r>  -10.0996    1.0000 </r>
       <r>  -10.0978    1.0000 </r>
       <r>   -9.7179    1.0000 </r>
       <r>   -9.7178    1.0000 </r>
       <r>   -5.7403    1.0000 </r>
       <r>   -5.6913    1.0000 </r>
       <r>   -5.5962    1.0000 </r>
       <r>   -5.5353    1.0000 </r>
       <r>   -5.4632    1.0000 </r>
       <r>   -5.4160    1.0000 </r>
       <r>   -5.3810    1.0000 </r>
       <r>   -5.3653    1.0000 </r>
       <r>   -5.3507    1.0000 </r>
       <r>   -5.3355    1.0000 </r>
       <r>   -5.3224    1.0000 </r>
       <r>   -5.3056    1.0000 </r>
       <r>   -5.2858    1.0000 </r>
       <r>   -5.2407    1.0000 </r>
[...]
       <r>    1.6543    0.0000 </r>
       <r>    1.6611    0.0000 </r>
       <r>    1.6620    0.0000 </r>
       <r>    1.7000    0.0000 </r>
       <r>    1.8226    0.0000 </r>
       <r>    1.8564    0.0000 </r>
       <r>    1.9174    0.0000 </r>
       <r>    1.9201    0.0000 </r>
       <r>    2.0303    0.0000 </r>
       <r>    2.0685    0.0000 </r>
       <r>    2.1241    0.0000 </r>
       <r>    2.2527    0.0000 </r>
       <r>    2.2571    0.0000 </r>
       <r>    2.2770    0.0000 </r>
       <r>    2.2829    0.0000 </r>
       <r>    2.3858    0.0000 </r>
       <r>    2.5795    0.0000 </r>
       <r>    2.6244    0.0000 </r>
       <r>    2.6270    0.0000 </r>
       <r>    2.6971    0.0000 </r>
       <r>    2.7804    0.0000 </r>
       <r>    2.8272    0.0000 </r>
       <r>    2.8483    0.0000 </r>
       <r>    2.9895    0.0000 </r>
       <r>    3.0406    0.0000 </r>
       <r>    3.0685    0.0000 </r>
       <r>    3.1008    0.0000 </r>
       <r>    3.1423    0.0000 </r>
      </set>
     </set>
    </set>
   </array>
  </eigenvalues>
  <separator name="orbital magnetization" >
   <v name="MAGDIPOLOUT">      0.00000000      0.00000000      0.00000000</v>
  </separator>
  <dos>
   <i name="efermi">      0.35152132 </i>
   <total>
    <array>
     <dimension dim="1">gridpoints</dimension>
     <dimension dim="2">spin</dimension>
     <field>energy</field>
     <field>total</field>
     <field>integrated</field>
     <set>
      <set comment="spin 1">
       <r>   -29.7363     0.0000     0.0000 </r>
       <r>   -29.6211     0.0000     0.0000 </r>
       <r>   -29.5059     0.0000     0.0000 </r>
       <r>   -29.3907     0.0000     0.0000 </r>
       <r>   -29.2756     0.0000     0.0000 </r>
       <r>   -29.1604     0.0000     0.0000 </r>
       <r>   -29.0452     0.0000     0.0000 </r>
       <r>   -28.9301     0.0000     0.0000 </r>
       <r>   -28.8149     0.0000     0.0000 </r>
       <r>   -28.6997     0.0000     0.0000 </r>
       <r>   -28.5846     0.0000     0.0000 </r>
       <r>   -28.4694     0.0000     0.0000 </r>
       <r>   -28.3542     0.0000     0.0000 </r>
       <r>   -28.2391     0.0000     0.0000 </r>
       <r>   -28.1239    34.7317     4.0000 </r>
       <r>   -28.0087     0.0000     4.0000 </r>
       <r>   -27.8936     0.0000     4.0000 </r>
       <r>   -27.7784     0.0000     4.0000 </r>
       <r>   -27.6632     0.0000     4.0000 </r>
       <r>   -27.5481     0.0000     4.0000 </r>
       <r>   -27.4329     0.0000     4.0000 </r>
       <r>   -27.3177     0.0000     4.0000 </r>
       <r>   -27.2025     0.0431     4.0050 </r>
       <r>   -27.0874    37.1196    16.2750 </r>
       <r>   -26.9722    86.3706    29.9472 </r>
       <r>   -26.8570     0.0000    32.0000 </r>
       <r>   -26.7419     0.0000    32.0000 </r>
       <r>   -26.6267     0.0000    32.0000 </r>
       <r>   -26.5115     0.0000    32.0000 </r>
       <r>   -26.3964     0.0000    32.0000 </r>
       <r>   -26.2812     0.0000    32.0000 </r>
       <r>   -26.1660     0.0000    32.0000 </r>
       <r>   -26.0509     0.0000    32.0000 </r>
       <r>   -25.9357     0.0000    32.0000 </r>
       <r>   -25.8205     0.0000    32.0000 </r>
       <r>   -25.7054     0.0000    32.0000 </r>
       <r>   -25.5902     0.0000    32.0000 </r>
       <r>   -25.4750     0.0000    32.0000 </r>
       <r>   -25.3599     0.0000    32.0000 </r>
       <r>   -25.2447     0.0000    32.0000 </r>
       <r>   -25.1295     0.0000    32.0000 </r>
       <r>   -25.0143     0.0000    32.0000 </r>
       <r>   -24.8992     0.0000    32.0000 </r>
       <r>   -24.7840     0.0000    32.0000 </r>
       <r>   -24.6688     0.0000    32.0000 </r>
       <r>   -24.5537     0.0000    32.0000 </r>
       <r>   -24.4385     0.0000    32.0000 </r>
       <r>   -24.3233     0.0000    32.0000 </r>
       <r>   -24.2082     0.0000    32.0000 </r>
       <r>   -24.0930     0.0000    32.0000 </r>
       <r>   -23.9778     0.0000    32.0000 </r>
       <r>   -23.8627     0.0000    32.0000 </r>
       <r>   -23.7475     0.0000    32.0000 </r>
       <r>   -23.6323     0.0000    32.0000 </r>
       <r>   -23.5172     0.0000    32.0000 </r>
       <r>   -23.4020     0.0000    32.0000 </r>
       <r>   -23.2868     0.0000    32.0000 </r>
       <r>   -23.1716     0.0000    32.0000 </r>
       <r>   -23.0565     0.0000    32.0000 </r>
       <r>   -22.9413     0.0000    32.0000 </r>
       <r>   -22.8261     0.0000    32.0000 </r>
       <r>   -22.7110     0.0000    32.0000 </r>
       <r>   -22.5958     0.0000    32.0000 </r>
       <r>   -22.4806     0.0000    32.0000 </r>
       <r>   -22.3655     0.0000    32.0000 </r>
       <r>   -22.2503     0.0000    32.0000 </r>
       <r>   -22.1351     0.0000    32.0000 </r>
       <r>   -22.0200     0.0000    32.0000 </r>
       <r>   -21.9048     0.0000    32.0000 </r>
       <r>   -21.7896     0.0000    32.0000 </r>
       <r>   -21.6745     0.0000    32.0000 </r>
       <r>   -21.5593     0.0000    32.0000 </r>
       <r>   -21.4441     0.0000    32.0000 </r>
       <r>   -21.3290     0.0000    32.0000 </r>
       <r>   -21.2138     0.0000    32.0000 </r>
       <r>   -21.0986     0.0000    32.0000 </r>
       <r>   -20.9834     0.0000    32.0000 </r>
       <r>   -20.8683     0.0000    32.0000 </r>
       <r>   -20.7531     0.0000    32.0000 </r>
       <r>   -20.6379     0.0000    32.0000 </r>
       <r>   -20.5228     0.0000    32.0000 </r>
       <r>   -20.4076     0.0000    32.0000 </r>
       <r>   -20.2924     0.0000    32.0000 </r>
       <r>   -20.1773     0.0000    32.0000 </r>
       <r>   -20.0621     0.0000    32.0000 </r>
       <r>   -19.9469     0.0000    32.0000 </r>
       <r>   -19.8318     0.0000    32.0000 </r>
       <r>   -19.7166     0.0000    32.0000 </r>
       <r>   -19.6014     0.0000    32.0000 </r>
       <r>   -19.4863     0.0000    32.0000 </r>
       <r>   -19.3711     0.0000    32.0000 </r>
       <r>   -19.2559     0.0000    32.0000 </r>
       <r>   -19.1408     0.0000    32.0000 </r>
       <r>   -19.0256     0.0000    32.0000 </r>
       <r>   -18.9104     0.0000    32.0000 </r>
       <r>   -18.7952     0.0000    32.0000 </r>
       <r>   -18.6801     0.0000    32.0000 </r>
       <r>   -18.5649     0.0000    32.0000 </r>
       <r>   -18.4497     0.0000    32.0000 </r>
       <r>   -18.3346     0.0000    32.0000 </r>
       <r>   -18.2194     0.0000    32.0000 </r>
       <r>   -18.1042     0.0000    32.0000 </r>
       <r>   -17.9891     0.0000    32.0000 </r>
       <r>   -17.8739     0.0000    32.0000 </r>
       <r>   -17.7587     0.0000    32.0000 </r>
       <r>   -17.6436     0.0000    32.0000 </r>
       <r>   -17.5284     0.0000    32.0000 </r>
       <r>   -17.4132     0.0000    32.0000 </r>
       <r>   -17.2981     0.0000    32.0000 </r>
       <r>   -17.1829     0.0000    32.0000 </r>
       <r>   -17.0677     0.0000    32.0000 </r>
       <r>   -16.9525     0.0000    32.0000 </r>
       <r>   -16.8374     0.0000    32.0000 </r>
       <r>   -16.7222     0.0000    32.0000 </r>
       <r>   -16.6070     0.0000    32.0000 </r>
       <r>   -16.4919     0.0000    32.0000 </r>
       <r>   -16.3767     0.0000    32.0000 </r>
       <r>   -16.2615     0.0000    32.0000 </r>
       <r>   -16.1464     0.0000    32.0000 </r>
       <r>   -16.0312     0.0000    32.0000 </r>
       <r>   -15.9160     0.0000    32.0000 </r>
       <r>   -15.8009     0.0000    32.0000 </r>
       <r>   -15.6857     0.0000    32.0000 </r>
       <r>   -15.5705     0.0000    32.0000 </r>
       <r>   -15.4554     0.0000    32.0000 </r>
       <r>   -15.3402     0.0000    32.0000 </r>
       <r>   -15.2250     0.0000    32.0000 </r>
       <r>   -15.1099     0.0000    32.0000 </r>
       <r>   -14.9947     0.0000    32.0000 </r>
       <r>   -14.8795     0.0000    32.0000 </r>
       <r>   -14.7643     0.0000    32.0000 </r>
       <r>   -14.6492     0.0000    32.0000 </r>
       <r>   -14.5340     0.0000    32.0000 </r>
       <r>   -14.4188     0.0000    32.0000 </r>
       <r>   -14.3037     0.0000    32.0000 </r>
       <r>   -14.1885     0.0000    32.0000 </r>
       <r>   -14.0733     0.0000    32.0000 </r>
       <r>   -13.9582     0.0000    32.0000 </r>
       <r>   -13.8430     0.0000    32.0000 </r>
       <r>   -13.7278     0.0000    32.0000 </r>
       <r>   -13.6127     0.0000    32.0000 </r>
       <r>   -13.4975    34.7394    36.0009 </r>
       <r>   -13.3823    24.6992    42.8446 </r>
       <r>   -13.2672     0.0000    44.0000 </r>
       <r>   -13.1520     0.0000    44.0000 </r>
       <r>   -13.0368     0.0000    44.0000 </r>
       <r>   -12.9217     0.0000    44.0000 </r>
       <r>   -12.8065     0.0366    44.0042 </r>
       <r>   -12.6913    55.1992    52.9822 </r>
       <r>   -12.5761   103.2008    68.5355 </r>
       <r>   -12.4610   120.2949    88.5792 </r>
       <r>   -12.3458    71.7140    99.2842 </r>
       <r>   -12.2306   198.3126   127.9394 </r>
       <r>   -12.1155     0.0000   128.0000 </r>
       <r>   -12.0003     0.0000   128.0000 </r>
       <r>   -11.8851     0.0000   128.0000 </r>
       <r>   -11.7700     0.0000   128.0000 </r>
       <r>   -11.6548     0.0000   128.0000 </r>
       <r>   -11.5396     0.0000   128.0000 </r>
       <r>   -11.4245     0.0000   128.0000 </r>
       <r>   -11.3093     0.0000   128.0000 </r>
       <r>   -11.1941     0.0000   128.0000 </r>
       <r>   -11.0790     0.0000   128.0000 </r>
       <r>   -10.9638     0.0000   128.0000 </r>
       <r>   -10.8486     0.0000   128.0000 </r>
       <r>   -10.7334     0.0000   128.0000 </r>
       <r>   -10.6183     0.0000   128.0000 </r>
       <r>   -10.5031     0.0000   128.0000 </r>
       <r>   -10.3879     0.0287   128.0033 </r>
       <r>   -10.2728     3.3196   128.6573 </r>
       <r>   -10.1576    16.6771   130.8707 </r>
       <r>   -10.0424    54.3894   139.9889 </r>
       <r>    -9.9273     0.0000   140.0000 </r>
       <r>    -9.8121     0.0000   140.0000 </r>
       <r>    -9.6969    17.4920   142.0145 </r>
       <r>    -9.5818    10.8537   144.0000 </r>
       <r>    -9.4666     0.0000   144.0000 </r>
       <r>    -9.3514     0.0000   144.0000 </r>
       <r>    -9.2363     0.0000   144.0000 </r>
       <r>    -9.1211     0.0000   144.0000 </r>
       <r>    -9.0059     0.0000   144.0000 </r>
       <r>    -8.8908     0.0000   144.0000 </r>
       <r>    -8.7756     0.0000   144.0000 </r>
       <r>    -8.6604     0.0000   144.0000 </r>
       <r>    -8.5452     0.0000   144.0000 </r>
       <r>    -8.4301     0.0000   144.0000 </r>
       <r>    -8.3149     0.0000   144.0000 </r>
       <r>    -8.1997     0.0000   144.0000 </r>
       <r>    -8.0846     0.0000   144.0000 </r>
       <r>    -7.9694     0.0000   144.0000 </r>
       <r>    -7.8542     0.0000   144.0000 </r>
       <r>    -7.7391     0.0000   144.0000 </r>
       <r>    -7.6239     0.0000   144.0000 </r>
       <r>    -7.5087     0.0000   144.0000 </r>
       <r>    -7.3936     0.0000   144.0000 </r>
       <r>    -7.2784     0.0000   144.0000 </r>
       <r>    -7.1632     0.0000   144.0000 </r>
       <r>    -7.0481     0.0000   144.0000 </r>
       <r>    -6.9329     0.0000   144.0000 </r>
       <r>    -6.8177     0.0000   144.0000 </r>
       <r>    -6.7026     0.0000   144.0000 </r>
       <r>    -6.5874     0.0000   144.0000 </r>
       <r>    -6.4722     0.0000   144.0000 </r>
       <r>    -6.3570     0.0000   144.0000 </r>
       <r>    -6.2419     0.0000   144.0000 </r>
       <r>    -6.1267     0.0000   144.0000 </r>
       <r>    -6.0115     0.0000   144.0000 </r>
       <r>    -5.8964     0.0000   144.0000 </r>
       <r>    -5.7812     1.4179   144.1633 </r>
       <r>    -5.6660    23.6008   147.7431 </r>
       <r>    -5.5509    20.4191   151.5266 </r>
       <r>    -5.4357    31.0803   155.6295 </r>
       <r>    -5.3205    54.5665   162.9843 </r>
       <r>    -5.2054    57.6149   172.5104 </r>
       <r>    -5.0902    24.1833   179.9602 </r>
       <r>    -4.9750    14.2489   181.9660 </r>
       <r>    -4.8599    43.4326   187.8521 </r>
       <r>    -4.7447     6.3462   190.3309 </r>
       <r>    -4.6295    12.1561   192.0000 </r>
       <r>    -4.5143     0.0000   192.0000 </r>
       <r>    -4.3992     0.0000   192.0000 </r>
       <r>    -4.2840     0.0000   192.0000 </r>
       <r>    -4.1688     0.0000   192.0000 </r>
       <r>    -4.0537     0.0000   192.0000 </r>
       <r>    -3.9385     0.0000   192.0000 </r>
       <r>    -3.8233     0.0000   192.0000 </r>
       <r>    -3.7082     0.0000   192.0000 </r>
       <r>    -3.5930     0.0000   192.0000 </r>
       <r>    -3.4778     0.0000   192.0000 </r>
       <r>    -3.3627     0.0000   192.0000 </r>
       <r>    -3.2475     0.0000   192.0000 </r>
       <r>    -3.1323     0.0000   192.0000 </r>
       <r>    -3.0172     0.0288   192.0033 </r>
       <r>    -2.9020     1.4617   192.3183 </r>
       <r>    -2.7868     1.0256   192.4681 </r>
       <r>    -2.6717     0.6675   192.5769 </r>
       <r>    -2.5565     2.6560   192.9309 </r>
       <r>    -2.4413     4.1785   193.5312 </r>
       <r>    -2.3261     3.6782   194.1236 </r>
       <r>    -2.2110     5.5525   194.9395 </r>
       <r>    -2.0958     7.6084   196.0512 </r>
       <r>    -1.9806    22.8084   199.6268 </r>
       <r>    -1.8655    15.2701   202.0586 </r>
       <r>    -1.7503    15.3879   205.1722 </r>
       <r>    -1.6351    29.8801   209.8912 </r>
       <r>    -1.5200    17.6071   212.8278 </r>
       <r>    -1.4048    19.2769   215.8951 </r>
       <r>    -1.2896    36.6394   221.0697 </r>
       <r>    -1.1745    19.3641   225.0301 </r>
       <r>    -1.0593    46.1247   232.7371 </r>
       <r>    -0.9441    46.6609   240.4489 </r>
       <r>    -0.8290    19.0272   244.9663 </r>
       <r>    -0.7138    29.7048   250.1711 </r>
       <r>    -0.5986    35.2117   255.3803 </r>
       <r>    -0.4835    30.5892   261.3479 </r>
       <r>    -0.3683    24.0659   264.8966 </r>
       <r>    -0.2531    32.1145   270.3736 </r>
       <r>    -0.1379    25.8118   274.9227 </r>
       <r>    -0.0228    27.2803   279.4668 </r>
       <r>     0.0924    20.6994   283.5339 </r>
       <r>     0.2076    21.1206   287.8324 </r>
       <r>     0.3227     0.0000   288.0000 </r>
       <r>     0.4379     0.0000   288.0000 </r>
       <r>     0.5531     0.0000   288.0000 </r>
       <r>     0.6682     0.0000   288.0000 </r>
       <r>     0.7834     0.0000   288.0000 </r>
       <r>     0.8986     0.0000   288.0000 </r>
       <r>     1.0137     0.0000   288.0000 </r>
       <r>     1.1289     4.2201   288.4860 </r>
       <r>     1.2441     5.7163   289.9583 </r>
       <r>     1.3592    15.9096   292.2073 </r>
       <r>     1.4744    11.8817   294.1434 </r>
       <r>     1.5896    16.0665   297.5504 </r>
       <r>     1.7048    32.3753   302.3786 </r>
       <r>     1.8199    20.8395   306.7001 </r>
       <r>     1.9351    26.3802   311.3632 </r>
       <r>     2.0503    20.8993   314.5819 </r>
       <r>     2.1654    26.5268   319.2800 </r>
       <r>     2.2806    21.7973   322.8604 </r>
       <r>     2.3958    33.8845   328.4274 </r>
       <r>     2.5109    21.8011   331.9858 </r>
       <r>     2.6261    23.5846   335.8412 </r>
       <r>     2.7413    22.5992   340.2027 </r>
       <r>     2.8564    24.9819   344.6521 </r>
       <r>     2.9716    17.2416   347.7607 </r>
       <r>     3.0868    16.7917   350.6089 </r>
       <r>     3.2019     6.4445   351.9422 </r>
       <r>     3.3171     0.2171   352.0000 </r>
       <r>     3.4323     0.0000   352.0000 </r>
       <r>     3.5474     0.0000   352.0000 </r>
       <r>     3.6626     0.0000   352.0000 </r>
       <r>     3.7778     0.0000   352.0000 </r>
       <r>     3.8930     0.0000   352.0000 </r>
       <r>     4.0081     0.0000   352.0000 </r>
       <r>     4.1233     0.0000   352.0000 </r>
       <r>     4.2385     0.0000   352.0000 </r>
       <r>     4.3536     0.0000   352.0000 </r>
       <r>     4.4688     0.0000   352.0000 </r>
       <r>     4.5840     0.0000   352.0000 </r>
       <r>     4.6991     0.0000   352.0000 </r>
       <r>     4.8143     0.0000   352.0000 </r>
      </set>
     </set>
    </array>
   </total>
  </dos>
 </calculation>
 <structure name="finalpos" >
  <crystal>
   <varray name="basis" >
    <v>      33.01893616       0.00000000       0.00000000 </v>
    <v>       0.00000000       6.64406295       0.00000000 </v>
    <v>       0.00000000       0.00000000      11.38767529 </v>
   </varray>
   <i name="volume">   2498.22695818 </i>
   <varray name="rec_basis" >
    <v>       0.03028565       0.00000000       0.00000000 </v>
    <v>       0.00000000       0.15051031       0.00000000 </v>
    <v>       0.00000000       0.00000000       0.08781424 </v>
   </varray>
  </crystal>
  <varray name="positions" >
   <v>       0.01007105       0.25993040       0.70997461 </v>
   <v>       0.53564420       0.76020590       0.30885873 </v>
   <v>       0.12928181       0.76001097       0.20169464 </v>
   <v>       0.14161993       0.26036901       0.81874999 </v>
   <v>       0.27753846       0.26010559       0.69929791 </v>
   <v>       0.26817676       0.76003071       0.31953543 </v>
   <v>       0.40409529       0.75976729       0.20008333 </v>
   <v>       0.41643341       0.26012532       0.81713868 </v>
   <v>       0.05960335       0.76015662       0.92181761 </v>
   <v>       0.48611188       0.25997968       0.09701571 </v>
   <v>       0.09500901       0.25994267       0.40532172 </v>
   <v>       0.18042312       0.75996673       0.60558949 </v>
   <v>       0.31776042       0.75987520       0.91606354 </v>
   <v>       0.22795480       0.26026110       0.10276978 </v>
   <v>       0.36529211       0.26016957       0.41324389 </v>
   <v>       0.45070621       0.76019363       0.61351166 </v>
   <v>       0.04951382       0.07994694       0.15641234 </v>
   <v>       0.49620142       0.94018933       0.86242098 </v>
   <v>       0.08502096       0.94009968       0.65142311 </v>
   <v>       0.18858399       0.07815478       0.36273910 </v>
   <v>       0.49617405       0.58024451       0.86250593 </v>
   <v>       0.04954119       0.43989177       0.15632739 </v>
   <v>       0.18861317       0.44160215       0.36262253 </v>
   <v>       0.08500983       0.57989606       0.65145722 </v>
   <v>       0.32350723       0.07819178       0.15540229 </v>
   <v>       0.22220801       0.94194449       0.86343103 </v>
   <v>       0.35713122       0.94198149       0.65609424 </v>
   <v>       0.46069428       0.08003659       0.36741023 </v>
   <v>       0.22221366       0.57920777       0.86344769 </v>
   <v>       0.32350158       0.44092851       0.15538563 </v>
   <v>       0.46070540       0.44024023       0.36737613 </v>
   <v>       0.35710204       0.57853413       0.65621081 </v>
   <v>       0.02110414       0.75999883       0.62596281 </v>
   <v>       0.52461105       0.26013747       0.39287053 </v>
   <v>       0.11146952       0.25966902       0.09254737 </v>
   <v>       0.16171625       0.76045886       0.91790335 </v>
   <v>       0.29646459       0.76014333       0.60161936 </v>
   <v>       0.24925064       0.25999297       0.41721398 </v>
   <v>       0.38399897       0.25967744       0.10092997 </v>
   <v>       0.43424571       0.76046728       0.92628595 </v>
   <v>       0.04991590       0.25978161       0.97250694 </v>
   <v>       0.49579931       0.76035469       0.04632642 </v>
   <v>       0.07162466       0.75993466       0.47002585 </v>
   <v>       0.18977523       0.25999500       0.54581237 </v>
   <v>       0.32579447       0.25959797       0.97173486 </v>
   <v>       0.21992077       0.76053833       0.04709850 </v>
   <v>       0.35593998       0.76014130       0.47302089 </v>
   <v>       0.47409058       0.26020164       0.54880741 </v>
  </varray>
 </structure>
</modeling>
