 vasp.5.4.4.18Apr17-6-g9f103f2a35 (build Nov 21 2017 15:30:27) complex          
  
 executed on             LinuxIFC date 2020.11.09  12:17:45
 running on   64 total cores
 distrk:  each k-point on   32 cores,    2 groups
 distr:  one band on NCORES_PER_BAND=   4 cores,    8 groups


--------------------------------------------------------------------------------------------------------


 INCAR:
 POTCAR:   PAW_PBE Ba_sv 06Sep2000                
 POTCAR:   PAW_PBE Si 05Jan2001                   

 ----------------------------------------------------------------------------- 
|                                                                             |
|           W    W    AA    RRRRR   N    N  II  N    N   GGGG   !!!           |
|           W    W   A  A   R    R  NN   N  II  NN   N  G    G  !!!           |
|           W    W  A    A  R    R  N N  N  II  N N  N  G       !!!           |
|           W WW W  AAAAAA  RRRRR   N  N N  II  N  N N  G  GGG   !            |
|           WW  WW  A    A  R   R   N   NN  II  N   NN  G    G                |
|           W    W  A    A  R    R  N    N  II  N    N   GGGG   !!!           |
|                                                                             |
|      You have enabled k-point parallelism (KPAR>1).                         |
|      This developmental code was originally  written by Paul Kent at ORNL,  |
|      and carefully double checked in Vienna.                                |
|      GW as well as linear response parallelism added by Martijn Marsman     |
|      and Georg Kresse.                                                      |
|      Carefully verify results versus KPAR=1.                                |
|      Report problems to Paul Kent and Vienna.                               |
|                                                                             |
 ----------------------------------------------------------------------------- 


 ----------------------------------------------------------------------------- 
|                                                                             |
|  ADVICE TO THIS USER RUNNING 'VASP/VAMP'   (HEAR YOUR MASTER'S VOICE ...):  |
|                                                                             |
|      You have switched on vdW-DFT.                                          |
|      This routine was written and supplied by Jiri Klimes.                  |
|      We recommed that you carefully read and cite the following             |
|      publication                                                            |
|      J. Klimes, D.R. Bowler, A. Michelides                                  |
|        J. Phys.: Cond Matt. 22 022201 (2010)                                |
|      J. Klimes, D.R. Bowler, A. Michelides                                  |
|        Phys. Rev. B. 83, 195131 (2011)                                      |
|      and references therein.                                                |
|                                                                             |
 ----------------------------------------------------------------------------- 

 POTCAR:   PAW_PBE Ba_sv 06Sep2000                
   VRHFIN =Ba: 5s5p6s                                                           
   LEXCH  = PE                                                                  
   EATOM  =   700.2255 eV,   51.4651 Ry                                         
                                                                                
   TITEL  = PAW_PBE Ba_sv 06Sep2000                                             
   LULTRA =        F    use ultrasoft PP ?                                      
   IUNSCR =        1    unscreen: 0-lin 1-nonlin 2-no                           
   RPACOR =    2.400    partial core radius                                     
   POMASS =  137.327; ZVAL   =   10.000    mass and valenz                      
   RCORE  =    2.800    outmost cutoff radius                                   
   RWIGS  =    3.740; RWIGS  =    1.979    wigner-seitz radius (au A)           
   ENMAX  =  187.210; ENMIN  =  140.408 eV                                      
   RCLOC  =    2.516    cutoff for local pot                                    
   LCOR   =        T    correct aug charges                                     
   LPAW   =        T    paw PP                                                  
   EAUG   =  351.165                                                            
   DEXC   =     .000                                                            
   RMAX   =    3.370    core radius for proj-oper                               
   RAUG   =    1.300    factor for augmentation sphere                          
   RDEP   =    2.976    radius for radial grids                                 
   QCUT   =   -3.709; QGAM   =    7.419    optimization parameters              
                                                                                
   Description                                                                  
     l     E      TYP  RCUT    TYP  RCUT                                        
     0   .000     23  2.800                                                     
     0   .000     23  2.800                                                     
     1   .000     23  2.700                                                     
     1  2.000     23  2.700                                                     
     2   .000     23  2.700                                                     
     2   .000     23  2.700                                                     
  local pseudopotential read in
  partial core-charges read in
  atomic valenz-charges read in
  non local Contribution for L=           0  read in
    real space projection operators read in
  non local Contribution for L=           0  read in
    real space projection operators read in
  non local Contribution for L=           1  read in
    real space projection operators read in
  non local Contribution for L=           1  read in
    real space projection operators read in
  non local Contribution for L=           2  read in
    real space projection operators read in
  non local Contribution for L=           2  read in
    real space projection operators read in
    PAW grid and wavefunctions read in
 
   number of l-projection  operators is LMAX  =           6
   number of lm-projection operators is LMMAX =          18
 
 POTCAR:   PAW_PBE Si 05Jan2001                   
   VRHFIN =Si: s2p2                                                             
   LEXCH  = PE                                                                  
   EATOM  =   103.0669 eV,    7.5752 Ry                                         
                                                                                
   TITEL  = PAW_PBE Si 05Jan2001                                                
   LULTRA =        F    use ultrasoft PP ?                                      
   IUNSCR =        1    unscreen: 0-lin 1-nonlin 2-no                           
   RPACOR =    1.500    partial core radius                                     
   POMASS =   28.085; ZVAL   =    4.000    mass and valenz                      
   RCORE  =    1.900    outmost cutoff radius                                   
   RWIGS  =    2.480; RWIGS  =    1.312    wigner-seitz radius (au A)           
   ENMAX  =  245.345; ENMIN  =  184.009 eV                                      
   ICORE  =        2    local potential                                         
   LCOR   =        T    correct aug charges                                     
   LPAW   =        T    paw PP                                                  
   EAUG   =  322.069                                                            
   DEXC   =    -.007                                                            
   RMAX   =    2.944    core radius for proj-oper                               
   RAUG   =    1.300    factor for augmentation sphere                          
   RDEP   =    1.993    radius for radial grids                                 
   QCUT   =   -4.246; QGAM   =    8.493    optimization parameters              
                                                                                
   Description                                                                  
     l     E      TYP  RCUT    TYP  RCUT                                        
     0   .000     23  1.900                                                     
     0   .000     23  1.900                                                     
     1   .000     23  1.900                                                     
     1   .000     23  1.900                                                     
     2   .000      7  1.900                                                     
  local pseudopotential read in
  partial core-charges read in
  atomic valenz-charges read in
  non local Contribution for L=           0  read in
    real space projection operators read in
  non local Contribution for L=           0  read in
    real space projection operators read in
  non local Contribution for L=           1  read in
    real space projection operators read in
  non local Contribution for L=           1  read in
    real space projection operators read in
    PAW grid and wavefunctions read in
 
   number of l-projection  operators is LMAX  =           4
   number of lm-projection operators is LMMAX =           8
 
 Optimization of the real space projectors (new method)

 maximal supplied QI-value         = 13.42
 optimisation between [QCUT,QGAM] = [ 11.40, 22.81] = [ 36.42,145.68] Ry 
 Optimized for a Real-space Cutoff    1.56 Angstroem

   l    n(q)    QCUT    max X(q) W(low)/X(q) W(high)/X(q)  e(spline) 
   0     11    11.404     7.198    0.14E-04    0.26E-04    0.99E-07
   0     11    11.404    15.603    0.29E-04    0.72E-04    0.44E-06
   1     10    11.404     3.746    0.20E-04    0.24E-04    0.43E-07
   1     10    11.404     4.362    0.22E-03    0.97E-04    0.22E-06
   2     10    11.404     5.782    0.83E-04    0.62E-05    0.27E-06
   2     10    11.404    65.505    0.42E-03    0.31E-04    0.12E-05
 Optimization of the real space projectors (new method)

 maximal supplied QI-value         = 19.84
 optimisation between [QCUT,QGAM] = [ 11.31, 22.82] = [ 35.82,145.81] Ry 
 Optimized for a Real-space Cutoff    1.16 Angstroem

   l    n(q)    QCUT    max X(q) W(low)/X(q) W(high)/X(q)  e(spline) 
   0      8    11.310     8.708    0.14E-04    0.11E-04    0.43E-08
   0      8    11.310   106.241    0.27E-03    0.30E-03    0.38E-07
   1      7    11.310     5.901    0.82E-05    0.48E-04    0.19E-07
   1      7    11.310    73.241    0.27E-03    0.27E-03    0.74E-07

 ----------------------------------------------------------------------------- 
|                                                                             |
|  ADVICE TO THIS USER RUNNING 'VASP/VAMP'   (HEAR YOUR MASTER'S VOICE ...):  |
|                                                                             |
|      You enforced a specific xc-type in the INCAR file,                     |
|      a different type was found on the POTCAR file                          |
|          I HOPE YOU KNOW, WHAT YOU ARE  DOING                               |
|                                                                             |
 ----------------------------------------------------------------------------- 

 PAW_PBE Ba_sv 06Sep2000                :
 energy of atom  1       EATOM= -700.2255
 kinetic energy error for atom=    0.0005 (will be added to EATOM!!)
 PAW_PBE Si 05Jan2001                   :
 energy of atom  2       EATOM= -103.0669
 kinetic energy error for atom=    0.0006 (will be added to EATOM!!)
 
 
 POSCAR: ba8 si16                                
  positions in direct lattice
  velocities in cartesian coordinates
 exchange correlation table for  LEXCH =       43
   RHO(1)=    0.500       N(1)  =     2000
   RHO(2)=  100.500       N(2)  =     4000
 


--------------------------------------------------------------------------------------------------------


 ion  position               nearest neighbor table
   1  0.010  0.260  0.710-  41 3.27  19 3.33  24 3.33  33 3.48  33 3.48   9 4.42   9 4.42  11 4.46
                             4 4.52
   2  0.536  0.760  0.309-  42 3.27  28 3.33  31 3.33  34 3.48  34 3.48  10 4.42  10 4.42  16 4.46
                             7 4.52
   3  0.129  0.760  0.202-  36 3.40  20 3.42  23 3.42  17 3.42  22 3.42  46 3.47  35 3.59  35 3.60
                            43 3.60   9 3.93  11 4.21  11 4.21
   4  0.142  0.260  0.819-  35 3.27  24 3.41  19 3.41  26 3.44  29 3.44  44 3.49  41 3.50  36 3.57
                            36 3.57  12 4.31  14 4.31  12 4.31   9 4.44   9 4.44   1 4.52   5 4.69
   5  0.278  0.260  0.699-  38 3.35  26 3.36  29 3.37  44 3.38  27 3.41  32 3.41  45 3.49  37 3.56
                            37 3.56  13 4.35  13 4.35  15 4.36   4 4.69  12 4.74  12 4.74
   6  0.268  0.760  0.320-  37 3.35  25 3.36  30 3.37  47 3.38  20 3.41  23 3.41  46 3.49  38 3.56
                            38 3.56  14 4.35  14 4.35  12 4.36   7 4.69  15 4.74  15 4.74
   7  0.404  0.760  0.200-  40 3.27  31 3.41  28 3.41  25 3.44  30 3.44  47 3.49  42 3.50  39 3.57
                            39 3.57  15 4.31  13 4.31  15 4.31  10 4.44  10 4.44   2 4.52   6 4.69
   8  0.416  0.260  0.817-  39 3.40  27 3.42  32 3.42  18 3.42  21 3.42  45 3.47  40 3.59  40 3.60
                            48 3.60  10 3.93  16 4.21  16 4.21
   9  0.060  0.760  0.922-  36 3.37  41 3.38  41 3.39  19 3.41  24 3.41  17 3.43  22 3.43  33 3.60
                             3 3.93   1 4.42   1 4.42   4 4.44   4 4.44
  10  0.486  0.260  0.097-  39 3.37  42 3.38  42 3.39  28 3.41  31 3.41  18 3.43  21 3.43  34 3.60
                             8 3.93   2 4.42   2 4.42   7 4.44   7 4.44
  11  0.095  0.260  0.405-  20 3.35  23 3.35  17 3.42  22 3.42  43 3.49  43 3.49  44 3.51  19 3.53
                            24 3.53  35 3.60   3 4.21   3 4.21   1 4.46
  12  0.180  0.760  0.606-  44 3.40  44 3.41  19 3.41  24 3.41  29 3.46  26 3.46  20 3.49  23 3.49
                            36 3.61  37 3.83  43 3.91   4 4.31   4 4.31   6 4.36   5 4.74   5 4.74
  13  0.318  0.760  0.916-  45 3.39  45 3.39  29 3.43  26 3.43  32 3.45  27 3.45  25 3.46  30 3.46
                            46 3.56  37 3.65  40 3.85   7 4.31   5 4.35   5 4.35
  14  0.228  0.260  0.103-  46 3.39  46 3.39  30 3.43  25 3.43  23 3.45  20 3.45  26 3.46  29 3.46
                            45 3.56  38 3.65  35 3.85   4 4.31   6 4.35   6 4.35
  15  0.365  0.260  0.413-  47 3.40  47 3.41  28 3.41  31 3.41  30 3.46  25 3.46  27 3.49  32 3.49
                            39 3.61  38 3.83  48 3.91   7 4.31   7 4.31   5 4.36   6 4.74   6 4.74
  16  0.451  0.760  0.614-  27 3.35  32 3.35  18 3.42  21 3.42  48 3.49  48 3.49  47 3.51  28 3.53
                            31 3.53  40 3.60   8 4.21   8 4.21   2 4.46
  17  0.050  0.080  0.156-  22 2.39  41 2.41  35 2.48  11 3.42   3 3.42   9 3.43
  18  0.496  0.940  0.862-  21 2.39  42 2.41  40 2.48  16 3.42   8 3.42  10 3.43
  19  0.085  0.940  0.651-  24 2.39  43 2.43  33 2.44   1 3.33   9 3.41  12 3.41   4 3.41  11 3.53

  20  0.189  0.078  0.363-  44 2.41  23 2.41  38 2.42  11 3.35   6 3.41   3 3.42  14 3.45  12 3.49

  21  0.496  0.580  0.863-  18 2.39  42 2.41  40 2.48   8 3.42  16 3.42  10 3.43
  22  0.050  0.440  0.156-  17 2.39  41 2.41  35 2.48   3 3.42  11 3.42   9 3.43
  23  0.189  0.442  0.363-  44 2.41  20 2.41  38 2.42  11 3.35   6 3.41   3 3.42  14 3.45  12 3.49

  24  0.085  0.580  0.651-  19 2.39  43 2.43  33 2.44   1 3.33   9 3.41  12 3.41   4 3.41  11 3.53

  25  0.324  0.078  0.155-  30 2.41  39 2.41  45 2.42   6 3.36  14 3.43   7 3.44  13 3.46  15 3.46

  26  0.222  0.942  0.863-  29 2.41  36 2.41  46 2.42   5 3.36  13 3.43   4 3.44  14 3.46  12 3.46

  27  0.357  0.942  0.656-  47 2.41  32 2.41  37 2.42  16 3.35   5 3.41   8 3.42  13 3.45  15 3.49

  28  0.461  0.080  0.367-  31 2.39  48 2.43  34 2.44   2 3.33  10 3.41  15 3.41   7 3.41  16 3.53

  29  0.222  0.579  0.863-  26 2.41  36 2.41  46 2.41   5 3.37  13 3.43   4 3.44  14 3.46  12 3.46

  30  0.324  0.441  0.155-  25 2.41  39 2.41  45 2.41   6 3.37  14 3.43   7 3.44  13 3.46  15 3.46

  31  0.461  0.440  0.367-  28 2.39  48 2.43  34 2.44   2 3.33  10 3.41  15 3.41   7 3.41  16 3.53

  32  0.357  0.579  0.656-  47 2.41  27 2.41  37 2.42  16 3.35   5 3.41   8 3.42  13 3.45  15 3.49

  33  0.021  0.760  0.626-  43 2.44  24 2.44  19 2.44   1 3.48   1 3.48   9 3.60
  34  0.525  0.260  0.393-  48 2.44  31 2.44  28 2.44   2 3.48   2 3.48  10 3.60
  35  0.111  0.260  0.093-  41 2.45  17 2.48  22 2.48   4 3.27   3 3.59   3 3.60  11 3.60  14 3.85

  36  0.162  0.760  0.918-  29 2.41  26 2.41  46 2.42   9 3.37   3 3.40   4 3.57   4 3.57  12 3.61

  37  0.296  0.760  0.602-  32 2.42  27 2.42  47 2.45   6 3.35   5 3.56   5 3.56  13 3.65  12 3.83

  38  0.249  0.260  0.417-  23 2.42  20 2.42  44 2.45   5 3.35   6 3.56   6 3.56  14 3.65  15 3.83

  39  0.384  0.260  0.101-  30 2.41  25 2.41  45 2.42  10 3.37   8 3.40   7 3.57   7 3.57  15 3.61

  40  0.434  0.760  0.926-  42 2.45  18 2.48  21 2.48   7 3.27   8 3.59   8 3.60  16 3.60  13 3.85

  41  0.050  0.260  0.973-  17 2.41  22 2.41  35 2.45   1 3.27   9 3.38   9 3.39   4 3.50
  42  0.496  0.760  0.046-  18 2.41  21 2.41  40 2.45   2 3.27  10 3.38  10 3.39   7 3.50
  43  0.072  0.760  0.470-  24 2.43  19 2.43  33 2.44  11 3.49  11 3.49   3 3.60  12 3.91
  44  0.190  0.260  0.546-  20 2.41  23 2.41  38 2.45   5 3.38  12 3.40  12 3.41   4 3.49  11 3.51

  45  0.326  0.260  0.972-  30 2.41  25 2.42  39 2.42  13 3.39  13 3.39   8 3.47   5 3.49  14 3.56

  46  0.220  0.761  0.047-  29 2.41  26 2.42  36 2.42  14 3.39  14 3.39   3 3.47   6 3.49  13 3.56

  47  0.356  0.760  0.473-  27 2.41  32 2.41  37 2.45   6 3.38  15 3.40  15 3.41   7 3.49  16 3.51

  48  0.474  0.260  0.549-  31 2.43  28 2.43  34 2.44  16 3.49  16 3.49   8 3.60  15 3.91
 
  LATTYP: Found a simple orthorhombic cell.
 ALAT       =     6.6440629519
 B/A-ratio  =     1.7139625822
 C/A-ratio  =     4.9696904434
  
  Lattice vectors:
  
 A1 = (   0.0000000000,   6.6440629519,   0.0000000000)
 A2 = (   0.0000000000,   0.0000000000, -11.3876752935)
 A3 = ( -33.0189361572,   0.0000000000,   0.0000000000)


Analysis of symmetry for initial positions (statically):
=====================================================================
 Subroutine PRICEL returns:
 Original cell was already a primitive cell.
 

 Routine SETGRP: Setting up the symmetry group for a 
 simple orthorhombic supercell.


 Subroutine GETGRP returns: Found  2 space group operations
 (whereof  1 operations were pure point group operations)
 out of a pool of  8 trial point group operations.


The static configuration has the point symmetry C_1 .
 The point group associated with its full space group is S_2 .


Analysis of symmetry for dynamics (positions and initial velocities):
=====================================================================
 Subroutine PRICEL returns:
 Original cell was already a primitive cell.
 

 Routine SETGRP: Setting up the symmetry group for a 
 simple orthorhombic supercell.


 Subroutine GETGRP returns: Found  2 space group operations
 (whereof  1 operations were pure point group operations)
 out of a pool of  8 trial point group operations.


The dynamic configuration has the point symmetry C_1 .
 The point group associated with its full space group is S_2 .


 Subroutine INISYM returns: Found  2 space group operations
 (whereof  1 operations are pure point group operations),
 and found     1 'primitive' translations

 
 
 KPOINTS: k-density: 8.0                          

Automatic generation of k-mesh.
Space group operators:
 irot       det(A)        alpha          n_x          n_y          n_z        tau_x        tau_y        tau_z
    1     1.000000     0.000000     1.000000     0.000000     0.000000     0.000000     0.000000     0.000000
    2    -1.000000     0.000000     1.000000     0.000000     0.000000    -0.454285     0.020136    -0.981167
 
 Subroutine IBZKPT returns following result:
 ===========================================
 
 Found     21 irreducible k-points:
 
 Following reciprocal coordinates:
            Coordinates               Weight
  0.000000  0.000000  0.000000      1.000000
  0.000000  0.125000  0.000000      2.000000
  0.000000  0.250000  0.000000      2.000000
  0.000000  0.375000  0.000000      2.000000
  0.000000  0.500000  0.000000      1.000000
  0.000000  0.000000  0.200000      2.000000
  0.000000  0.125000  0.200000      2.000000
  0.000000  0.250000  0.200000      2.000000
  0.000000  0.375000  0.200000      2.000000
  0.000000  0.500000  0.200000      2.000000
  0.000000 -0.375000  0.200000      2.000000
  0.000000 -0.250000  0.200000      2.000000
  0.000000 -0.125000  0.200000      2.000000
  0.000000  0.000000  0.400000      2.000000
  0.000000  0.125000  0.400000      2.000000
  0.000000  0.250000  0.400000      2.000000
  0.000000  0.375000  0.400000      2.000000
  0.000000  0.500000  0.400000      2.000000
  0.000000 -0.375000  0.400000      2.000000
  0.000000 -0.250000  0.400000      2.000000
  0.000000 -0.125000  0.400000      2.000000
 
 Following cartesian coordinates:
            Coordinates               Weight
  0.000000  0.000000  0.000000      1.000000
  0.000000  0.018814  0.000000      2.000000
  0.000000  0.037628  0.000000      2.000000
  0.000000  0.056441  0.000000      2.000000
  0.000000  0.075255  0.000000      1.000000
  0.000000  0.000000  0.017563      2.000000
  0.000000  0.018814  0.017563      2.000000
  0.000000  0.037628  0.017563      2.000000
  0.000000  0.056441  0.017563      2.000000
  0.000000  0.075255  0.017563      2.000000
  0.000000 -0.056441  0.017563      2.000000
  0.000000 -0.037628  0.017563      2.000000
  0.000000 -0.018814  0.017563      2.000000
  0.000000  0.000000  0.035126      2.000000
  0.000000  0.018814  0.035126      2.000000
  0.000000  0.037628  0.035126      2.000000
  0.000000  0.056441  0.035126      2.000000
  0.000000  0.075255  0.035126      2.000000
  0.000000 -0.056441  0.035126      2.000000
  0.000000 -0.037628  0.035126      2.000000
  0.000000 -0.018814  0.035126      2.000000
 
 TETIRR: Found    118 inequivalent tetrahedra from      240


--------------------------------------------------------------------------------------------------------




 Dimension of arrays:
   k-points           NKPTS =     21   k-points in BZ     NKDIM =     21   number of bands    NBANDS=    176
   number of dos      NEDOS =   2801   number of ions     NIONS =     48
   non local maximal  LDIM  =      6   non local SUM 2l+1 LMDIM =     18
   total plane-waves  NPLWV = 442368
   max r-space proj   IRMAX =   2888   max aug-charges    IRDMAX=  11282
   dimension x,y,z NGX =   192 NGY =   36 NGZ =   64
   dimension x,y,z NGXF=   384 NGYF=   72 NGZF=  128
   support grid    NGXF=   384 NGYF=   72 NGZF=  128
   ions per type =              16  32
   NGX,Y,Z   is equivalent  to a cutoff of   9.67,  9.01,  9.34 a.u.
   NGXF,Y,Z  is equivalent  to a cutoff of  19.33, 18.02, 18.69 a.u.

 SYSTEM =  unknown system                          
 POSCAR =  ba8 si16                                

 Startparameter for this run:
   NWRITE =      2    write-flag & timer
   PREC   = normal    normal or accurate (medium, high low for compatibility)
   ISTART =      0    job   : 0-new  1-cont  2-samecut
   ICHARG =     11    charge: 1-file 2-atom 10-const
   ISPIN  =      1    spin polarized calculation?
   LNONCOLLINEAR =      F non collinear calculations
   LSORBIT =      F    spin-orbit coupling
   INIWAV =      1    electr: 0-lowe 1-rand  2-diag
   LASPH  =      T    aspherical Exc in radial PAW
   METAGGA=      F    non-selfconsistent MetaGGA calc.

 Electronic Relaxation 1
   ENCUT  =  500.0 eV  36.75 Ry    6.06 a.u.  60.20 12.11 20.76*2*pi/ulx,y,z
   ENINI  =  500.0     initial cutoff
   ENAUG  =  351.2 eV  augmentation charge cutoff
   NELM   =    100;   NELMIN=  2; NELMDL= -5     # of ELM steps 
   EDIFF  = 0.1E-05   stopping-criterion for ELM
   LREAL  =      T    real-space projection
   NLSPLINE    = F    spline interpolate recip. space projectors
   LCOMPAT=      F    compatible to vasp.4.4
   GGA_COMPAT  = T    GGA compatible to vasp.4.4-vasp.4.6
   LMAXPAW     = -100 max onsite density
   LMAXMIX     =    2 max onsite mixed and CHGCAR
   VOSKOWN=      0    Vosko Wilk Nusair interpolation
   ROPT   =   -0.00050  -0.00050
 Ionic relaxation
   EDIFFG = -.1E-01   stopping-criterion for IOM
   NSW    =      0    number of steps for IOM
   NBLOCK =      1;   KBLOCK =      1    inner block; outer block 
   IBRION =     -1    ionic relax: 0-MD 1-quasi-New 2-CG
   NFREE  =      0    steps in history (QN), initial steepest desc. (CG)
   ISIF   =      2    stress and relaxation
   IWAVPR =     10    prediction:  0-non 1-charg 2-wave 3-comb
   ISYM   =      2    0-nonsym 1-usesym 2-fastsym
   LCORR  =      T    Harris-Foulkes like correction to forces

   POTIM  = 0.3000    time-step for ionic-motion
   TEIN   =    0.0    initial temperature
   TEBEG  =    0.0;   TEEND  =   0.0 temperature during run
   SMASS  =  -3.00    Nose mass-parameter (am)
   estimated Nose-frequenzy (Omega)   =  0.10E-29 period in steps =****** mass=  -0.249E-25a.u.
   SCALEE = 1.0000    scale energy and forces
   NPACO  =    256;   APACO  = 16.0  distance and # of slots for P.C.
   PSTRESS=    0.0 pullay stress

  Mass of Ions in am
   POMASS = 137.33 28.09
  Ionic Valenz
   ZVAL   =  10.00  4.00
  Atomic Wigner-Seitz radii
   RWIGS  =  -1.00 -1.00
  virtual crystal weights 
   VCA    =   1.00  1.00
   NELECT =     288.0000    total number of electrons
   NUPDOWN=      -1.0000    fix difference up-down

 DOS related values:
   EMIN   = -10.00;   EMAX   = 18.00  energy-range for DOS
   EFERMI =   0.00
   ISMEAR =    -5;   SIGMA  =   0.01  broadening in eV -4-tet -1-fermi 0-gaus

 Electronic relaxation 2 (details)
   IALGO  =     38    algorithm
   LDIAG  =      T    sub-space diagonalisation (order eigenvalues)
   LSUBROT=      F    optimize rotation matrix (better conditioning)
   TURBO    =      0    0=normal 1=particle mesh
   IRESTART =      0    0=no restart 2=restart with 2 vectors
   NREBOOT  =      0    no. of reboots
   NMIN     =      0    reboot dimension
   EREF     =   0.00    reference energy to select bands
   IMIX   =      4    mixing-type and parameters
     AMIX     =   0.40;   BMIX     =  1.00
     AMIX_MAG =   1.60;   BMIX_MAG =  1.00
     AMIN     =   0.10
     WC   =   100.;   INIMIX=   1;  MIXPRE=   1;  MAXMIX= -45

 Intra band minimization:
   WEIMIN = 0.0000     energy-eigenvalue tresh-hold
   EBREAK =  0.14E-08  absolut break condition
   DEPER  =   0.30     relativ break condition  

   TIME   =   0.40     timestep for ELM

  volume/ion in A,a.u.               =      52.05       351.23
  Fermi-wavevector in a.u.,A,eV,Ry     =   0.796762  1.505661  8.637372  0.634829
  Thomas-Fermi vector in A             =   1.903347
 
 Write flags
   LWAVE        =      T    write WAVECAR
   LDOWNSAMPLE  =      F    k-point downsampling of WAVECAR
   LCHARG       =      T    write CHGCAR
   LVTOT        =      F    write LOCPOT, total local potential
   LVHAR        =      F    write LOCPOT, Hartree potential only
   LELF         =      F    write electronic localiz. function (ELF)
   LORBIT       =     11    0 simple, 1 ext, 2 COOP (PROOUT), +10 PAW based schemes


 Dipole corrections
   LMONO  =      F    monopole corrections only (constant potential shift)
   LDIPOL =      F    correct potential (dipole corrections)
   IDIPOL =      0    1-x, 2-y, 3-z, 4-all directions 
   EPSILON=  1.0000000 bulk dielectric constant

 Exchange correlation treatment:
   GGA     =    MK    GGA type
   LEXCH   =    43    internal setting for exchange type
   VOSKOWN=      0    Vosko Wilk Nusair interpolation
   LHFCALC =     F    Hartree Fock is set to
   LHFONE  =     F    Hartree Fock one center treatment
   AEXX    =    0.0000 exact exchange contribution

 vdW DFT:
   LUSE_VDW   =     T    switch on vdW DFT
   Zab_VDW    =******    correlation parameter
   PARAM1     =0.1234
   PARAM2     =0.7114
   PARAM3     =0.0000
   -- rVV10 --
   BPARAM     = 6.3000
   CPARAM     = 0.0093

 Linear response parameters
   LEPSILON=     F    determine dielectric tensor
   LRPA    =     F    only Hartree local field effects (RPA)
   LNABLA  =     F    use nabla operator in PAW spheres
   LVEL    =     F    velocity operator in full k-point grid
   LINTERFAST=   F  fast interpolation
   KINTER  =     0    interpolate to denser k-point grid
   CSHIFT  =0.1000    complex shift for real part using Kramers Kronig
   OMEGAMAX=  -1.0    maximum frequency
   DEG_THRESHOLD= 0.2000000E-02 threshold for treating states as degnerate
   RTIME   =   -0.100 relaxation time in fs
  (WPLASMAI=    0.000 imaginary part of plasma frequency in eV, 0.658/RTIME)
   DFIELD  = 0.0000000 0.0000000 0.0000000 field for delta impulse in time
 
 Orbital magnetization related:
   ORBITALMAG=     F  switch on orbital magnetization
   LCHIMAG   =     F  perturbation theory with respect to B field
   DQ        =  0.001000  dq finite difference perturbation B field
   LLRAUG    =     F  two centre corrections for induced B field



--------------------------------------------------------------------------------------------------------


 Static calculation
 charge density and potential remain constant during run
 non-spin polarized calculation
 Variant of blocked Davidson
 Davidson routine will perform the subspace rotation
 perform sub-space diagonalisation
    after iterative eigenvector-optimisation
 no mixing
 using additional bands           32
 real space projection scheme for non local part
 use partial core corrections
 calculate Harris-corrections to forces 
   (improved forces if not selfconsistent)
 use gradient corrections 
 WARNING: stress and forces are not correct
  (second derivative of E(xc) not defined)
 use of overlap-Matrix (Vanderbilt PP)
 Fermi weights with tetrahedron method with Bloechl corrections


--------------------------------------------------------------------------------------------------------


  energy-cutoff  :      500.00
  volume of cell :     2498.23
      direct lattice vectors                 reciprocal lattice vectors
    33.018936157  0.000000000  0.000000000     0.030285652  0.000000000  0.000000000
     0.000000000  6.644062952  0.000000000     0.000000000  0.150510314  0.000000000
     0.000000000  0.000000000 11.387675294     0.000000000  0.000000000  0.087814235

  length of vectors
    33.018936157  6.644062952 11.387675294     0.030285652  0.150510314  0.087814235


 
 k-points in units of 2pi/SCALE and weight: k-density: 8.0                          
   0.00000000  0.00000000  0.00000000       0.025
   0.00000000  0.01881379  0.00000000       0.050
   0.00000000  0.03762758  0.00000000       0.050
   0.00000000  0.05644137  0.00000000       0.050
   0.00000000  0.07525516  0.00000000       0.025
   0.00000000  0.00000000  0.01756285       0.050
   0.00000000  0.01881379  0.01756285       0.050
   0.00000000  0.03762758  0.01756285       0.050
   0.00000000  0.05644137  0.01756285       0.050
   0.00000000  0.07525516  0.01756285       0.050
   0.00000000 -0.05644137  0.01756285       0.050
   0.00000000 -0.03762758  0.01756285       0.050
   0.00000000 -0.01881379  0.01756285       0.050
   0.00000000  0.00000000  0.03512569       0.050
   0.00000000  0.01881379  0.03512569       0.050
   0.00000000  0.03762758  0.03512569       0.050
   0.00000000  0.05644137  0.03512569       0.050
   0.00000000  0.07525516  0.03512569       0.050
   0.00000000 -0.05644137  0.03512569       0.050
   0.00000000 -0.03762758  0.03512569       0.050
   0.00000000 -0.01881379  0.03512569       0.050
 
 k-points in reciprocal lattice and weights: k-density: 8.0                          
   0.00000000  0.00000000  0.00000000       0.025
   0.00000000  0.12500000  0.00000000       0.050
   0.00000000  0.25000000  0.00000000       0.050
   0.00000000  0.37500000  0.00000000       0.050
   0.00000000  0.50000000  0.00000000       0.025
   0.00000000  0.00000000  0.20000000       0.050
   0.00000000  0.12500000  0.20000000       0.050
   0.00000000  0.25000000  0.20000000       0.050
   0.00000000  0.37500000  0.20000000       0.050
   0.00000000  0.50000000  0.20000000       0.050
   0.00000000 -0.37500000  0.20000000       0.050
   0.00000000 -0.25000000  0.20000000       0.050
   0.00000000 -0.12500000  0.20000000       0.050
   0.00000000  0.00000000  0.40000000       0.050
   0.00000000  0.12500000  0.40000000       0.050
   0.00000000  0.25000000  0.40000000       0.050
   0.00000000  0.37500000  0.40000000       0.050
   0.00000000  0.50000000  0.40000000       0.050
   0.00000000 -0.37500000  0.40000000       0.050
   0.00000000 -0.25000000  0.40000000       0.050
   0.00000000 -0.12500000  0.40000000       0.050
 
 position of ions in fractional coordinates (direct lattice) 
   0.01007105  0.25993040  0.70997461
   0.53564420  0.76020590  0.30885873
   0.12928181  0.76001097  0.20169464
   0.14161993  0.26036901  0.81874999
   0.27753846  0.26010559  0.69929791
   0.26817676  0.76003071  0.31953543
   0.40409529  0.75976729  0.20008333
   0.41643341  0.26012532  0.81713868
   0.05960335  0.76015662  0.92181761
   0.48611188  0.25997968  0.09701571
   0.09500901  0.25994267  0.40532172
   0.18042312  0.75996673  0.60558949
   0.31776042  0.75987520  0.91606354
   0.22795480  0.26026110  0.10276978
   0.36529211  0.26016957  0.41324389
   0.45070621  0.76019363  0.61351166
   0.04951382  0.07994694  0.15641234
   0.49620142  0.94018933  0.86242098
   0.08502096  0.94009968  0.65142311
   0.18858399  0.07815478  0.36273910
   0.49617405  0.58024451  0.86250593
   0.04954119  0.43989177  0.15632739
   0.18861317  0.44160215  0.36262253
   0.08500983  0.57989606  0.65145722
   0.32350723  0.07819178  0.15540229
   0.22220801  0.94194449  0.86343103
   0.35713122  0.94198149  0.65609424
   0.46069428  0.08003659  0.36741023
   0.22221366  0.57920777  0.86344769
   0.32350158  0.44092851  0.15538563
   0.46070540  0.44024023  0.36737613
   0.35710204  0.57853413  0.65621081
   0.02110414  0.75999883  0.62596281
   0.52461105  0.26013747  0.39287053
   0.11146952  0.25966902  0.09254737
   0.16171625  0.76045886  0.91790335
   0.29646459  0.76014333  0.60161936
   0.24925064  0.25999297  0.41721398
   0.38399897  0.25967744  0.10092997
   0.43424571  0.76046728  0.92628595
   0.04991590  0.25978161  0.97250694
   0.49579931  0.76035469  0.04632642
   0.07162466  0.75993466  0.47002585
   0.18977523  0.25999500  0.54581237
   0.32579447  0.25959797  0.97173486
   0.21992077  0.76053833  0.04709850
   0.35593998  0.76014130  0.47302089
   0.47409058  0.26020164  0.54880741
 
 position of ions in cartesian coordinates  (Angst):
   0.33253550  1.72699392  8.08496032
  17.68640165  5.05085587  3.51718297
   4.26874787  5.04956076  2.29683308
   4.67613959  1.72990807  9.32365904
   9.16402481  1.72815792  7.96337752
   8.85491135  5.04969187  3.63876577
  13.34279657  5.04794172  2.27848401
  13.75018829  1.72828903  9.30530997
   1.96803912  5.05052844 10.49735962
  16.05089703  1.72732135  1.10478343
   3.13709655  1.72707544  4.61567217
   5.95737936  5.04926679  6.89625653
  10.49211118  5.04865865 10.43183412
   7.52682497  1.72919115  1.17030893
  12.06155679  1.72858300  4.70588724
  14.88183961  5.05077435  6.98647159
   1.63489355  0.53117251  1.78117296
  16.38404309  6.24667711  9.82097009
   2.80730173  6.24608147  7.41819484
   6.22684264  0.51926531  4.13075510
  16.38313929  3.85518105  9.82193745
   1.63579734  2.92266863  1.78020560
   6.22780628  2.93403247  4.12942763
   2.80693430  3.85286590  7.41858327
  10.68186460  0.51951113  1.76967087
   7.33707204  6.25833848  9.83247218
  11.79209304  6.25858431  7.47138819
  15.21163490  0.53176814  4.18394845
   7.33725873  3.84829288  9.83266196
  10.68167791  2.92955680  1.76948109
  15.21200233  2.92498377  4.18356002
  11.79112940  3.84381720  7.47271565
   0.69683624  5.04948007  7.12826121
  17.32209879  1.72836972  4.47388208
   3.68060510  1.72525734  1.05389942
   5.33969862  5.05253655 10.45278532
   9.78894534  5.05044011  6.85104597
   8.22999081  1.72740969  4.75109732
  12.67923753  1.72531324  1.14935773
  14.33833130  5.05259246 10.54824363
   1.64816983  1.72600534 11.07459323
  16.37076573  5.05184445  0.52755024
   2.36497014  5.04905373  5.35250177
   6.26617619  1.72742313  6.21553404
  10.75738675  1.72478527 11.06580103
   7.26154989  5.05306453  0.53634244
  11.75275949  5.05042666  5.38660829
  15.65396649  1.72879606  6.24964056
 


--------------------------------------------------------------------------------------------------------


 k-point  1 :   0.0000 0.0000 0.0000  plane waves:   63289
 k-point  2 :   0.0000 0.1250 0.0000  plane waves:   63344
 k-point  3 :   0.0000 0.2500 0.0000  plane waves:   63446
 k-point  4 :   0.0000 0.3750 0.0000  plane waves:   63474
 k-point  5 :   0.0000 0.5000 0.0000  plane waves:   63500
 k-point  6 :   0.0000 0.0000 0.2000  plane waves:   63393
 k-point  7 :   0.0000 0.1250 0.2000  plane waves:   63349
 k-point  8 :   0.0000 0.2500 0.2000  plane waves:   63415
 k-point  9 :   0.0000 0.3750 0.2000  plane waves:   63451
 k-point 10 :   0.0000 0.5000 0.2000  plane waves:   63464
 k-point 11 :   0.0000-0.3750 0.2000  plane waves:   63451
 k-point 12 :   0.0000-0.2500 0.2000  plane waves:   63415
 k-point 13 :   0.0000-0.1250 0.2000  plane waves:   63349
 k-point 14 :   0.0000 0.0000 0.4000  plane waves:   63454
 k-point 15 :   0.0000 0.1250 0.4000  plane waves:   63399
 k-point 16 :   0.0000 0.2500 0.4000  plane waves:   63427
 k-point 17 :   0.0000 0.3750 0.4000  plane waves:   63429
 k-point 18 :   0.0000 0.5000 0.4000  plane waves:   63418
 k-point 19 :   0.0000-0.3750 0.4000  plane waves:   63429
 k-point 20 :   0.0000-0.2500 0.4000  plane waves:   63427
 k-point 21 :   0.0000-0.1250 0.4000  plane waves:   63399

 maximum and minimum number of plane-waves per node :     15970    15740

 maximum number of plane-waves:     63500
 maximum index in each direction: 
   IXMAX=   60   IYMAX=   12   IZMAX=   20
   IXMIN=  -60   IYMIN=  -12   IZMIN=  -21


 real space projection operators:
  total allocation   :       8461.34 KBytes
  max/ min on nodes  :       2118.33       2112.38


 parallel 3D FFT for wavefunctions:
    minimum data exchange during FFTs selected (reduces bandwidth)
 parallel 3D FFT for charge:
    minimum data exchange during FFTs selected (reduces bandwidth)


 total amount of memory used by VASP MPI-rank0   171990. kBytes
=======================================================================

   base      :      30000. kBytes
   nonlr-proj:       4934. kBytes
   fftplans  :       7212. kBytes
   grid      :      10736. kBytes
   one-center:        186. kBytes
   wavefun   :     118922. kBytes
 
     INWAV:  cpu time    0.0001: real time    0.0003
 initial charge density was supplied:
 number of electron     287.9999996 magnetization 
 keeping initial charge density in first step


--------------------------------------------------------------------------------------------------------


 Maximum index for non-local projection operator          695
 Maximum index for augmentation-charges          569 (set IRDMAX)


--------------------------------------------------------------------------------------------------------


 First call to EWALD:  gamma=   0.131
 Maximum number of real-space cells 1x 5x 3
 Maximum number of reciprocal cells 6x 2x 2

    FEWALD:  cpu time    0.0477: real time    0.0478


--------------------------------------- Iteration      1(   1)  ---------------------------------------


vdW kernel read from vdw_kernel.bindat
  0.0000  0.2424  0.5071  0.7962  1.1119  1.4567  1.8333  2.2446  2.6937  3.1842
  3.7199  4.3049  4.9438  5.6415  6.4036  7.2358  8.1446  9.1372 10.2212 11.4050
 12.6979 14.1099 15.6519 17.3360 19.1751 21.1837 23.3773 25.7729 28.3892 31.2465
 34.3669 37.7748 41.4965 45.5611 50.0000
 
    POTLOK:  cpu time    4.1284: real time    4.2033
    SETDIJ:  cpu time    0.0758: real time    0.0764
     EDDAV:  cpu time   13.9251: real time   14.1214
 BZINTS: Fermi energy:  9.034507;288.000000 electrons
         Band energy:-281.816235;  BLOECHL correction: -0.017074
       DOS:  cpu time    0.0293: real time    0.0295
    --------------------------------------------
      LOOP:  cpu time   18.1585: real time   18.4306

 eigenvalue-minimisations  :  7544
 total energy-change (2. order) : 0.2113044E+04  (-0.1017330E+05)
 number of electron     287.9999996 magnetization 
 augmentation part      287.9999996 magnetization 

 Free energy of the ion-electron system (eV)
  ---------------------------------------------------
  alpha Z        PSCENC =       515.29618416
  Ewald energy   TEWEN  =     44929.74495993
  -Hartree energ DENC   =    -58274.32057797
  -exchange      EXHF   =         0.00000000
  -V(xc)+E(xc)   XCENC  =        96.95542034
  PAW double counting   =      7735.37882299    -7146.49745873
  entropy T*S    EENTRO =         0.00000000
  eigenvalues    EBANDS =      -281.81623468
  atomic energy  EATOM  =     14538.30290828
  Solvation  Ediel_sol  =         0.00000000
  ---------------------------------------------------
  free energy    TOTEN  =      2113.04402432 eV

  energy without entropy =     2113.04402432  energy(sigma->0) =     2113.04402432


--------------------------------------------------------------------------------------------------------




--------------------------------------- Iteration      1(   2)  ---------------------------------------


     EDDAV:  cpu time   18.1503: real time   18.4013
 BZINTS: Fermi energy:  1.920313;288.000000 electrons
         Band energy:***********;  BLOECHL correction:  0.000000
       DOS:  cpu time    0.0119: real time    0.0119
    --------------------------------------------
      LOOP:  cpu time   18.1622: real time   18.4132

 eigenvalue-minimisations  : 10480
 total energy-change (2. order) :-0.2012755E+04  (-0.1952892E+04)
 number of electron     287.9999996 magnetization 
 augmentation part      287.9999996 magnetization 

 Free energy of the ion-electron system (eV)
  ---------------------------------------------------
  alpha Z        PSCENC =       515.29618416
  Ewald energy   TEWEN  =     44929.74495993
  -Hartree energ DENC   =    -58274.32057797
  -exchange      EXHF   =         0.00000000
  -V(xc)+E(xc)   XCENC  =        96.95542034
  PAW double counting   =      7735.37882299    -7146.49745873
  entropy T*S    EENTRO =         0.00000000
  eigenvalues    EBANDS =     -2294.57090448
  atomic energy  EATOM  =     14538.30290828
  Solvation  Ediel_sol  =         0.00000000
  ---------------------------------------------------
  free energy    TOTEN  =       100.28935452 eV

  energy without entropy =      100.28935452  energy(sigma->0) =      100.28935452


--------------------------------------------------------------------------------------------------------




--------------------------------------- Iteration      1(   3)  ---------------------------------------


     EDDAV:  cpu time   16.1874: real time   16.4112
 BZINTS: Fermi energy:  0.291250;288.000000 electrons
         Band energy:***********;  BLOECHL correction:  0.000000
       DOS:  cpu time    0.0107: real time    0.0107
    --------------------------------------------
      LOOP:  cpu time   16.1981: real time   16.4219

 eigenvalue-minimisations  :  9104
 total energy-change (2. order) :-0.2766374E+03  (-0.2742055E+03)
 number of electron     287.9999996 magnetization 
 augmentation part      287.9999996 magnetization 

 Free energy of the ion-electron system (eV)
  ---------------------------------------------------
  alpha Z        PSCENC =       515.29618416
  Ewald energy   TEWEN  =     44929.74495993
  -Hartree energ DENC   =    -58274.32057797
  -exchange      EXHF   =         0.00000000
  -V(xc)+E(xc)   XCENC  =        96.95542034
  PAW double counting   =      7735.37882299    -7146.49745873
  entropy T*S    EENTRO =         0.00000000
  eigenvalues    EBANDS =     -2571.20831951
  atomic energy  EATOM  =     14538.30290828
  Solvation  Ediel_sol  =         0.00000000
  ---------------------------------------------------
  free energy    TOTEN  =      -176.34806051 eV

  energy without entropy =     -176.34806051  energy(sigma->0) =     -176.34806051


--------------------------------------------------------------------------------------------------------




--------------------------------------- Iteration      1(   4)  ---------------------------------------


     EDDAV:  cpu time   18.4477: real time   18.7024
 BZINTS: Fermi energy:  0.231250;288.000000 electrons
         Band energy:***********;  BLOECHL correction:  0.000000
       DOS:  cpu time    0.0112: real time    0.0112
    --------------------------------------------
      LOOP:  cpu time   18.4589: real time   18.7136

 eigenvalue-minimisations  : 10736
 total energy-change (2. order) :-0.1172631E+02  (-0.1167901E+02)
 number of electron     287.9999996 magnetization 
 augmentation part      287.9999996 magnetization 

 Free energy of the ion-electron system (eV)
  ---------------------------------------------------
  alpha Z        PSCENC =       515.29618416
  Ewald energy   TEWEN  =     44929.74495993
  -Hartree energ DENC   =    -58274.32057797
  -exchange      EXHF   =         0.00000000
  -V(xc)+E(xc)   XCENC  =        96.95542034
  PAW double counting   =      7735.37882299    -7146.49745873
  entropy T*S    EENTRO =         0.00000000
  eigenvalues    EBANDS =     -2582.93463287
  atomic energy  EATOM  =     14538.30290828
  Solvation  Ediel_sol  =         0.00000000
  ---------------------------------------------------
  free energy    TOTEN  =      -188.07437387 eV

  energy without entropy =     -188.07437387  energy(sigma->0) =     -188.07437387


--------------------------------------------------------------------------------------------------------




--------------------------------------- Iteration      1(   5)  ---------------------------------------


     EDDAV:  cpu time   19.6370: real time   19.9088
 BZINTS: Fermi energy:  0.222500;288.000000 electrons
         Band energy:***********;  BLOECHL correction:  0.000000
       DOS:  cpu time    0.0125: real time    0.0125
    --------------------------------------------
      LOOP:  cpu time   19.6495: real time   19.9213

 eigenvalue-minimisations  : 11640
 total energy-change (2. order) :-0.5214340E+00  (-0.5211367E+00)
 number of electron     287.9999996 magnetization 
 augmentation part      287.9999996 magnetization 

 Free energy of the ion-electron system (eV)
  ---------------------------------------------------
  alpha Z        PSCENC =       515.29618416
  Ewald energy   TEWEN  =     44929.74495993
  -Hartree energ DENC   =    -58274.32057797
  -exchange      EXHF   =         0.00000000
  -V(xc)+E(xc)   XCENC  =        96.95542034
  PAW double counting   =      7735.37882299    -7146.49745873
  entropy T*S    EENTRO =         0.00000000
  eigenvalues    EBANDS =     -2583.45606691
  atomic energy  EATOM  =     14538.30290828
  Solvation  Ediel_sol  =         0.00000000
  ---------------------------------------------------
  free energy    TOTEN  =      -188.59580791 eV

  energy without entropy =     -188.59580791  energy(sigma->0) =     -188.59580791


--------------------------------------------------------------------------------------------------------




--------------------------------------- Iteration      1(   6)  ---------------------------------------


     EDDAV:  cpu time   18.0600: real time   18.3101
 BZINTS: Fermi energy:  0.222500;288.000000 electrons
         Band energy:***********;  BLOECHL correction:  0.000000
       DOS:  cpu time    0.0129: real time    0.0130
    --------------------------------------------
      LOOP:  cpu time   18.0730: real time   18.3230

 eigenvalue-minimisations  : 10440
 total energy-change (2. order) :-0.1185105E-01  (-0.1184763E-01)
 number of electron     287.9999996 magnetization 
 augmentation part      287.9999996 magnetization 

 Free energy of the ion-electron system (eV)
  ---------------------------------------------------
  alpha Z        PSCENC =       515.29618416
  Ewald energy   TEWEN  =     44929.74495993
  -Hartree energ DENC   =    -58274.32057797
  -exchange      EXHF   =         0.00000000
  -V(xc)+E(xc)   XCENC  =        96.95542034
  PAW double counting   =      7735.37882299    -7146.49745873
  entropy T*S    EENTRO =         0.00000000
  eigenvalues    EBANDS =     -2583.46791796
  atomic energy  EATOM  =     14538.30290828
  Solvation  Ediel_sol  =         0.00000000
  ---------------------------------------------------
  free energy    TOTEN  =      -188.60765896 eV

  energy without entropy =     -188.60765896  energy(sigma->0) =     -188.60765896


--------------------------------------------------------------------------------------------------------




--------------------------------------- Iteration      1(   7)  ---------------------------------------


     EDDAV:  cpu time   19.6052: real time   19.8774
 BZINTS: Fermi energy:  0.222500;288.000000 electrons
         Band energy:***********;  BLOECHL correction:  0.000000
       DOS:  cpu time    0.0128: real time    0.0128
    --------------------------------------------
      LOOP:  cpu time   19.6180: real time   19.8902

 eigenvalue-minimisations  : 11648
 total energy-change (2. order) :-0.5302585E-03  (-0.5301598E-03)
 number of electron     287.9999996 magnetization 
 augmentation part      287.9999996 magnetization 

 Free energy of the ion-electron system (eV)
  ---------------------------------------------------
  alpha Z        PSCENC =       515.29618416
  Ewald energy   TEWEN  =     44929.74495993
  -Hartree energ DENC   =    -58274.32057797
  -exchange      EXHF   =         0.00000000
  -V(xc)+E(xc)   XCENC  =        96.95542034
  PAW double counting   =      7735.37882299    -7146.49745873
  entropy T*S    EENTRO =         0.00000000
  eigenvalues    EBANDS =     -2583.46844822
  atomic energy  EATOM  =     14538.30290828
  Solvation  Ediel_sol  =         0.00000000
  ---------------------------------------------------
  free energy    TOTEN  =      -188.60818922 eV

  energy without entropy =     -188.60818922  energy(sigma->0) =     -188.60818922


--------------------------------------------------------------------------------------------------------




--------------------------------------- Iteration      1(   8)  ---------------------------------------


     EDDAV:  cpu time   17.0821: real time   17.3173
 BZINTS: Fermi energy:  0.222500;288.000000 electrons
         Band energy:***********;  BLOECHL correction:  0.000000
       DOS:  cpu time    0.0115: real time    0.0116
    --------------------------------------------
      LOOP:  cpu time   17.0936: real time   17.3289

 eigenvalue-minimisations  :  9768
 total energy-change (2. order) :-0.2132659E-04  (-0.2132381E-04)
 number of electron     287.9999996 magnetization 
 augmentation part      287.9999996 magnetization 

 Free energy of the ion-electron system (eV)
  ---------------------------------------------------
  alpha Z        PSCENC =       515.29618416
  Ewald energy   TEWEN  =     44929.74495993
  -Hartree energ DENC   =    -58274.32057797
  -exchange      EXHF   =         0.00000000
  -V(xc)+E(xc)   XCENC  =        96.95542034
  PAW double counting   =      7735.37882299    -7146.49745873
  entropy T*S    EENTRO =         0.00000000
  eigenvalues    EBANDS =     -2583.46846955
  atomic energy  EATOM  =     14538.30290828
  Solvation  Ediel_sol  =         0.00000000
  ---------------------------------------------------
  free energy    TOTEN  =      -188.60821055 eV

  energy without entropy =     -188.60821055  energy(sigma->0) =     -188.60821055


--------------------------------------------------------------------------------------------------------




--------------------------------------- Iteration      1(   9)  ---------------------------------------


     EDDAV:  cpu time   15.3203: real time   15.5317
 BZINTS: Fermi energy:  0.222500;288.000000 electrons
         Band energy:***********;  BLOECHL correction:  0.000000
       DOS:  cpu time    0.0103: real time    0.0103
    --------------------------------------------
      LOOP:  cpu time   15.3305: real time   15.5420

 eigenvalue-minimisations  :  8448
 total energy-change (2. order) :-0.1110238E-05  (-0.1110183E-05)
 number of electron     287.9999996 magnetization 
 augmentation part      287.9999996 magnetization 

 Free energy of the ion-electron system (eV)
  ---------------------------------------------------
  alpha Z        PSCENC =       515.29618416
  Ewald energy   TEWEN  =     44929.74495993
  -Hartree energ DENC   =    -58274.32057797
  -exchange      EXHF   =         0.00000000
  -V(xc)+E(xc)   XCENC  =        96.95542034
  PAW double counting   =      7735.37882299    -7146.49745873
  entropy T*S    EENTRO =         0.00000000
  eigenvalues    EBANDS =     -2583.46847066
  atomic energy  EATOM  =     14538.30290828
  Solvation  Ediel_sol  =         0.00000000
  ---------------------------------------------------
  free energy    TOTEN  =      -188.60821166 eV

  energy without entropy =     -188.60821166  energy(sigma->0) =     -188.60821166


--------------------------------------------------------------------------------------------------------




--------------------------------------- Iteration      1(  10)  ---------------------------------------


     EDDAV:  cpu time   11.4224: real time   11.5801
 BZINTS: Fermi energy:  0.222500;288.000000 electrons
         Band energy:***********;  BLOECHL correction:  0.000000
       DOS:  cpu time    0.0115: real time    0.0115
    --------------------------------------------
      LOOP:  cpu time   11.4339: real time   11.5915

 eigenvalue-minimisations  :  5592
 total energy-change (2. order) :-0.5458423E-07  (-0.5467270E-07)
 number of electron     287.9999996 magnetization 
 augmentation part      287.9999996 magnetization 

 Free energy of the ion-electron system (eV)
  ---------------------------------------------------
  alpha Z        PSCENC =       515.29618416
  Ewald energy   TEWEN  =     44929.74495993
  -Hartree energ DENC   =    -58274.32057797
  -exchange      EXHF   =         0.00000000
  -V(xc)+E(xc)   XCENC  =        96.95542034
  PAW double counting   =      7735.37882299    -7146.49745873
  entropy T*S    EENTRO =         0.00000000
  eigenvalues    EBANDS =     -2583.46847071
  atomic energy  EATOM  =     14538.30290828
  Solvation  Ediel_sol  =         0.00000000
  ---------------------------------------------------
  free energy    TOTEN  =      -188.60821171 eV

  energy without entropy =     -188.60821171  energy(sigma->0) =     -188.60821171


--------------------------------------------------------------------------------------------------------




 average (electrostatic) potential at core
  the test charge radii are     1.2192  0.9892
  (the norm of the test charge is              1.0000)
       1 -40.3094       2 -40.3089       3 -39.1332       4 -39.0597       5 -39.1028
       6 -39.1030       7 -39.0597       8 -39.1329       9 -39.2863      10 -39.2859
      11 -39.2577      12 -39.2901      13 -39.1887      14 -39.1888      15 -39.2901
      16 -39.2573      17 -87.9846      18 -87.9844      19 -88.2620      20 -88.3178
      21 -87.9844      22 -87.9846      23 -88.3174      24 -88.2613      25 -88.2678
      26 -88.2675      27 -88.3176      28 -88.2617      29 -88.2670      30 -88.2673
      31 -88.2611      32 -88.3174      33 -88.3609      34 -88.3606      35 -87.9552
      36 -88.3391      37 -88.4126      38 -88.4126      39 -88.3393      40 -87.9551
      41 -87.9675      42 -87.9672      43 -88.3470      44 -88.2631      45 -88.2594
      46 -88.2594      47 -88.2631      48 -88.3466
 
 
 
 E-fermi :   0.2225     XC(G=0):  -5.5491     alpha+bet : -5.8120


 k-point     1 :       0.0000    0.0000    0.0000
  band No.  band energies     occupation 
      1     -28.1658      2.00000
      2     -28.1653      2.00000
      3     -27.1816      2.00000
      4     -27.1813      2.00000
      5     -27.1728      2.00000
      6     -27.1723      2.00000
      7     -27.1456      2.00000
      8     -27.1453      2.00000
      9     -27.0804      2.00000
     10     -27.0746      2.00000
     11     -27.0270      2.00000
     12     -27.0267      2.00000
     13     -27.0160      2.00000
     14     -27.0157      2.00000
     15     -26.9716      2.00000
     16     -26.9715      2.00000
     17     -13.5411      2.00000
     18     -13.5406      2.00000
     19     -13.4679      2.00000
     20     -13.4674      2.00000
     21     -13.3785      2.00000
     22     -13.3780      2.00000
     23     -12.7895      2.00000
     24     -12.7857      2.00000
     25     -12.7150      2.00000
     26     -12.6746      2.00000
     27     -12.6626      2.00000
     28     -12.6507      2.00000
     29     -12.6272      2.00000
     30     -12.6173      2.00000
     31     -12.5866      2.00000
     32     -12.5804      2.00000
     33     -12.5662      2.00000
     34     -12.5568      2.00000
     35     -12.5557      2.00000
     36     -12.5368      2.00000
     37     -12.5337      2.00000
     38     -12.5301      2.00000
     39     -12.5179      2.00000
     40     -12.5073      2.00000
     41     -12.5036      2.00000
     42     -12.5006      2.00000
     43     -12.4986      2.00000
     44     -12.4908      2.00000
     45     -12.4868      2.00000
     46     -12.4414      2.00000
     47     -12.4377      2.00000
     48     -12.4082      2.00000
     49     -12.3523      2.00000
     50     -12.3461      2.00000
     51     -12.3243      2.00000
     52     -12.3231      2.00000
     53     -12.3223      2.00000
     54     -12.3130      2.00000
     55     -12.3061      2.00000
     56     -12.2910      2.00000
     57     -12.2867      2.00000
     58     -12.2835      2.00000
     59     -12.2718      2.00000
     60     -12.2689      2.00000
     61     -12.2672      2.00000
     62     -12.2666      2.00000
     63     -12.2541      2.00000
     64     -12.2515      2.00000
     65     -10.3747      2.00000
     66     -10.2279      2.00000
     67     -10.1377      2.00000
     68     -10.1184      2.00000
     69     -10.1037      2.00000
     70     -10.1012      2.00000
     71      -9.7283      2.00000
     72      -9.7281      2.00000
     73      -5.7866      2.00000
     74      -5.7164      2.00000
     75      -5.6208      2.00000
     76      -5.4922      2.00000
     77      -5.4864      2.00000
     78      -5.4310      2.00000
     79      -5.4019      2.00000
     80      -5.3833      2.00000
     81      -5.3256      2.00000
     82      -5.3253      2.00000
     83      -5.3232      2.00000
     84      -5.2741      2.00000
     85      -5.2730      2.00000
     86      -5.2561      2.00000
     87      -5.2139      2.00000
     88      -5.2062      2.00000
     89      -5.1986      2.00000
     90      -5.1569      2.00000
     91      -5.0344      2.00000
     92      -5.0168      2.00000
     93      -4.9665      2.00000
     94      -4.9080      2.00000
     95      -4.6888      2.00000
     96      -4.6885      2.00000
     97      -3.0054      2.00000
     98      -2.5919      2.00000
     99      -2.2753      2.00000
    100      -2.0905      2.00000
    101      -2.0512      2.00000
    102      -2.0376      2.00000
    103      -1.9102      2.00000
    104      -1.7266      2.00000
    105      -1.6818      2.00000
    106      -1.5510      2.00000
    107      -1.4660      2.00000
    108      -1.3902      2.00000
    109      -1.2995      2.00000
    110      -1.2786      2.00000
    111      -1.2578      2.00000
    112      -1.1502      2.00000
    113      -1.1215      2.00000
    114      -1.1107      2.00000
    115      -1.0835      2.00000
    116      -1.0760      2.00000
    117      -1.0051      2.00000
    118      -0.9865      2.00000
    119      -0.9591      2.00000
    120      -0.9405      2.00000
    121      -0.9149      2.00000
    122      -0.7611      2.00000
    123      -0.7579      2.00000
    124      -0.7054      2.00000
    125      -0.6655      2.00000
    126      -0.6616      2.00000
    127      -0.6455      2.00000
    128      -0.5871      2.00000
    129      -0.5856      2.00000
    130      -0.5763      2.00000
    131      -0.5114      2.00000
    132      -0.3483      2.00000
    133      -0.3074      2.00000
    134      -0.2716      2.00000
    135      -0.2558      2.00000
    136      -0.2146      2.00000
    137      -0.1960      2.00000
    138      -0.1260      2.00000
    139      -0.0881      2.00000
    140      -0.0191      2.00000
    141       0.0768      2.00000
    142       0.1036      2.00000
    143       0.1382      2.00000
    144       0.1890      2.00000
    145       1.3932      0.00000
    146       1.4970      0.00000
    147       1.5751      0.00000
    148       1.5897      0.00000
    149       1.6543      0.00000
    150       1.6611      0.00000
    151       1.6620      0.00000
    152       1.7000      0.00000
    153       1.8226      0.00000
    154       1.8564      0.00000
    155       1.9173      0.00000
    156       1.9201      0.00000
    157       2.0303      0.00000
    158       2.0685      0.00000
    159       2.1241      0.00000
    160       2.2527      0.00000
    161       2.2571      0.00000
    162       2.2770      0.00000
    163       2.2829      0.00000
    164       2.3858      0.00000
    165       2.5795      0.00000
    166       2.6244      0.00000
    167       2.6269      0.00000
    168       2.6971      0.00000
    169       2.7807      0.00000
    170       2.8281      0.00000
    171       2.8482      0.00000
    172       2.9975      0.00000
    173       3.0359      0.00000
    174       3.0745      0.00000
    175       3.0998      0.00000
    176       3.1203      0.00000

 k-point     2 :       0.0000    0.1250    0.0000
  band No.  band energies     occupation 
      1     -28.1657      2.00000
      2     -28.1653      2.00000
      3     -27.1815      2.00000
      4     -27.1812      2.00000
      5     -27.1726      2.00000
      6     -27.1722      2.00000
      7     -27.1454      2.00000
      8     -27.1450      2.00000
      9     -27.0798      2.00000
     10     -27.0745      2.00000
     11     -27.0273      2.00000
     12     -27.0271      2.00000
     13     -27.0163      2.00000
     14     -27.0160      2.00000
     15     -26.9718      2.00000
     16     -26.9716      2.00000
     17     -13.5401      2.00000
     18     -13.5396      2.00000
     19     -13.4688      2.00000
     20     -13.4684      2.00000
     21     -13.3834      2.00000
     22     -13.3829      2.00000
     23     -12.7874      2.00000
     24     -12.7864      2.00000
     25     -12.7221      2.00000
     26     -12.6997      2.00000
     27     -12.6695      2.00000
     28     -12.6355      2.00000
     29     -12.6199      2.00000
     30     -12.6102      2.00000
     31     -12.6040      2.00000
     32     -12.5915      2.00000
     33     -12.5836      2.00000
     34     -12.5719      2.00000
     35     -12.5594      2.00000
     36     -12.5488      2.00000
     37     -12.5479      2.00000
     38     -12.5418      2.00000
     39     -12.5299      2.00000
     40     -12.5172      2.00000
     41     -12.5113      2.00000
     42     -12.5043      2.00000
     43     -12.4754      2.00000
     44     -12.4718      2.00000
     45     -12.4686      2.00000
     46     -12.4468      2.00000
     47     -12.4133      2.00000
     48     -12.4024      2.00000
     49     -12.3519      2.00000
     50     -12.3494      2.00000
     51     -12.3272      2.00000
     52     -12.3263      2.00000
     53     -12.3175      2.00000
     54     -12.3137      2.00000
     55     -12.2963      2.00000
     56     -12.2890      2.00000
     57     -12.2841      2.00000
     58     -12.2809      2.00000
     59     -12.2717      2.00000
     60     -12.2690      2.00000
     61     -12.2688      2.00000
     62     -12.2598      2.00000
     63     -12.2537      2.00000
     64     -12.2520      2.00000
     65     -10.3441      2.00000
     66     -10.2115      2.00000
     67     -10.1318      2.00000
     68     -10.1102      2.00000
     69     -10.0998      2.00000
     70     -10.0984      2.00000
     71      -9.7189      2.00000
     72      -9.7188      2.00000
     73      -5.7447      2.00000
     74      -5.6935      2.00000
     75      -5.5983      2.00000
     76      -5.5322      2.00000
     77      -5.4657      2.00000
     78      -5.4137      2.00000
     79      -5.3838      2.00000
     80      -5.3659      2.00000
     81      -5.3502      2.00000
     82      -5.3355      2.00000
     83      -5.3212      2.00000
     84      -5.3063      2.00000
     85      -5.2827      2.00000
     86      -5.2415      2.00000
     87      -5.2326      2.00000
     88      -5.2130      2.00000
     89      -5.1900      2.00000
     90      -5.1840      2.00000
     91      -5.0128      2.00000
     92      -5.0016      2.00000
     93      -4.9537      2.00000
     94      -4.9102      2.00000
     95      -4.7317      2.00000
     96      -4.7241      2.00000
     97      -2.8653      2.00000
     98      -2.4844      2.00000
     99      -2.1925      2.00000
    100      -2.0143      2.00000
    101      -1.9958      2.00000
    102      -1.9825      2.00000
    103      -1.9053      2.00000
    104      -1.6868      2.00000
    105      -1.6851      2.00000
    106      -1.5369      2.00000
    107      -1.4765      2.00000
    108      -1.4550      2.00000
    109      -1.3322      2.00000
    110      -1.2706      2.00000
    111      -1.2247      2.00000
    112      -1.1952      2.00000
    113      -1.1276      2.00000
    114      -1.1181      2.00000
    115      -1.1054      2.00000
    116      -1.0656      2.00000
    117      -1.0296      2.00000
    118      -0.9711      2.00000
    119      -0.9698      2.00000
    120      -0.9485      2.00000
    121      -0.9262      2.00000
    122      -0.8569      2.00000
    123      -0.7898      2.00000
    124      -0.7228      2.00000
    125      -0.7155      2.00000
    126      -0.6371      2.00000
    127      -0.6336      2.00000
    128      -0.5615      2.00000
    129      -0.5593      2.00000
    130      -0.5225      2.00000
    131      -0.4932      2.00000
    132      -0.3631      2.00000
    133      -0.3415      2.00000
    134      -0.3085      2.00000
    135      -0.2993      2.00000
    136      -0.2271      2.00000
    137      -0.2179      2.00000
    138      -0.1782      2.00000
    139      -0.1206      2.00000
    140      -0.0567      2.00000
    141       0.0844      2.00000
    142       0.0941      2.00000
    143       0.2015      2.00000
    144       0.2034      2.00000
    145       1.3537      0.00000
    146       1.3846      0.00000
    147       1.4855      0.00000
    148       1.5297      0.00000
    149       1.6295      0.00000
    150       1.6389      0.00000
    151       1.7397      0.00000
    152       1.7420      0.00000
    153       1.8163      0.00000
    154       1.8266      0.00000
    155       1.8912      0.00000
    156       1.9947      0.00000
    157       2.0154      0.00000
    158       2.0379      0.00000
    159       2.1095      0.00000
    160       2.1874      0.00000
    161       2.1877      0.00000
    162       2.2512      0.00000
    163       2.3573      0.00000
    164       2.4763      0.00000
    165       2.5259      0.00000
    166       2.5712      0.00000
    167       2.6377      0.00000
    168       2.7055      0.00000
    169       2.7768      0.00000
    170       2.7959      0.00000
    171       2.8486      0.00000
    172       2.9086      0.00000
    173       2.9198      0.00000
    174       3.0254      0.00000
    175       3.0474      0.00000
    176       3.1788      0.00000

 k-point     3 :       0.0000    0.2500    0.0000
  band No.  band energies     occupation 
      1     -28.1657      2.00000
      2     -28.1652      2.00000
      3     -27.1813      2.00000
      4     -27.1810      2.00000
      5     -27.1722      2.00000
      6     -27.1718      2.00000
      7     -27.1448      2.00000
      8     -27.1444      2.00000
      9     -27.0785      2.00000
     10     -27.0743      2.00000
     11     -27.0282      2.00000
     12     -27.0279      2.00000
     13     -27.0169      2.00000
     14     -27.0166      2.00000
     15     -26.9721      2.00000
     16     -26.9720      2.00000
     17     -13.5374      2.00000
     18     -13.5370      2.00000
     19     -13.4712      2.00000
     20     -13.4707      2.00000
     21     -13.3952      2.00000
     22     -13.3947      2.00000
     23     -12.7883      2.00000
     24     -12.7833      2.00000
     25     -12.7334      2.00000
     26     -12.7188      2.00000
     27     -12.6770      2.00000
     28     -12.6556      2.00000
     29     -12.6531      2.00000
     30     -12.6209      2.00000
     31     -12.6207      2.00000
     32     -12.6173      2.00000
     33     -12.5880      2.00000
     34     -12.5874      2.00000
     35     -12.5749      2.00000
     36     -12.5702      2.00000
     37     -12.5557      2.00000
     38     -12.5469      2.00000
     39     -12.5430      2.00000
     40     -12.5335      2.00000
     41     -12.5075      2.00000
     42     -12.4962      2.00000
     43     -12.4705      2.00000
     44     -12.4649      2.00000
     45     -12.4427      2.00000
     46     -12.4412      2.00000
     47     -12.3932      2.00000
     48     -12.3894      2.00000
     49     -12.3602      2.00000
     50     -12.3558      2.00000
     51     -12.3335      2.00000
     52     -12.3204      2.00000
     53     -12.3053      2.00000
     54     -12.2997      2.00000
     55     -12.2876      2.00000
     56     -12.2868      2.00000
     57     -12.2801      2.00000
     58     -12.2767      2.00000
     59     -12.2651      2.00000
     60     -12.2629      2.00000
     61     -12.2623      2.00000
     62     -12.2563      2.00000
     63     -12.2548      2.00000
     64     -12.2486      2.00000
     65     -10.2699      2.00000
     66     -10.1733      2.00000
     67     -10.1194      2.00000
     68     -10.1020      2.00000
     69     -10.0861      2.00000
     70     -10.0844      2.00000
     71      -9.6954      2.00000
     72      -9.6952      2.00000
     73      -5.6512      2.00000
     74      -5.6392      2.00000
     75      -5.5858      2.00000
     76      -5.5784      2.00000
     77      -5.4629      2.00000
     78      -5.4484      2.00000
     79      -5.3948      2.00000
     80      -5.3888      2.00000
     81      -5.3464      2.00000
     82      -5.3254      2.00000
     83      -5.3144      2.00000
     84      -5.2954      2.00000
     85      -5.2753      2.00000
     86      -5.2717      2.00000
     87      -5.2310      2.00000
     88      -5.2029      2.00000
     89      -5.1733      2.00000
     90      -5.1663      2.00000
     91      -4.9726      2.00000
     92      -4.9657      2.00000
     93      -4.9289      2.00000
     94      -4.9127      2.00000
     95      -4.8147      2.00000
     96      -4.8035      2.00000
     97      -2.5452      2.00000
     98      -2.2262      2.00000
     99      -1.9921      2.00000
    100      -1.9208      2.00000
    101      -1.8657      2.00000
    102      -1.8551      2.00000
    103      -1.8126      2.00000
    104      -1.7639      2.00000
    105      -1.6170      2.00000
    106      -1.5274      2.00000
    107      -1.4428      2.00000
    108      -1.4249      2.00000
    109      -1.3643      2.00000
    110      -1.3152      2.00000
    111      -1.2918      2.00000
    112      -1.2414      2.00000
    113      -1.1569      2.00000
    114      -1.1553      2.00000
    115      -1.0973      2.00000
    116      -1.0765      2.00000
    117      -1.0459      2.00000
    118      -1.0273      2.00000
    119      -0.9834      2.00000
    120      -0.9793      2.00000
    121      -0.9761      2.00000
    122      -0.9209      2.00000
    123      -0.8416      2.00000
    124      -0.7744      2.00000
    125      -0.7378      2.00000
    126      -0.6399      2.00000
    127      -0.6256      2.00000
    128      -0.5690      2.00000
    129      -0.5449      2.00000
    130      -0.5412      2.00000
    131      -0.5213      2.00000
    132      -0.4596      2.00000
    133      -0.4116      2.00000
    134      -0.3977      2.00000
    135      -0.3253      2.00000
    136      -0.2855      2.00000
    137      -0.2133      2.00000
    138      -0.1879      2.00000
    139      -0.1438      2.00000
    140      -0.0233      2.00000
    141       0.0586      2.00000
    142       0.0608      2.00000
    143       0.1798      2.00000
    144       0.2213      2.00000
    145       1.2593      0.00000
    146       1.3367      0.00000
    147       1.4234      0.00000
    148       1.4263      0.00000
    149       1.5503      0.00000
    150       1.5908      0.00000
    151       1.6611      0.00000
    152       1.6965      0.00000
    153       1.7748      0.00000
    154       1.8615      0.00000
    155       1.9017      0.00000
    156       1.9693      0.00000
    157       2.0205      0.00000
    158       2.0576      0.00000
    159       2.0891      0.00000
    160       2.1459      0.00000
    161       2.1861      0.00000
    162       2.2902      0.00000
    163       2.3495      0.00000
    164       2.3588      0.00000
    165       2.4621      0.00000
    166       2.4837      0.00000
    167       2.5408      0.00000
    168       2.6068      0.00000
    169       2.6276      0.00000
    170       2.7121      0.00000
    171       2.7507      0.00000
    172       2.7575      0.00000
    173       2.7888      0.00000
    174       2.8711      0.00000
    175       2.8962      0.00000
    176       3.0023      0.00000

 k-point     4 :       0.0000    0.3750    0.0000
  band No.  band energies     occupation 
      1     -28.1656      2.00000
      2     -28.1652      2.00000
      3     -27.1811      2.00000
      4     -27.1808      2.00000
      5     -27.1718      2.00000
      6     -27.1716      2.00000
      7     -27.1441      2.00000
      8     -27.1438      2.00000
      9     -27.0767      2.00000
     10     -27.0745      2.00000
     11     -27.0290      2.00000
     12     -27.0287      2.00000
     13     -27.0176      2.00000
     14     -27.0173      2.00000
     15     -26.9724      2.00000
     16     -26.9723      2.00000
     17     -13.5345      2.00000
     18     -13.5340      2.00000
     19     -13.4736      2.00000
     20     -13.4731      2.00000
     21     -13.4069      2.00000
     22     -13.4065      2.00000
     23     -12.7847      2.00000
     24     -12.7779      2.00000
     25     -12.7380      2.00000
     26     -12.7266      2.00000
     27     -12.6974      2.00000
     28     -12.6926      2.00000
     29     -12.6757      2.00000
     30     -12.6542      2.00000
     31     -12.6503      2.00000
     32     -12.6251      2.00000
     33     -12.6148      2.00000
     34     -12.5938      2.00000
     35     -12.5754      2.00000
     36     -12.5750      2.00000
     37     -12.5543      2.00000
     38     -12.5506      2.00000
     39     -12.5410      2.00000
     40     -12.5359      2.00000
     41     -12.5027      2.00000
     42     -12.4896      2.00000
     43     -12.4870      2.00000
     44     -12.4679      2.00000
     45     -12.4279      2.00000
     46     -12.4218      2.00000
     47     -12.3989      2.00000
     48     -12.3883      2.00000
     49     -12.3640      2.00000
     50     -12.3637      2.00000
     51     -12.3212      2.00000
     52     -12.3119      2.00000
     53     -12.2888      2.00000
     54     -12.2880      2.00000
     55     -12.2857      2.00000
     56     -12.2821      2.00000
     57     -12.2731      2.00000
     58     -12.2716      2.00000
     59     -12.2607      2.00000
     60     -12.2597      2.00000
     61     -12.2579      2.00000
     62     -12.2550      2.00000
     63     -12.2501      2.00000
     64     -12.2437      2.00000
     65     -10.1896      2.00000
     66     -10.1363      2.00000
     67     -10.1147      2.00000
     68     -10.1038      2.00000
     69     -10.0678      2.00000
     70     -10.0664      2.00000
     71      -9.6707      2.00000
     72      -9.6704      2.00000
     73      -5.6778      2.00000
     74      -5.6199      2.00000
     75      -5.5870      2.00000
     76      -5.5598      2.00000
     77      -5.5230      2.00000
     78      -5.5075      2.00000
     79      -5.4124      2.00000
     80      -5.3695      2.00000
     81      -5.3182      2.00000
     82      -5.3009      2.00000
     83      -5.2732      2.00000
     84      -5.2453      2.00000
     85      -5.2410      2.00000
     86      -5.2327      2.00000
     87      -5.2023      2.00000
     88      -5.1803      2.00000
     89      -5.1704      2.00000
     90      -5.1605      2.00000
     91      -4.9451      2.00000
     92      -4.9403      2.00000
     93      -4.9002      2.00000
     94      -4.8985      2.00000
     95      -4.8829      2.00000
     96      -4.8735      2.00000
     97      -2.2303      2.00000
     98      -1.9702      2.00000
     99      -1.9207      2.00000
    100      -1.8642      2.00000
    101      -1.7954      2.00000
    102      -1.7364      2.00000
    103      -1.6758      2.00000
    104      -1.6442      2.00000
    105      -1.5874      2.00000
    106      -1.5415      2.00000
    107      -1.4832      2.00000
    108      -1.4599      2.00000
    109      -1.3744      2.00000
    110      -1.3712      2.00000
    111      -1.2766      2.00000
    112      -1.2633      2.00000
    113      -1.2235      2.00000
    114      -1.1501      2.00000
    115      -1.1326      2.00000
    116      -1.0960      2.00000
    117      -1.0776      2.00000
    118      -1.0641      2.00000
    119      -1.0264      2.00000
    120      -0.9901      2.00000
    121      -0.9282      2.00000
    122      -0.9265      2.00000
    123      -0.8783      2.00000
    124      -0.8436      2.00000
    125      -0.7637      2.00000
    126      -0.6982      2.00000
    127      -0.6945      2.00000
    128      -0.6513      2.00000
    129      -0.5944      2.00000
    130      -0.5922      2.00000
    131      -0.5544      2.00000
    132      -0.5435      2.00000
    133      -0.4368      2.00000
    134      -0.3633      2.00000
    135      -0.3121      2.00000
    136      -0.2776      2.00000
    137      -0.1743      2.00000
    138      -0.1527      2.00000
    139      -0.0892      2.00000
    140      -0.0336      2.00000
    141      -0.0230      2.00000
    142       0.0158      2.00000
    143       0.1389      2.00000
    144       0.1689      2.00000
    145       1.1619      0.00000
    146       1.3266      0.00000
    147       1.3772      0.00000
    148       1.3945      0.00000
    149       1.4209      0.00000
    150       1.4914      0.00000
    151       1.5873      0.00000
    152       1.7174      0.00000
    153       1.7903      0.00000
    154       1.8066      0.00000
    155       1.8490      0.00000
[...]
  0.000   0.000   0.000   0.000   0.000   0.000   0.000   0.000   0.000   0.000   0.000   0.000   0.000   0.000   0.000   0.000


------------------------ aborting loop because EDIFF is reached ----------------------------------------


 


 total charge     
 
# of ion       s       p       d       tot
------------------------------------------
    1        2.019   5.567   0.314   7.900
    2        2.019   5.567   0.314   7.900
    3        2.018   5.584   0.319   7.920
    4        2.018   5.587   0.328   7.934
    5        2.017   5.588   0.330   7.935
    6        2.017   5.588   0.330   7.935
    7        2.018   5.587   0.328   7.934
    8        2.018   5.584   0.319   7.920
    9        2.016   5.577   0.337   7.930
   10        2.016   5.577   0.337   7.930
   11        2.012   5.576   0.337   7.925
   12        2.011   5.578   0.326   7.915
   13        2.011   5.578   0.332   7.921
   14        2.011   5.578   0.332   7.921
   15        2.011   5.578   0.326   7.915
   16        2.012   5.576   0.337   7.925
   17        0.829   0.807   0.000   1.636
   18        0.829   0.807   0.000   1.636
   19        0.798   0.867   0.000   1.666
   20        0.804   0.862   0.000   1.666
   21        0.829   0.807   0.000   1.636
   22        0.829   0.807   0.000   1.636
   23        0.804   0.863   0.000   1.666
   24        0.798   0.868   0.000   1.666
   25        0.803   0.863   0.000   1.666
   26        0.803   0.863   0.000   1.666
   27        0.804   0.862   0.000   1.666
   28        0.798   0.868   0.000   1.666
   29        0.803   0.863   0.000   1.666
   30        0.803   0.863   0.000   1.666
   31        0.798   0.868   0.000   1.666
   32        0.804   0.863   0.000   1.666
   33        0.816   0.812   0.000   1.627
   34        0.816   0.812   0.000   1.627
   35        0.806   0.825   0.000   1.631
   36        0.808   0.838   0.000   1.645
   37        0.817   0.816   0.000   1.634
   38        0.817   0.816   0.000   1.634
   39        0.808   0.838   0.000   1.645
   40        0.806   0.825   0.000   1.631
   41        0.787   0.875   0.000   1.662
   42        0.787   0.875   0.000   1.662
   43        0.823   0.801   0.000   1.624
   44        0.802   0.860   0.000   1.663
   45        0.803   0.857   0.000   1.660
   46        0.803   0.857   0.000   1.660
   47        0.802   0.860   0.000   1.663
   48        0.823   0.801   0.000   1.624
--------------------------------------------------
tot         58.105 116.237   5.247 179.589
 
    CHARGE:  cpu time    0.7067: real time    0.7242
    FORLOC:  cpu time    0.0298: real time    0.0299
    FORNL :  cpu time    2.9470: real time    3.0095
    STRESS:  cpu time    8.7914: real time    9.0009
    FORCOR:  cpu time    3.5241: real time    3.5324
    FORHAR:  cpu time    0.0513: real time    0.0515
    OFIELD:  cpu time    0.0002: real time    0.0002

  FORCE on cell =-STRESS in cart. coord.  units (eV):
  Direction    XX          YY          ZZ          XY          YZ          ZX
  --------------------------------------------------------------------------------------
  Alpha Z   515.29618   515.29618   515.29618
  Ewald  -61672.06874 53536.54319 53065.22755    -0.24180    -0.14323   112.18884
  Hartree-55523.36091 57085.82993 56712.51738    -0.12340    -0.03295    79.21530
  E(xc)    -930.94673  -932.43951  -932.52352     0.00093    -0.00040     0.01596
  Local  114167.72559************************     0.37302     0.15935  -187.90319
  n-local   677.30569   678.47000   680.89414    -0.01971     0.00939    -1.29101
  augment  -335.61756  -335.60393  -335.83596     0.00333    -0.00242     0.30734
  Kinetic  3101.56995  3114.19596  3104.37408    -0.05555     0.01931    -2.42823
  Fock        0.00000     0.00000     0.00000     0.00000     0.00000     0.00000
  -------------------------------------------------------------------------------------
  Total      -0.09654    -0.23414    -0.17210    -0.06318     0.00905     0.10501
  in kB      -0.06191    -0.15016    -0.11037    -0.04052     0.00580     0.06734
  external pressure =       -0.11 kB  Pullay stress =        0.00 kB


 VOLUME and BASIS-vectors are now :
 -----------------------------------------------------------------------------
  energy-cutoff  :      500.00
  volume of cell :     2498.23
      direct lattice vectors                 reciprocal lattice vectors
    33.018936157  0.000000000  0.000000000     0.030285652  0.000000000  0.000000000
     0.000000000  6.644062952  0.000000000     0.000000000  0.150510314  0.000000000
     0.000000000  0.000000000 11.387675294     0.000000000  0.000000000  0.087814235

  length of vectors
    33.018936157  6.644062952 11.387675294     0.030285652  0.150510314  0.087814235


 FORCES acting on ions
    electron-ion (+dipol)            ewald-force                    non-local-force                 convergence-correction
 -----------------------------------------------------------------------------------------------
   0.136E+04 -.707E-01 0.348E+02   -.135E+04 0.678E-01 -.337E+02   -.388E+01 0.154E-02 -.112E+01   -.533E-02 0.184E-02 -.217E-02
   -.136E+04 0.707E-01 -.348E+02   0.135E+04 -.678E-01 0.337E+02   0.388E+01 -.154E-02 0.112E+01   0.774E-02 -.120E-02 -.223E-03
   0.838E+03 0.167E+00 -.296E+02   -.838E+03 -.163E+00 0.291E+02   0.615E-02 -.423E-02 0.466E+00   -.172E-01 -.633E-03 -.257E-02
   0.738E+03 -.910E-02 0.267E+01   -.738E+03 0.429E-02 -.202E+01   0.400E+00 0.617E-02 -.655E+00   -.162E-01 -.206E-03 0.100E-02
   -.296E+02 -.604E-01 0.757E+01   0.292E+02 0.578E-01 -.770E+01   0.343E+00 0.473E-02 0.134E+00   0.996E-02 -.133E-02 -.385E-02
   0.296E+02 0.604E-01 -.757E+01   -.292E+02 -.578E-01 0.770E+01   -.343E+00 -.473E-02 -.134E+00   -.852E-02 -.257E-03 0.538E-02
   -.738E+03 0.912E-02 -.267E+01   0.738E+03 -.430E-02 0.202E+01   -.400E+00 -.617E-02 0.655E+00   0.193E-01 0.141E-02 0.109E-03
   -.838E+03 -.167E+00 0.296E+02   0.838E+03 0.163E+00 -.291E+02   -.615E-02 0.423E-02 -.466E+00   0.193E-01 0.106E-02 -.410E-03
   0.122E+04 0.212E+00 -.479E+02   -.122E+04 -.208E+00 0.478E+02   -.969E+00 -.681E-02 0.491E-01   -.363E-02 -.104E-02 -.972E-03
   -.122E+04 -.212E+00 0.479E+02   0.122E+04 0.208E+00 -.478E+02   0.969E+00 0.681E-02 -.491E-01   0.709E-02 -.244E-03 -.122E-02
   0.107E+04 -.653E-01 0.124E+02   -.107E+04 0.652E-01 -.127E+02   -.114E+01 0.102E-02 0.323E+00   -.145E-01 -.423E-03 -.295E-02
   0.512E+03 -.106E-01 0.249E+02   -.513E+03 0.125E-01 -.247E+02   0.724E+00 -.343E-02 -.155E+00   -.938E-02 0.253E-03 0.181E-02
   -.282E+03 0.141E+00 0.199E+01   0.282E+03 -.136E+00 -.190E+01   0.703E+00 -.582E-02 -.849E-01   0.188E-01 0.729E-03 -.540E-02
   0.282E+03 -.141E+00 -.199E+01   -.282E+03 0.136E+00 0.190E+01   -.703E+00 0.582E-02 0.849E-01   -.166E-01 0.132E-03 0.253E-02
   -.512E+03 0.107E-01 -.249E+02   0.513E+03 -.125E-01 0.247E+02   -.724E+00 0.343E-02 0.155E+00   0.128E-01 -.182E-02 0.728E-03
   -.107E+04 0.653E-01 -.124E+02   0.107E+04 -.652E-01 0.127E+02   0.114E+01 -.102E-02 -.323E+00   0.160E-01 -.719E-03 0.516E-03
   0.543E+03 0.358E+02 -.442E+02   -.543E+03 -.373E+02 0.450E+02   -.355E+00 0.151E+01 -.838E+00   -.341E-02 0.146E-03 0.658E-03
   -.543E+03 -.358E+02 0.442E+02   0.543E+03 0.373E+02 -.450E+02   0.355E+00 -.151E+01 0.838E+00   0.413E-02 0.431E-03 -.539E-03
   0.407E+03 -.290E+02 0.816E+01   -.406E+03 0.301E+02 -.739E+01   -.558E+00 -.117E+01 -.764E+00   -.588E-02 -.325E-03 0.431E-03
   0.207E+03 0.326E+02 0.171E+02   -.208E+03 -.339E+02 -.179E+02   0.599E+00 0.130E+01 0.734E+00   -.443E-02 -.140E-03 -.563E-03
   -.543E+03 0.358E+02 0.441E+02   0.543E+03 -.373E+02 -.450E+02   0.354E+00 0.151E+01 0.839E+00   0.367E-02 -.517E-03 -.622E-03
   0.543E+03 -.358E+02 -.441E+02   -.543E+03 0.373E+02 0.450E+02   -.354E+00 -.151E+01 -.839E+00   -.296E-02 -.817E-04 0.628E-03
   0.207E+03 -.326E+02 0.171E+02   -.208E+03 0.339E+02 -.179E+02   0.587E+00 -.129E+01 0.741E+00   -.427E-02 0.636E-04 -.833E-03
   0.407E+03 0.289E+02 0.817E+01   -.406E+03 -.301E+02 -.741E+01   -.559E+00 0.117E+01 -.769E+00   -.637E-02 0.154E-03 0.547E-03
   -.102E+03 0.297E+02 -.174E+02   0.102E+03 -.311E+02 0.182E+02   0.503E+00 0.137E+01 -.773E+00   0.569E-02 0.531E-03 0.245E-03
   0.102E+03 -.297E+02 0.174E+02   -.102E+03 0.311E+02 -.182E+02   -.503E+00 -.137E+01 0.773E+00   -.565E-02 -.452E-03 -.427E-03
   -.207E+03 -.326E+02 -.171E+02   0.208E+03 0.339E+02 0.179E+02   -.599E+00 -.130E+01 -.734E+00   0.481E-02 0.528E-03 0.897E-03
   -.407E+03 0.290E+02 -.816E+01   0.406E+03 -.301E+02 0.739E+01   0.558E+00 0.117E+01 0.764E+00   0.590E-02 0.210E-04 0.802E-05
   0.102E+03 0.299E+02 0.174E+02   -.102E+03 -.312E+02 -.182E+02   -.500E+00 0.136E+01 0.770E+00   -.587E-02 0.649E-03 -.377E-03
   -.102E+03 -.299E+02 -.174E+02   0.102E+03 0.312E+02 0.182E+02   0.500E+00 -.136E+01 -.770E+00   0.514E-02 -.766E-03 0.330E-04
   -.407E+03 -.289E+02 -.817E+01   0.406E+03 0.301E+02 0.741E+01   0.559E+00 -.117E+01 0.769E+00   0.647E-02 0.297E-04 0.403E-04
   -.207E+03 0.326E+02 -.171E+02   0.208E+03 -.339E+02 0.179E+02   -.587E+00 0.129E+01 -.741E+00   0.490E-02 -.283E-03 0.106E-02
   0.577E+03 0.225E-01 0.327E+02   -.578E+03 -.208E-01 -.323E+02   0.168E+01 -.193E-02 -.457E+00   -.244E-02 -.487E-03 -.263E-03
   -.577E+03 -.225E-01 -.327E+02   0.578E+03 0.208E-01 0.323E+02   -.168E+01 0.193E-02 0.457E+00   0.277E-02 0.411E-03 -.153E-03
   0.334E+03 -.851E-01 -.139E+02   -.331E+03 0.792E-01 0.133E+02   -.213E+01 0.596E-02 0.561E+00   -.565E-02 0.277E-03 0.666E-03
   0.286E+03 0.275E-01 -.509E+01   -.288E+03 -.313E-01 0.566E+01   0.196E+01 0.583E-03 -.571E+00   -.630E-02 -.224E-04 0.593E-03
   -.118E+02 -.749E-02 0.126E+01   0.997E+01 0.498E-02 -.205E+01   0.183E+01 0.268E-02 0.784E+00   0.157E-02 0.295E-03 0.241E-03
   0.118E+02 0.749E-02 -.126E+01   -.997E+01 -.498E-02 0.205E+01   -.183E+01 -.268E-02 -.784E+00   -.229E-02 -.878E-04 0.136E-03
   -.286E+03 -.275E-01 0.509E+01   0.288E+03 0.313E-01 -.566E+01   -.196E+01 -.583E-03 0.571E+00   0.668E-02 -.301E-03 -.824E-03
   -.334E+03 0.851E-01 0.139E+02   0.331E+03 -.792E-01 -.133E+02   0.213E+01 -.596E-02 -.561E+00   0.512E-02 -.233E-03 -.670E-03
   0.520E+03 -.123E+00 0.207E+01   -.520E+03 0.114E+00 -.366E+01   0.163E+00 0.101E-01 0.159E+01   -.356E-02 0.145E-03 0.401E-03
   -.520E+03 0.123E+00 -.207E+01   0.520E+03 -.114E+00 0.366E+01   -.163E+00 -.101E-01 -.159E+01   0.449E-02 -.392E-04 0.404E-04
   0.474E+03 0.185E-01 0.657E+02   -.473E+03 -.188E-01 -.678E+02   -.591E+00 -.498E-03 0.209E+01   -.576E-02 -.116E-03 -.333E-03
   0.199E+03 -.822E-02 -.302E+02   -.199E+03 0.106E-01 0.319E+02   0.574E-01 -.108E-04 -.170E+01   -.430E-02 -.250E-03 -.868E-03
   -.115E+03 -.760E-01 0.386E+02   0.115E+03 0.716E-01 -.402E+02   0.386E-01 0.732E-02 0.158E+01   0.660E-02 -.133E-03 -.102E-02
   0.115E+03 0.760E-01 -.386E+02   -.115E+03 -.716E-01 0.402E+02   -.386E-01 -.732E-02 -.158E+01   -.685E-02 0.777E-04 0.402E-03
   -.199E+03 0.822E-02 0.302E+02   0.199E+03 -.106E-01 -.319E+02   -.574E-01 0.108E-04 0.170E+01   0.503E-02 0.451E-03 0.106E-02
   -.474E+03 -.185E-01 -.657E+02   0.473E+03 0.188E-01 0.678E+02   0.591E+00 0.498E-03 -.209E+01   0.498E-02 0.133E-03 0.633E-03
 -----------------------------------------------------------------------------------------------
   -.120E-02 0.251E-03 -.120E-02   -.159E-11 0.237E-13 -.568E-13   -.444E-15 0.000E+00 0.444E-15   0.216E-01 -.235E-02 -.647E-02
 
 
 POSITION                                       TOTAL-FORCE (eV/Angst)
 -----------------------------------------------------------------------------------
      0.33254      1.72699      8.08496        -0.000020      0.000155     -0.000464
     17.68640      5.05086      3.51718         0.000020     -0.000155      0.000464
      4.26875      5.04956      2.29683         0.000552     -0.001455     -0.000602
      4.67614      1.72991      9.32366         0.000646      0.000546     -0.003383
      9.16402      1.72816      7.96338         0.001260      0.001592      0.001074
      8.85491      5.04969      3.63877        -0.001260     -0.001592     -0.001074
     13.34280      5.04794      2.27848        -0.000646     -0.000546      0.003383
     13.75019      1.72829      9.30531        -0.000552      0.001455      0.000602
      1.96804      5.05053     10.49736        -0.007256     -0.003016     -0.003868
     16.05090      1.72732      1.10478         0.007256      0.003016      0.003868
      3.13710      1.72708      4.61567        -0.000066      0.001072      0.000470
      5.95738      5.04927      6.89626         0.003170     -0.000540      0.000856
     10.49211      5.04866     10.43183         0.002110     -0.001050     -0.001835
      7.52682      1.72919      1.17031        -0.002110      0.001050      0.001835
     12.06156      1.72858      4.70589        -0.003170      0.000540     -0.000856
     14.88184      5.05077      6.98647         0.000066     -0.001072     -0.000470
      1.63489      0.53117      1.78117        -0.000023     -0.003852     -0.003237
     16.38404      6.24668      9.82097         0.000023      0.003852      0.003237
      2.80730      6.24608      7.41819        -0.002135     -0.002898     -0.000558
      6.22684      0.51927      4.13076         0.002206     -0.000307     -0.000157
     16.38314      3.85518      9.82194        -0.000800      0.000298      0.005772
      1.63580      2.92267      1.78021         0.000800     -0.000298     -0.005772
      6.22781      2.93403      4.12943        -0.001643      0.002546     -0.000061
      2.80693      3.85287      7.41858         0.000886      0.001525     -0.001127
     10.68186      0.51951      1.76967         0.001325      0.001089     -0.002885
      7.33707      6.25834      9.83247        -0.001325     -0.001089      0.002885
     11.79209      6.25858      7.47139        -0.002206      0.000307      0.000157
     15.21163      0.53177      4.18395         0.002135      0.002898      0.000558
      7.33726      3.84829      9.83266         0.001742     -0.001614      0.000853
     10.68168      2.92956      1.76948        -0.001742      0.001614     -0.000853
     15.21200      2.92498      4.18356        -0.000886     -0.001525      0.001127
     11.79113      3.84382      7.47272         0.001643     -0.002546      0.000061
      0.69684      5.04948      7.12826        -0.003707     -0.000748      0.002298
     17.32210      1.72837      4.47388         0.003707      0.000748     -0.002298
      3.68061      1.72526      1.05390         0.001699      0.000285     -0.002670
      5.33970      5.05254     10.45279         0.003524     -0.003087     -0.000020
      9.78895      5.05044      6.85105         0.001865      0.000362      0.000784
      8.22999      1.72741      4.75110        -0.001865     -0.000362     -0.000784
     12.67924      1.72531      1.14936        -0.003524      0.003087      0.000020
     14.33833      5.05259     10.54824        -0.001699     -0.000285      0.002670
      1.64817      1.72601     11.07459         0.002719      0.001413      0.003932
     16.37077      5.05184      0.52755        -0.002719     -0.001413     -0.003932
      2.36497      5.04905      5.35250        -0.001981     -0.000971     -0.002200
      6.26618      1.72742      6.21553         0.000903      0.002004      0.000217
     10.75739      1.72479     11.06580        -0.005109      0.002778      0.004578
      7.26155      5.05306      0.53634         0.005109     -0.002778     -0.004578
     11.75276      5.05043      5.38661        -0.000903     -0.002004     -0.000217
     15.65397      1.72880      6.24964         0.001981      0.000971      0.002200
 -----------------------------------------------------------------------------------
    total drift:                                0.020385     -0.002095     -0.007671


--------------------------------------------------------------------------------------------------------



  FREE ENERGIE OF THE ION-ELECTRON SYSTEM (eV)
  ---------------------------------------------------
  free  energy   TOTEN  =      -188.60821171 eV

  energy  without entropy=     -188.60821171  energy(sigma->0) =     -188.60821171
 


--------------------------------------------------------------------------------------------------------


    POTLOK:  cpu time    3.9051: real time    3.9144


--------------------------------------------------------------------------------------------------------


 writing wavefunctions
     LOOP+:  cpu time  209.6203: real time  215.2900
    4ORBIT:  cpu time    0.0001: real time    0.0002
 


 total charge     
 
# of ion       s       p       d       tot
------------------------------------------
    1        2.019   5.567   0.314   7.900
    2        2.019   5.567   0.314   7.900
    3        2.018   5.584   0.319   7.920
    4        2.018   5.587   0.328   7.934
    5        2.017   5.588   0.330   7.935
    6        2.017   5.588   0.330   7.935
    7        2.018   5.587   0.328   7.934
    8        2.018   5.584   0.319   7.920
    9        2.016   5.577   0.337   7.930
   10        2.016   5.577   0.337   7.930
   11        2.012   5.576   0.337   7.925
   12        2.011   5.578   0.326   7.915
   13        2.011   5.578   0.332   7.921
   14        2.011   5.578   0.332   7.921
   15        2.011   5.578   0.326   7.915
   16        2.012   5.576   0.337   7.925
   17        0.829   0.807   0.000   1.636
   18        0.829   0.807   0.000   1.636
   19        0.798   0.867   0.000   1.666
   20        0.804   0.862   0.000   1.666
   21        0.829   0.807   0.000   1.636
   22        0.829   0.807   0.000   1.636
   23        0.804   0.863   0.000   1.666
   24        0.798   0.868   0.000   1.666
   25        0.803   0.863   0.000   1.666
   26        0.803   0.863   0.000   1.666
   27        0.804   0.862   0.000   1.666
   28        0.798   0.868   0.000   1.666
   29        0.803   0.863   0.000   1.666
   30        0.803   0.863   0.000   1.666
   31        0.798   0.868   0.000   1.666
   32        0.804   0.863   0.000   1.666
   33        0.816   0.812   0.000   1.627
   34        0.816   0.812   0.000   1.627
   35        0.806   0.825   0.000   1.631
   36        0.808   0.838   0.000   1.645
   37        0.817   0.816   0.000   1.634
   38        0.817   0.816   0.000   1.634
   39        0.808   0.838   0.000   1.645
   40        0.806   0.825   0.000   1.631
   41        0.787   0.875   0.000   1.662
   42        0.787   0.875   0.000   1.662
   43        0.823   0.801   0.000   1.624
   44        0.802   0.860   0.000   1.663
   45        0.803   0.857   0.000   1.660
   46        0.803   0.857   0.000   1.660
   47        0.802   0.860   0.000   1.663
   48        0.823   0.801   0.000   1.624
--------------------------------------------------
tot         58.105 116.237   5.247 179.589
 
 BZINTS: Fermi energy:  0.222500;288.000000 electrons
         Band energy:***********;  BLOECHL correction:  0.000000

 total amount of memory used by VASP MPI-rank0   171990. kBytes
=======================================================================

   base      :      30000. kBytes
   nonlr-proj:       4934. kBytes
   fftplans  :       7212. kBytes
   grid      :      10736. kBytes
   one-center:        186. kBytes
   wavefun   :     118922. kBytes
 
  
  
 General timing and accounting informations for this job:
 ========================================================
  
                  Total CPU time used (sec):      236.950
                            User time (sec):      228.474
                          System time (sec):        8.476
                         Elapsed time (sec):      247.193
  
                   Maximum memory used (kb):      416156.
                   Average memory used (kb):           0.
  
                          Minor page faults:        33531
                          Major page faults:          275
                 Voluntary context switches:       340230
