 vasp.5.4.4.18Apr17-6-g9f103f2a35 (build Nov 21 2017 15:30:27) complex          
  
 executed on             LinuxIFC date 2020.12.16  20:06:27
 running on   64 total cores
 distrk:  each k-point on   32 cores,    2 groups
 distr:  one band on NCORES_PER_BAND=   4 cores,    8 groups


--------------------------------------------------------------------------------------------------------


 INCAR:
 POTCAR:   PAW_PBE Sr_sv 07Sep2000                
 POTCAR:   PAW_PBE Si 05Jan2001                   

 ----------------------------------------------------------------------------- 
|                                                                             |
|           W    W    AA    RRRRR   N    N  II  N    N   GGGG   !!!           |
|           W    W   A  A   R    R  NN   N  II  NN   N  G    G  !!!           |
|           W    W  A    A  R    R  N N  N  II  N N  N  G       !!!           |
|           W WW W  AAAAAA  RRRRR   N  N N  II  N  N N  G  GGG   !            |
|           WW  WW  A    A  R   R   N   NN  II  N   NN  G    G                |
|           W    W  A    A  R    R  N    N  II  N    N   GGGG   !!!           |
|                                                                             |
|      You have enabled k-point parallelism (KPAR>1).                         |
|      This developmental code was originally  written by Paul Kent at ORNL,  |
|      and carefully double checked in Vienna.                                |
|      GW as well as linear response parallelism added by Martijn Marsman     |
|      and Georg Kresse.                                                      |
|      Carefully verify results versus KPAR=1.                                |
|      Report problems to Paul Kent and Vienna.                               |
|                                                                             |
 ----------------------------------------------------------------------------- 


 ----------------------------------------------------------------------------- 
|                                                                             |
|  ADVICE TO THIS USER RUNNING 'VASP/VAMP'   (HEAR YOUR MASTER'S VOICE ...):  |
|                                                                             |
|      You have switched on vdW-DFT.                                          |
|      This routine was written and supplied by Jiri Klimes.                  |
|      We recommed that you carefully read and cite the following             |
|      publication                                                            |
|      J. Klimes, D.R. Bowler, A. Michelides                                  |
|        J. Phys.: Cond Matt. 22 022201 (2010)                                |
|      J. Klimes, D.R. Bowler, A. Michelides                                  |
|        Phys. Rev. B. 83, 195131 (2011)                                      |
|      and references therein.                                                |
|                                                                             |
 ----------------------------------------------------------------------------- 

 POTCAR:   PAW_PBE Sr_sv 07Sep2000                
   VRHFIN =Sr: 4s4p5s                                                           
   LEXCH  = PE                                                                  
   EATOM  =   842.4562 eV,   61.9188 Ry                                         
                                                                                
   TITEL  = PAW_PBE Sr_sv 07Sep2000                                             
   LULTRA =        F    use ultrasoft PP ?                                      
   IUNSCR =        1    unscreen: 0-lin 1-nonlin 2-no                           
   RPACOR =    2.200    partial core radius                                     
   POMASS =   87.620; ZVAL   =   10.000    mass and valenz                      
   RCORE  =    2.500    outmost cutoff radius                                   
   RWIGS  =    4.040; RWIGS  =    2.138    wigner-seitz radius (au A)           
   ENMAX  =  229.282; ENMIN  =  171.961 eV                                      
   RCLOC  =    2.201    cutoff for local pot                                    
   LCOR   =        T    correct aug charges                                     
   LPAW   =        T    paw PP                                                  
   EAUG   =  366.804                                                            
   DEXC   =     .000                                                            
   RMAX   =    3.045    core radius for proj-oper                               
   RAUG   =    1.300    factor for augmentation sphere                          
   RDEP   =    2.562    radius for radial grids                                 
   QCUT   =   -4.105; QGAM   =    8.210    optimization parameters              
                                                                                
   Description                                                                  
     l     E      TYP  RCUT    TYP  RCUT                                        
     0   .000     23  2.480                                                     
     0   .000     23  2.480                                                     
     1   .000     23  2.500                                                     
     1   .000     23  2.500                                                     
     2   .000     23  2.500                                                     
     2   .000     23  2.500                                                     
  local pseudopotential read in
  partial core-charges read in
  atomic valenz-charges read in
  non local Contribution for L=           0  read in
    real space projection operators read in
  non local Contribution for L=           0  read in
    real space projection operators read in
  non local Contribution for L=           1  read in
    real space projection operators read in
  non local Contribution for L=           1  read in
    real space projection operators read in
  non local Contribution for L=           2  read in
    real space projection operators read in
  non local Contribution for L=           2  read in
    real space projection operators read in
    PAW grid and wavefunctions read in
 
   number of l-projection  operators is LMAX  =           6
   number of lm-projection operators is LMMAX =          18
 
 POTCAR:   PAW_PBE Si 05Jan2001                   
   VRHFIN =Si: s2p2                                                             
   LEXCH  = PE                                                                  
   EATOM  =   103.0669 eV,    7.5752 Ry                                         
                                                                                
   TITEL  = PAW_PBE Si 05Jan2001                                                
   LULTRA =        F    use ultrasoft PP ?                                      
   IUNSCR =        1    unscreen: 0-lin 1-nonlin 2-no                           
   RPACOR =    1.500    partial core radius                                     
   POMASS =   28.085; ZVAL   =    4.000    mass and valenz                      
   RCORE  =    1.900    outmost cutoff radius                                   
   RWIGS  =    2.480; RWIGS  =    1.312    wigner-seitz radius (au A)           
   ENMAX  =  245.345; ENMIN  =  184.009 eV                                      
   ICORE  =        2    local potential                                         
   LCOR   =        T    correct aug charges                                     
   LPAW   =        T    paw PP                                                  
   EAUG   =  322.069                                                            
   DEXC   =    -.007                                                            
   RMAX   =    2.944    core radius for proj-oper                               
   RAUG   =    1.300    factor for augmentation sphere                          
   RDEP   =    1.993    radius for radial grids                                 
   QCUT   =   -4.246; QGAM   =    8.493    optimization parameters              
                                                                                
   Description                                                                  
     l     E      TYP  RCUT    TYP  RCUT                                        
     0   .000     23  1.900                                                     
     0   .000     23  1.900                                                     
     1   .000     23  1.900                                                     
     1   .000     23  1.900                                                     
     2   .000      7  1.900                                                     
  local pseudopotential read in
  partial core-charges read in
  atomic valenz-charges read in
  non local Contribution for L=           0  read in
    real space projection operators read in
  non local Contribution for L=           0  read in
    real space projection operators read in
  non local Contribution for L=           1  read in
    real space projection operators read in
  non local Contribution for L=           1  read in
    real space projection operators read in
    PAW grid and wavefunctions read in
 
   number of l-projection  operators is LMAX  =           4
   number of lm-projection operators is LMMAX =           8
 
 Optimization of the real space projectors (new method)

 maximal supplied QI-value         = 15.12
 optimisation between [QCUT,QGAM] = [ 11.34, 22.83] = [ 36.00,145.93] Ry 
 Optimized for a Real-space Cutoff    1.56 Angstroem

   l    n(q)    QCUT    max X(q) W(low)/X(q) W(high)/X(q)  e(spline) 
   0     11    11.338     6.584    0.15E-04    0.24E-05    0.13E-07
   0     11    11.338    11.383    0.41E-04    0.15E-04    0.15E-06
   1     10    11.338     3.802    0.90E-05    0.33E-06    0.26E-07
   1     10    11.338    39.081    0.19E-03    0.53E-04    0.42E-06
   2     10    11.338     4.950    0.16E-04    0.40E-04    0.77E-07
   2     10    11.338    88.754    0.21E-03    0.41E-03    0.42E-06
 Optimization of the real space projectors (new method)

 maximal supplied QI-value         = 19.84
 optimisation between [QCUT,QGAM] = [ 11.31, 22.82] = [ 35.82,145.81] Ry 
 Optimized for a Real-space Cutoff    1.16 Angstroem

   l    n(q)    QCUT    max X(q) W(low)/X(q) W(high)/X(q)  e(spline) 
   0      8    11.310     8.708    0.14E-04    0.11E-04    0.43E-08
   0      8    11.310   106.241    0.27E-03    0.30E-03    0.38E-07
   1      7    11.310     5.901    0.82E-05    0.48E-04    0.19E-07
   1      7    11.310    73.241    0.27E-03    0.27E-03    0.74E-07

 ----------------------------------------------------------------------------- 
|                                                                             |
|  ADVICE TO THIS USER RUNNING 'VASP/VAMP'   (HEAR YOUR MASTER'S VOICE ...):  |
|                                                                             |
|      You enforced a specific xc-type in the INCAR file,                     |
|      a different type was found on the POTCAR file                          |
|          I HOPE YOU KNOW, WHAT YOU ARE  DOING                               |
|                                                                             |
 ----------------------------------------------------------------------------- 

 PAW_PBE Sr_sv 07Sep2000                :
 energy of atom  1       EATOM= -842.4562
 kinetic energy error for atom=    0.0012 (will be added to EATOM!!)
 PAW_PBE Si 05Jan2001                   :
 energy of atom  2       EATOM= -103.0669
 kinetic energy error for atom=    0.0006 (will be added to EATOM!!)
 
 
 POSCAR: sr8 si16                                
  positions in cartesian coordinates
  No initial velocities read in
 exchange correlation table for  LEXCH =       43
   RHO(1)=    0.500       N(1)  =     2000
   RHO(2)=  100.500       N(2)  =     4000
 


--------------------------------------------------------------------------------------------------------


 ion  position               nearest neighbor table
   1  0.015  0.250  0.691-  24 3.40  18 3.40  13 3.45  10 3.45  16 3.45  11 3.45  21 3.60  17 3.63
                            17 3.63   5 4.41   5 4.41   7 4.42   4 4.71   4 4.71   8 4.80   8 4.80
   2  0.985  0.750  0.309-  23 3.40  17 3.40   9 3.45  14 3.45  12 3.45  15 3.45  22 3.60  18 3.63
                            18 3.63   6 4.41   6 4.41   8 4.42   3 4.71   3 4.71   7 4.80   7 4.80
   3  0.485  0.750  0.191-  22 3.40  20 3.40  12 3.45  15 3.45   9 3.45  14 3.45  23 3.60  19 3.63
                            19 3.63   7 4.41   7 4.41   5 4.42   2 4.71   2 4.71   6 4.80   6 4.80
   4  0.515  0.250  0.809-  21 3.40  19 3.40  16 3.45  11 3.45  13 3.45  10 3.45  24 3.60  20 3.63
                            20 3.63   8 4.41   8 4.41   6 4.42   1 4.71   1 4.71   5 4.80   5 4.80
   5  0.159  0.750  0.907-  10 3.46  13 3.46  21 3.48  21 3.48  11 3.50  16 3.50  22 3.54   9 3.55
                            14 3.55  17 3.71  20 3.82   1 4.41   1 4.41   3 4.42   4 4.80   4 4.80
   6  0.841  0.250  0.093-  14 3.46   9 3.46  22 3.48  22 3.48  15 3.50  12 3.50  21 3.54  13 3.55
                            10 3.55  18 3.71  19 3.82   2 4.41   2 4.41   4 4.42   3 4.80   3 4.80
   7  0.341  0.250  0.407-  15 3.46  12 3.46  23 3.48  23 3.48  14 3.50   9 3.50  24 3.54  16 3.55
                            11 3.55  19 3.71  18 3.82   3 4.41   3 4.41   1 4.42   2 4.80   2 4.80
   8  0.659  0.750  0.593-  11 3.46  16 3.46  24 3.48  24 3.48  10 3.50  13 3.50  23 3.54  12 3.55
                            15 3.55  20 3.71  17 3.82   4 4.41   4 4.41   2 4.42   1 4.80   1 4.80
   9  0.194  0.073  0.147-  14 2.41  21 2.41  19 2.42   2 3.45   3 3.45   6 3.46   7 3.50   5 3.55

  10  0.806  0.927  0.853-  13 2.41  22 2.41  20 2.42   1 3.45   4 3.45   5 3.46   8 3.50   6 3.55

  11  0.306  0.927  0.647-  16 2.41  23 2.41  17 2.42   4 3.45   1 3.45   8 3.46   5 3.50   7 3.55

  12  0.694  0.073  0.353-  15 2.41  24 2.41  18 2.42   3 3.45   2 3.45   7 3.46   6 3.50   8 3.55

  13  0.806  0.573  0.853-  10 2.41  22 2.41  20 2.42   1 3.45   4 3.45   5 3.46   8 3.50   6 3.55

  14  0.194  0.427  0.147-   9 2.41  21 2.41  19 2.42   2 3.45   3 3.45   6 3.46   7 3.50   5 3.55

  15  0.694  0.427  0.353-  12 2.41  24 2.41  18 2.42   3 3.45   2 3.45   7 3.46   6 3.50   8 3.55

  16  0.306  0.573  0.647-  11 2.41  23 2.41  17 2.42   4 3.45   1 3.45   8 3.46   5 3.50   7 3.55

  17  0.083  0.750  0.592-  11 2.42  16 2.42  23 2.45   2 3.40   1 3.63   1 3.63   5 3.71   8 3.82

  18  0.917  0.250  0.408-  15 2.42  12 2.42  24 2.45   1 3.40   2 3.63   2 3.63   6 3.71   7 3.82

  19  0.417  0.250  0.092-  14 2.42   9 2.42  21 2.45   4 3.40   3 3.63   3 3.63   7 3.71   6 3.82

  20  0.583  0.750  0.908-  10 2.42  13 2.42  22 2.45   3 3.40   4 3.63   4 3.63   8 3.71   5 3.82

  21  0.198  0.250  0.967-  14 2.41   9 2.41  19 2.45   4 3.40   5 3.48   5 3.48   6 3.54   1 3.60

  22  0.802  0.750  0.033-  10 2.41  13 2.41  20 2.45   3 3.40   6 3.48   6 3.48   5 3.54   2 3.60

  23  0.302  0.750  0.467-  11 2.41  16 2.41  17 2.45   2 3.40   7 3.48   7 3.48   8 3.54   3 3.60

  24  0.698  0.250  0.533-  15 2.41  12 2.41  18 2.45   1 3.40   8 3.48   8 3.48   7 3.54   4 3.60

 
  LATTYP: Found a simple orthorhombic cell.
 ALAT       =     6.7778496742
 B/A-ratio  =     1.3292516818
 C/A-ratio  =     1.7117734747
  
  Lattice vectors:
  
 A1 = (   0.0000000000,  -6.7778496742,   0.0000000000)
 A2 = (  -9.0094680786,   0.0000000000,   0.0000000000)
 A3 = (   0.0000000000,   0.0000000000, -11.6021432877)


Analysis of symmetry for initial positions (statically):
=====================================================================
 Subroutine PRICEL returns:
 Original cell was already a primitive cell.
 

 Routine SETGRP: Setting up the symmetry group for a 
 simple orthorhombic supercell.


 Subroutine GETGRP returns: Found  8 space group operations
 (whereof  2 operations were pure point group operations)
 out of a pool of  8 trial point group operations.


The static configuration has the point symmetry S_2 .
 The point group associated with its full space group is D_2h.


Analysis of symmetry for dynamics (positions and initial velocities):
=====================================================================
 Subroutine PRICEL returns:
 Original cell was already a primitive cell.
 

 Routine SETGRP: Setting up the symmetry group for a 
 simple orthorhombic supercell.


 Subroutine GETGRP returns: Found  8 space group operations
 (whereof  2 operations were pure point group operations)
 out of a pool of  8 trial point group operations.


The dynamic configuration has the point symmetry S_2 .
 The point group associated with its full space group is D_2h.


 Subroutine INISYM returns: Found  8 space group operations
 (whereof  2 operations are pure point group operations),
 and found     1 'primitive' translations

 
 
 KPOINTS: k-density: 6.0                          

Automatic generation of k-mesh.
Space group operators:
 irot       det(A)        alpha          n_x          n_y          n_z        tau_x        tau_y        tau_z
    1     1.000000     0.000000     1.000000     0.000000     0.000000     0.000000     0.000000     0.000000
    2    -1.000000     0.000000     1.000000     0.000000     0.000000     0.000000     0.000000     0.000000
    3     1.000000   180.000000     0.000000     0.000000     1.000000    -0.500000     0.000000    -0.500000
    4    -1.000000   180.000000     0.000000     0.000000     1.000000    -0.500000     0.000000    -0.500000
    5     1.000000   180.000000     1.000000     0.000000     0.000000    -0.500000    -0.500000    -0.500000
    6    -1.000000   180.000000     1.000000     0.000000     0.000000    -0.500000    -0.500000    -0.500000
    7     1.000000   180.000000     0.000000     1.000000     0.000000    -0.000000    -0.500000    -0.000000
    8    -1.000000   180.000000     0.000000     1.000000     0.000000     0.000000    -0.500000     0.000000
 
 Subroutine IBZKPT returns following result:
 ===========================================
 
 Found     36 irreducible k-points:
 
 Following reciprocal coordinates:
            Coordinates               Weight
  0.000000  0.000000  0.000000      1.000000
  0.200000  0.000000  0.000000      2.000000
  0.400000  0.000000  0.000000      2.000000
  0.000000  0.166667  0.000000      2.000000
  0.200000  0.166667  0.000000      4.000000
  0.400000  0.166667  0.000000      4.000000
  0.000000  0.333333  0.000000      2.000000
  0.200000  0.333333  0.000000      4.000000
  0.400000  0.333333  0.000000      4.000000
  0.000000  0.500000  0.000000      1.000000
  0.200000  0.500000  0.000000      2.000000
  0.400000  0.500000  0.000000      2.000000
  0.000000  0.000000  0.250000      2.000000
  0.200000  0.000000  0.250000      4.000000
  0.400000  0.000000  0.250000      4.000000
  0.000000  0.166667  0.250000      4.000000
  0.200000  0.166667  0.250000      8.000000
  0.400000  0.166667  0.250000      8.000000
  0.000000  0.333333  0.250000      4.000000
  0.200000  0.333333  0.250000      8.000000
  0.400000  0.333333  0.250000      8.000000
  0.000000  0.500000  0.250000      2.000000
  0.200000  0.500000  0.250000      4.000000
  0.400000  0.500000  0.250000      4.000000
  0.000000  0.000000  0.500000      1.000000
  0.200000  0.000000  0.500000      2.000000
  0.400000  0.000000  0.500000      2.000000
  0.000000  0.166667  0.500000      2.000000
  0.200000  0.166667  0.500000      4.000000
  0.400000  0.166667  0.500000      4.000000
  0.000000  0.333333  0.500000      2.000000
  0.200000  0.333333  0.500000      4.000000
  0.400000  0.333333  0.500000      4.000000
  0.000000  0.500000  0.500000      1.000000
  0.200000  0.500000  0.500000      2.000000
  0.400000  0.500000  0.500000      2.000000
 
 Following cartesian coordinates:
            Coordinates               Weight
  0.000000  0.000000  0.000000      1.000000
  0.022199  0.000000  0.000000      2.000000
  0.044398  0.000000  0.000000      2.000000
  0.000000  0.024590  0.000000      2.000000
  0.022199  0.024590  0.000000      4.000000
  0.044398  0.024590  0.000000      4.000000
  0.000000  0.049180  0.000000      2.000000
  0.022199  0.049180  0.000000      4.000000
  0.044398  0.049180  0.000000      4.000000
  0.000000  0.073770  0.000000      1.000000
  0.022199  0.073770  0.000000      2.000000
  0.044398  0.073770  0.000000      2.000000
  0.000000  0.000000  0.021548      2.000000
  0.022199  0.000000  0.021548      4.000000
  0.044398  0.000000  0.021548      4.000000
  0.000000  0.024590  0.021548      4.000000
  0.022199  0.024590  0.021548      8.000000
  0.044398  0.024590  0.021548      8.000000
  0.000000  0.049180  0.021548      4.000000
  0.022199  0.049180  0.021548      8.000000
  0.044398  0.049180  0.021548      8.000000
  0.000000  0.073770  0.021548      2.000000
  0.022199  0.073770  0.021548      4.000000
  0.044398  0.073770  0.021548      4.000000
  0.000000  0.000000  0.043095      1.000000
  0.022199  0.000000  0.043095      2.000000
  0.044398  0.000000  0.043095      2.000000
  0.000000  0.024590  0.043095      2.000000
  0.022199  0.024590  0.043095      4.000000
  0.044398  0.024590  0.043095      4.000000
  0.000000  0.049180  0.043095      2.000000
  0.022199  0.049180  0.043095      4.000000
  0.044398  0.049180  0.043095      4.000000
  0.000000  0.073770  0.043095      1.000000
  0.022199  0.073770  0.043095      2.000000
  0.044398  0.073770  0.043095      2.000000
 
 TETIRR: Found    360 inequivalent tetrahedra from      720


--------------------------------------------------------------------------------------------------------




 Dimension of arrays:
   k-points           NKPTS =     36   k-points in BZ     NKDIM =     36   number of bands    NBANDS=     88
   number of dos      NEDOS =    301   number of ions     NIONS =     24
   non local maximal  LDIM  =      6   non local SUM 2l+1 LMDIM =     18
   total plane-waves  NPLWV = 128000
   max r-space proj   IRMAX =   2946   max aug-charges    IRDMAX=  10792
   dimension x,y,z NGX =    50 NGY =   40 NGZ =   64
   dimension x,y,z NGXF=   100 NGYF=   80 NGZF=  128
   support grid    NGXF=   100 NGYF=   80 NGZF=  128
   ions per type =               8  16
   NGX,Y,Z   is equivalent  to a cutoff of   9.23,  9.81,  9.17 a.u.
   NGXF,Y,Z  is equivalent  to a cutoff of  18.45, 19.62, 18.34 a.u.

 SYSTEM =  unknown system                          
 POSCAR =  sr8 si16                                

 Startparameter for this run:
   NWRITE =      2    write-flag & timer
   PREC   = normal    normal or accurate (medium, high low for compatibility)
   ISTART =      0    job   : 0-new  1-cont  2-samecut
   ICHARG =      2    charge: 1-file 2-atom 10-const
   ISPIN  =      1    spin polarized calculation?
   LNONCOLLINEAR =      F non collinear calculations
   LSORBIT =      F    spin-orbit coupling
   INIWAV =      1    electr: 0-lowe 1-rand  2-diag
   LASPH  =      T    aspherical Exc in radial PAW
   METAGGA=      F    non-selfconsistent MetaGGA calc.

 Electronic Relaxation 1
   ENCUT  =  500.0 eV  36.75 Ry    6.06 a.u.  16.43 12.36 21.15*2*pi/ulx,y,z
   ENINI  =  500.0     initial cutoff
   ENAUG  =  366.8 eV  augmentation charge cutoff
   NELM   =    100;   NELMIN=  2; NELMDL= -5     # of ELM steps 
   EDIFF  = 0.1E-05   stopping-criterion for ELM
   LREAL  =      T    real-space projection
   NLSPLINE    = F    spline interpolate recip. space projectors
   LCOMPAT=      F    compatible to vasp.4.4
   GGA_COMPAT  = T    GGA compatible to vasp.4.4-vasp.4.6
   LMAXPAW     = -100 max onsite density
   LMAXMIX     =    2 max onsite mixed and CHGCAR
   VOSKOWN=      0    Vosko Wilk Nusair interpolation
   ROPT   =   -0.00050  -0.00050
 Ionic relaxation
   EDIFFG = 0.1E-01   stopping-criterion for IOM
   NSW    =    200    number of steps for IOM
   NBLOCK =      1;   KBLOCK =    200    inner block; outer block 
   IBRION =      2    ionic relax: 0-MD 1-quasi-New 2-CG
   NFREE  =      1    steps in history (QN), initial steepest desc. (CG)
   ISIF   =      3    stress and relaxation
   IWAVPR =     11    prediction:  0-non 1-charg 2-wave 3-comb
   ISYM   =      2    0-nonsym 1-usesym 2-fastsym
   LCORR  =      T    Harris-Foulkes like correction to forces

   POTIM  = 0.5000    time-step for ionic-motion
   TEIN   =    0.0    initial temperature
   TEBEG  =    0.0;   TEEND  =   0.0 temperature during run
   SMASS  =  -3.00    Nose mass-parameter (am)
   estimated Nose-frequenzy (Omega)   =  0.10E-29 period in steps =****** mass=  -0.185E-26a.u.
   SCALEE = 1.0000    scale energy and forces
   NPACO  =    256;   APACO  = 16.0  distance and # of slots for P.C.
   PSTRESS=    0.0 pullay stress

  Mass of Ions in am
   POMASS =  87.62 28.09
  Ionic Valenz
   ZVAL   =  10.00  4.00
  Atomic Wigner-Seitz radii
   RWIGS  =  -1.00 -1.00
  virtual crystal weights 
   VCA    =   1.00  1.00
   NELECT =     144.0000    total number of electrons
   NUPDOWN=      -1.0000    fix difference up-down

 DOS related values:
   EMIN   =  10.00;   EMAX   =-10.00  energy-range for DOS
   EFERMI =   0.00
   ISMEAR =    -5;   SIGMA  =   0.01  broadening in eV -4-tet -1-fermi 0-gaus

 Electronic relaxation 2 (details)
   IALGO  =     38    algorithm
   LDIAG  =      T    sub-space diagonalisation (order eigenvalues)
   LSUBROT=      F    optimize rotation matrix (better conditioning)
   TURBO    =      0    0=normal 1=particle mesh
   IRESTART =      0    0=no restart 2=restart with 2 vectors
   NREBOOT  =      0    no. of reboots
   NMIN     =      0    reboot dimension
   EREF     =   0.00    reference energy to select bands
   IMIX   =      4    mixing-type and parameters
     AMIX     =   0.40;   BMIX     =  1.00
     AMIX_MAG =   1.60;   BMIX_MAG =  1.00
     AMIN     =   0.10
     WC   =   100.;   INIMIX=   1;  MIXPRE=   1;  MAXMIX= -45

 Intra band minimization:
   WEIMIN = 0.0010     energy-eigenvalue tresh-hold
   EBREAK =  0.28E-08  absolut break condition
   DEPER  =   0.30     relativ break condition  

   TIME   =   0.40     timestep for ELM

  volume/ion in A,a.u.               =      29.52       199.21
  Fermi-wavevector in a.u.,A,eV,Ry     =   0.962541  1.818939 12.605595  0.926485
  Thomas-Fermi vector in A             =   2.092009
 
 Write flags
   LWAVE        =      T    write WAVECAR
   LDOWNSAMPLE  =      F    k-point downsampling of WAVECAR
   LCHARG       =      T    write CHGCAR
   LVTOT        =      F    write LOCPOT, total local potential
   LVHAR        =      F    write LOCPOT, Hartree potential only
   LELF         =      F    write electronic localiz. function (ELF)
   LORBIT       =      0    0 simple, 1 ext, 2 COOP (PROOUT), +10 PAW based schemes


 Dipole corrections
   LMONO  =      F    monopole corrections only (constant potential shift)
   LDIPOL =      F    correct potential (dipole corrections)
   IDIPOL =      0    1-x, 2-y, 3-z, 4-all directions 
   EPSILON=  1.0000000 bulk dielectric constant

 Exchange correlation treatment:
   GGA     =    MK    GGA type
   LEXCH   =    43    internal setting for exchange type
   VOSKOWN=      0    Vosko Wilk Nusair interpolation
   LHFCALC =     F    Hartree Fock is set to
   LHFONE  =     F    Hartree Fock one center treatment
   AEXX    =    0.0000 exact exchange contribution

 vdW DFT:
   LUSE_VDW   =     T    switch on vdW DFT
   Zab_VDW    =******    correlation parameter
   PARAM1     =0.1234
   PARAM2     =0.7114
   PARAM3     =0.0000
   -- rVV10 --
   BPARAM     = 6.3000
   CPARAM     = 0.0093

 Linear response parameters
   LEPSILON=     F    determine dielectric tensor
   LRPA    =     F    only Hartree local field effects (RPA)
   LNABLA  =     F    use nabla operator in PAW spheres
   LVEL    =     F    velocity operator in full k-point grid
   LINTERFAST=   F  fast interpolation
   KINTER  =     0    interpolate to denser k-point grid
   CSHIFT  =0.1000    complex shift for real part using Kramers Kronig
   OMEGAMAX=  -1.0    maximum frequency
   DEG_THRESHOLD= 0.2000000E-02 threshold for treating states as degnerate
   RTIME   =   -0.100 relaxation time in fs
  (WPLASMAI=    0.000 imaginary part of plasma frequency in eV, 0.658/RTIME)
   DFIELD  = 0.0000000 0.0000000 0.0000000 field for delta impulse in time
 
 Orbital magnetization related:
   ORBITALMAG=     F  switch on orbital magnetization
   LCHIMAG   =     F  perturbation theory with respect to B field
   DQ        =  0.001000  dq finite difference perturbation B field
   LLRAUG    =     F  two centre corrections for induced B field



--------------------------------------------------------------------------------------------------------


 conjugate gradient relaxation of ions
 charge density and potential will be updated during run
 non-spin polarized calculation
 Variant of blocked Davidson
 Davidson routine will perform the subspace rotation
 perform sub-space diagonalisation
    after iterative eigenvector-optimisation
 modified Broyden-mixing scheme, WC =      100.0
 initial mixing is a Kerker type mixing with AMIX =  0.4000 and BMIX =      1.0000
 Hartree-type preconditioning will be used
 using additional bands           16
 real space projection scheme for non local part
 use partial core corrections
 calculate Harris-corrections to forces 
   (improved forces if not selfconsistent)
 use gradient corrections 
 use of overlap-Matrix (Vanderbilt PP)
 Fermi weights with tetrahedron method with Bloechl corrections


--------------------------------------------------------------------------------------------------------


  energy-cutoff  :      500.00
  volume of cell :      708.48
      direct lattice vectors                 reciprocal lattice vectors
     9.009468079  0.000000000  0.000000000     0.110994344  0.000000000  0.000000000
     0.000000000  6.777849674  0.000000000     0.000000000  0.147539419  0.000000000
     0.000000000  0.000000000 11.602143288     0.000000000  0.000000000  0.086190971

  length of vectors
     9.009468079  6.777849674 11.602143288     0.110994344  0.147539419  0.086190971


 
 k-points in units of 2pi/SCALE and weight: k-density: 6.0                          
   0.00000000  0.00000000  0.00000000       0.008
   0.02219887  0.00000000  0.00000000       0.017
   0.04439774  0.00000000  0.00000000       0.017
   0.00000000  0.02458990  0.00000000       0.017
   0.02219887  0.02458990  0.00000000       0.033
   0.04439774  0.02458990  0.00000000       0.033
   0.00000000  0.04917981  0.00000000       0.017
   0.02219887  0.04917981  0.00000000       0.033
   0.04439774  0.04917981  0.00000000       0.033
   0.00000000  0.07376971  0.00000000       0.008
   0.02219887  0.07376971  0.00000000       0.017
   0.04439774  0.07376971  0.00000000       0.017
   0.00000000  0.00000000  0.02154774       0.017
   0.02219887  0.00000000  0.02154774       0.033
   0.04439774  0.00000000  0.02154774       0.033
   0.00000000  0.02458990  0.02154774       0.033
   0.02219887  0.02458990  0.02154774       0.067
   0.04439774  0.02458990  0.02154774       0.067
   0.00000000  0.04917981  0.02154774       0.033
   0.02219887  0.04917981  0.02154774       0.067
   0.04439774  0.04917981  0.02154774       0.067
   0.00000000  0.07376971  0.02154774       0.017
   0.02219887  0.07376971  0.02154774       0.033
   0.04439774  0.07376971  0.02154774       0.033
   0.00000000  0.00000000  0.04309549       0.008
   0.02219887  0.00000000  0.04309549       0.017
   0.04439774  0.00000000  0.04309549       0.017
   0.00000000  0.02458990  0.04309549       0.017
   0.02219887  0.02458990  0.04309549       0.033
   0.04439774  0.02458990  0.04309549       0.033
   0.00000000  0.04917981  0.04309549       0.017
   0.02219887  0.04917981  0.04309549       0.033
   0.04439774  0.04917981  0.04309549       0.033
   0.00000000  0.07376971  0.04309549       0.008
   0.02219887  0.07376971  0.04309549       0.017
   0.04439774  0.07376971  0.04309549       0.017
 
 k-points in reciprocal lattice and weights: k-density: 6.0                          
   0.00000000  0.00000000  0.00000000       0.008
   0.20000000  0.00000000  0.00000000       0.017
   0.40000000  0.00000000  0.00000000       0.017
   0.00000000  0.16666667  0.00000000       0.017
   0.20000000  0.16666667  0.00000000       0.033
   0.40000000  0.16666667  0.00000000       0.033
   0.00000000  0.33333333  0.00000000       0.017
   0.20000000  0.33333333  0.00000000       0.033
   0.40000000  0.33333333  0.00000000       0.033
   0.00000000  0.50000000  0.00000000       0.008
   0.20000000  0.50000000  0.00000000       0.017
   0.40000000  0.50000000  0.00000000       0.017
   0.00000000  0.00000000  0.25000000       0.017
   0.20000000  0.00000000  0.25000000       0.033
   0.40000000  0.00000000  0.25000000       0.033
   0.00000000  0.16666667  0.25000000       0.033
   0.20000000  0.16666667  0.25000000       0.067
   0.40000000  0.16666667  0.25000000       0.067
   0.00000000  0.33333333  0.25000000       0.033
   0.20000000  0.33333333  0.25000000       0.067
   0.40000000  0.33333333  0.25000000       0.067
   0.00000000  0.50000000  0.25000000       0.017
   0.20000000  0.50000000  0.25000000       0.033
   0.40000000  0.50000000  0.25000000       0.033
   0.00000000  0.00000000  0.50000000       0.008
   0.20000000  0.00000000  0.50000000       0.017
   0.40000000  0.00000000  0.50000000       0.017
   0.00000000  0.16666667  0.50000000       0.017
   0.20000000  0.16666667  0.50000000       0.033
   0.40000000  0.16666667  0.50000000       0.033
   0.00000000  0.33333333  0.50000000       0.017
   0.20000000  0.33333333  0.50000000       0.033
   0.40000000  0.33333333  0.50000000       0.033
   0.00000000  0.50000000  0.50000000       0.008
   0.20000000  0.50000000  0.50000000       0.017
   0.40000000  0.50000000  0.50000000       0.017
 
 position of ions in fractional coordinates (direct lattice) 
   0.01517300  0.25000000  0.69130999
   0.98482700  0.75000002  0.30869001
   0.48482700  0.75000002  0.19130993
   0.51517300  0.25000000  0.80869005
   0.15930900  0.75000002  0.90664998
   0.84069100  0.25000000  0.09335000
   0.34069100  0.25000000  0.40665007
   0.65930900  0.75000002  0.59334998
   0.19427001  0.07254100  0.14674400
   0.80572999  0.92745899  0.85325598
   0.30572999  0.92745899  0.64674402
   0.69427001  0.07254100  0.35325598
   0.80572999  0.57254101  0.85325598
   0.19427001  0.42745899  0.14674400
   0.69427001  0.42745899  0.35325598
   0.30572999  0.57254101  0.64674402
   0.08290500  0.75000002  0.59200102
   0.91709498  0.25000000  0.40799898
   0.41709501  0.25000000  0.09200096
   0.58290502  0.75000002  0.90799902
   0.19769400  0.25000000  0.96694000
   0.80230599  0.75000002  0.03306002
   0.30230599  0.75000002  0.46693992
   0.69769401  0.25000000  0.53306000
 
 position of ions in cartesian coordinates  (Angst):
   0.13670066  1.69446242  8.02067757
   8.87276745  5.08338737  3.58146572
   4.36803341  5.08338737  2.21960521
   4.64143467  1.69446242  9.38253784
   1.43528938  5.08338737 10.51908302
   7.57417870  1.69446242  1.08306003
   3.06944466  1.69446242  4.71801233
   5.94002342  5.08338737  6.88413143
   1.75026941  0.49167198  1.70254493
   7.25919867  6.28617763  9.89959812
   2.75446463  6.28617763  7.50361681
   6.25500345  0.49167198  4.09852648
   7.25919867  3.88059688  9.89959812
   1.75026941  2.89725280  1.70254493
   6.25500345  2.89725280  4.09852648
   2.75446463  3.88059688  7.50361681
   0.74692994  5.08338737  6.86848068
   8.26253796  1.69446242  4.73366260
   3.75780416  1.69446242  1.06740832
   5.25166416  5.08338737 10.53473473
   1.78111780  1.69446242 11.21857643
   7.22835016  5.08338737  0.38356703
   2.72361612  5.08338737  5.41750383
   6.28585196  1.69446242  6.18463850
 


--------------------------------------------------------------------------------------------------------


 k-point  1 :   0.0000 0.0000 0.0000  plane waves:   18015
 k-point  2 :   0.2000 0.0000 0.0000  plane waves:   18061
 k-point  3 :   0.4000 0.0000 0.0000  plane waves:   17963
 k-point  4 :   0.0000 0.1667 0.0000  plane waves:   17981
 k-point  5 :   0.2000 0.1667 0.0000  plane waves:   17995
 k-point  6 :   0.4000 0.1667 0.0000  plane waves:   17998
 k-point  7 :   0.0000 0.3333 0.0000  plane waves:   17997
 k-point  8 :   0.2000 0.3333 0.0000  plane waves:   17955
 k-point  9 :   0.4000 0.3333 0.0000  plane waves:   17977
 k-point 10 :   0.0000 0.5000 0.0000  plane waves:   17944
 k-point 11 :   0.2000 0.5000 0.0000  plane waves:   17950
 k-point 12 :   0.4000 0.5000 0.0000  plane waves:   17980
 k-point 13 :   0.0000 0.0000 0.2500  plane waves:   18014
 k-point 14 :   0.2000 0.0000 0.2500  plane waves:   18010
 k-point 15 :   0.4000 0.0000 0.2500  plane waves:   17976
 k-point 16 :   0.0000 0.1667 0.2500  plane waves:   17994
 k-point 17 :   0.2000 0.1667 0.2500  plane waves:   18005
 k-point 18 :   0.4000 0.1667 0.2500  plane waves:   17983
 k-point 19 :   0.0000 0.3333 0.2500  plane waves:   17983
 k-point 20 :   0.2000 0.3333 0.2500  plane waves:   17976
 k-point 21 :   0.4000 0.3333 0.2500  plane waves:   17972
 k-point 22 :   0.0000 0.5000 0.2500  plane waves:   17960
 k-point 23 :   0.2000 0.5000 0.2500  plane waves:   17998
 k-point 24 :   0.4000 0.5000 0.2500  plane waves:   17972
 k-point 25 :   0.0000 0.0000 0.5000  plane waves:   17962
 k-point 26 :   0.2000 0.0000 0.5000  plane waves:   17982
 k-point 27 :   0.4000 0.0000 0.5000  plane waves:   17990
 k-point 28 :   0.0000 0.1667 0.5000  plane waves:   17998
 k-point 29 :   0.2000 0.1667 0.5000  plane waves:   17996
 k-point 30 :   0.4000 0.1667 0.5000  plane waves:   17998
 k-point 31 :   0.0000 0.3333 0.5000  plane waves:   18010
 k-point 32 :   0.2000 0.3333 0.5000  plane waves:   18006
 k-point 33 :   0.4000 0.3333 0.5000  plane waves:   17968
 k-point 34 :   0.0000 0.5000 0.5000  plane waves:   18004
 k-point 35 :   0.2000 0.5000 0.5000  plane waves:   18000
 k-point 36 :   0.4000 0.5000 0.5000  plane waves:   17992

 maximum and minimum number of plane-waves per node :      4533     4466

 maximum number of plane-waves:     18061
 maximum index in each direction: 
   IXMAX=   16   IYMAX=   12   IZMAX=   21
   IXMIN=  -16   IYMIN=  -12   IZMIN=  -21


 real space projection operators:
  total allocation   :       4328.62 KBytes
  max/ min on nodes  :       1126.75       1037.56


 parallel 3D FFT for wavefunctions:
    minimum data exchange during FFTs selected (reduces bandwidth)
 parallel 3D FFT for charge:
    minimum data exchange during FFTs selected (reduces bandwidth)


 total amount of memory used by VASP MPI-rank0    67772. kBytes
=======================================================================

   base      :      30000. kBytes
   nonlr-proj:       2580. kBytes
   fftplans  :       2347. kBytes
   grid      :       3658. kBytes
   one-center:         93. kBytes
   wavefun   :      29094. kBytes
 
     INWAV:  cpu time    0.0001: real time    0.0002
 Broyden mixing: mesh for mixing (old mesh)
   NGX = 33   NGY = 25   NGZ = 43
  (NGX  =100   NGY  = 80   NGZ  =128)
  gives a total of  35475 points

 initial charge density was supplied:
 charge density of overlapping atoms calculated
 number of electron     144.0000000 magnetization 
 keeping initial charge density in first step


--------------------------------------------------------------------------------------------------------


 Maximum index for non-local projection operator          837
 Maximum index for augmentation-charges         1136 (set IRDMAX)


--------------------------------------------------------------------------------------------------------


 First call to EWALD:  gamma=   0.199
 Maximum number of real-space cells 3x 3x 2
 Maximum number of reciprocal cells 3x 2x 3

    FEWALD:  cpu time    0.0462: real time    0.0464


--------------------------------------- Iteration      1(   1)  ---------------------------------------


vdW kernel read from vdw_kernel.bindat
  0.0000  0.2424  0.5071  0.7962  1.1119  1.4567  1.8333  2.2446  2.6937  3.1842
  3.7199  4.3049  4.9438  5.6415  6.4036  7.2358  8.1446  9.1372 10.2212 11.4050
 12.6979 14.1099 15.6519 17.3360 19.1751 21.1837 23.3773 25.7729 28.3892 31.2465
 34.3669 37.7748 41.4965 45.5611 50.0000
 
    POTLOK:  cpu time    1.3251: real time    1.4169
    SETDIJ:  cpu time    0.1159: real time    0.1163
     EDDAV:  cpu time    2.2159: real time    2.2268
 BZINTS: Fermi energy: 10.683515;144.000000 electrons
         Band energy:-389.523341;  BLOECHL correction: -0.057494
       DOS:  cpu time    0.0453: real time    0.0454
    --------------------------------------------
      LOOP:  cpu time    3.7022: real time    3.8054

 eigenvalue-minimisations  :  6360
 total energy-change (2. order) : 0.8035811E+03  (-0.6015497E+04)
 number of electron     144.0000000 magnetization 
 augmentation part      144.0000000 magnetization 

 Free energy of the ion-electron system (eV)
  ---------------------------------------------------
  alpha Z        PSCENC =       332.24841166
  Ewald energy   TEWEN  =     -6374.53395873
  -Hartree energ DENC   =     -1695.20939011
  -exchange      EXHF   =         0.00000000
  -V(xc)+E(xc)   XCENC  =       121.06981918
  PAW double counting   =      4507.68422219    -4105.54693173
  entropy T*S    EENTRO =         0.00000000
  eigenvalues    EBANDS =      -389.52334103
  atomic energy  EATOM  =      8407.39227039
  Solvation  Ediel_sol  =         0.00000000
  ---------------------------------------------------
  free energy    TOTEN  =       803.58110182 eV

  energy without entropy =      803.58110182  energy(sigma->0) =      803.58110182


--------------------------------------------------------------------------------------------------------




--------------------------------------- Iteration      1(   2)  ---------------------------------------


     EDDAV:  cpu time    2.5423: real time    2.5506
 BZINTS: Fermi energy:  3.996472;144.000000 electrons
         Band energy:***********;  BLOECHL correction:  0.000000
       DOS:  cpu time    0.0093: real time    0.0093
    --------------------------------------------
      LOOP:  cpu time    2.5516: real time    2.5599

 eigenvalue-minimisations  :  7560
 total energy-change (2. order) :-0.8209562E+03  (-0.7951451E+03)
 number of electron     144.0000000 magnetization 
 augmentation part      144.0000000 magnetization 

 Free energy of the ion-electron system (eV)
  ---------------------------------------------------
  alpha Z        PSCENC =       332.24841166
  Ewald energy   TEWEN  =     -6374.53395873
  -Hartree energ DENC   =     -1695.20939011
  -exchange      EXHF   =         0.00000000
  -V(xc)+E(xc)   XCENC  =       121.06981918
  PAW double counting   =      4507.68422219    -4105.54693173
  entropy T*S    EENTRO =         0.00000000
  eigenvalues    EBANDS =     -1210.47949816
  atomic energy  EATOM  =      8407.39227039
  Solvation  Ediel_sol  =         0.00000000
  ---------------------------------------------------
  free energy    TOTEN  =       -17.37505531 eV

  energy without entropy =      -17.37505531  energy(sigma->0) =      -17.37505531


--------------------------------------------------------------------------------------------------------




--------------------------------------- Iteration      1(   3)  ---------------------------------------


     EDDAV:  cpu time    2.7929: real time    2.8013
 BZINTS: Fermi energy:  2.349494;144.000000 electrons
         Band energy:***********;  BLOECHL correction:  0.000000
       DOS:  cpu time    0.0079: real time    0.0079
    --------------------------------------------
      LOOP:  cpu time    2.8009: real time    2.8092

 eigenvalue-minimisations  :  8272
 total energy-change (2. order) :-0.7527843E+02  (-0.7475632E+02)
 number of electron     144.0000000 magnetization 
 augmentation part      144.0000000 magnetization 

 Free energy of the ion-electron system (eV)
  ---------------------------------------------------
  alpha Z        PSCENC =       332.24841166
  Ewald energy   TEWEN  =     -6374.53395873
  -Hartree energ DENC   =     -1695.20939011
  -exchange      EXHF   =         0.00000000
  -V(xc)+E(xc)   XCENC  =       121.06981918
  PAW double counting   =      4507.68422219    -4105.54693173
  entropy T*S    EENTRO =         0.00000000
  eigenvalues    EBANDS =     -1285.75792505
  atomic energy  EATOM  =      8407.39227039
  Solvation  Ediel_sol  =         0.00000000
  ---------------------------------------------------
  free energy    TOTEN  =       -92.65348220 eV

  energy without entropy =      -92.65348220  energy(sigma->0) =      -92.65348220


--------------------------------------------------------------------------------------------------------




--------------------------------------- Iteration      1(   4)  ---------------------------------------


     EDDAV:  cpu time    3.3573: real time    3.3671
 BZINTS: Fermi energy:  2.348644;144.000000 electrons
         Band energy:***********;  BLOECHL correction:  0.000000
       DOS:  cpu time    0.0081: real time    0.0081
    --------------------------------------------
      LOOP:  cpu time    3.3654: real time    3.3753

 eigenvalue-minimisations  : 10432
 total energy-change (2. order) :-0.4046425E+01  (-0.4034920E+01)
 number of electron     144.0000000 magnetization 
 augmentation part      144.0000000 magnetization 

 Free energy of the ion-electron system (eV)
  ---------------------------------------------------
  alpha Z        PSCENC =       332.24841166
  Ewald energy   TEWEN  =     -6374.53395873
  -Hartree energ DENC   =     -1695.20939011
  -exchange      EXHF   =         0.00000000
  -V(xc)+E(xc)   XCENC  =       121.06981918
  PAW double counting   =      4507.68422219    -4105.54693173
  entropy T*S    EENTRO =         0.00000000
  eigenvalues    EBANDS =     -1289.80435026
  atomic energy  EATOM  =      8407.39227039
  Solvation  Ediel_sol  =         0.00000000
  ---------------------------------------------------
  free energy    TOTEN  =       -96.69990741 eV

  energy without entropy =      -96.69990741  energy(sigma->0) =      -96.69990741


--------------------------------------------------------------------------------------------------------




--------------------------------------- Iteration      1(   5)  ---------------------------------------


     EDDAV:  cpu time    2.9953: real time    3.0042
 BZINTS: Fermi energy:  2.297405;144.000000 electrons
         Band energy:***********;  BLOECHL correction:  0.000000
       DOS:  cpu time    0.0067: real time    0.0067
    CHARGE:  cpu time    0.0791: real time    0.0794
    MIXING:  cpu time    0.0040: real time    0.0044
    --------------------------------------------
      LOOP:  cpu time    3.0851: real time    3.0948

 eigenvalue-minimisations  :  9056
 total energy-change (2. order) :-0.2661874E+00  (-0.2661349E+00)
 number of electron     144.0000013 magnetization 
 augmentation part        0.5173675 magnetization 

 Broyden mixing:
  rms(total) = 0.10769E+01    rms(broyden)= 0.10769E+01
  rms(prec ) = 0.15924E+01
  weight for this iteration     100.00

 Free energy of the ion-electron system (eV)
  ---------------------------------------------------
  alpha Z        PSCENC =       332.24841166
  Ewald energy   TEWEN  =     -6374.53395873
  -Hartree energ DENC   =     -1695.20939011
  -exchange      EXHF   =         0.00000000
  -V(xc)+E(xc)   XCENC  =       121.06981918
  PAW double counting   =      4507.68422219    -4105.54693173
  entropy T*S    EENTRO =         0.00000000
  eigenvalues    EBANDS =     -1290.07053766
  atomic energy  EATOM  =      8407.39227039
  Solvation  Ediel_sol  =         0.00000000
  ---------------------------------------------------
  free energy    TOTEN  =       -96.96609481 eV

  energy without entropy =      -96.96609481  energy(sigma->0) =      -96.96609481


--------------------------------------------------------------------------------------------------------




--------------------------------------- Iteration      1(   6)  ---------------------------------------


    POTLOK:  cpu time    0.9215: real time    0.9254
    SETDIJ:  cpu time    0.0442: real time    0.0443
     EDDAV:  cpu time    2.4653: real time    2.4712
 BZINTS: Fermi energy:  2.834658;144.000000 electrons
         Band energy:***********;  BLOECHL correction:  0.000000
       DOS:  cpu time    0.0079: real time    0.0079
    CHARGE:  cpu time    0.0772: real time    0.0774
    MIXING:  cpu time    0.0035: real time    0.0036
    --------------------------------------------
      LOOP:  cpu time    3.5197: real time    3.5298

 eigenvalue-minimisations  :  7176
 total energy-change (2. order) : 0.4934040E+01  (-0.1447777E+01)
 number of electron     144.0000013 magnetization 
 augmentation part        0.7056431 magnetization 

 Broyden mixing:
  rms(total) = 0.57613E+00    rms(broyden)= 0.57612E+00
  rms(prec ) = 0.71812E+00
  weight for this iteration     100.00

 eigenvalues of (default mixing * dielectric matrix)
  average eigenvalue GAMMA=   1.8535
  1.8535

 Free energy of the ion-electron system (eV)
  ---------------------------------------------------
  alpha Z        PSCENC =       332.24841166
  Ewald energy   TEWEN  =     -6374.53395873
  -Hartree energ DENC   =     -1686.50461226
  -exchange      EXHF   =         0.00000000
  -V(xc)+E(xc)   XCENC  =       122.39960355
  PAW double counting   =      4510.11126061    -4127.67164316
  entropy T*S    EENTRO =         0.00000000
  eigenvalues    EBANDS =     -1275.47338679
  atomic energy  EATOM  =      8407.39227039
  Solvation  Ediel_sol  =         0.00000000
  ---------------------------------------------------
  free energy    TOTEN  =       -92.03205472 eV

  energy without entropy =      -92.03205472  energy(sigma->0) =      -92.03205472


--------------------------------------------------------------------------------------------------------




--------------------------------------- Iteration      1(   7)  ---------------------------------------


    POTLOK:  cpu time    0.9155: real time    0.9206
    SETDIJ:  cpu time    0.0443: real time    0.0444
     EDDAV:  cpu time    2.8652: real time    2.8719
 BZINTS: Fermi energy:  3.178941;144.000000 electrons
         Band energy:***********;  BLOECHL correction:  0.000000
       DOS:  cpu time    0.0092: real time    0.0092
    CHARGE:  cpu time    0.0763: real time    0.0765
    MIXING:  cpu time    0.0029: real time    0.0031
    --------------------------------------------
      LOOP:  cpu time    3.9134: real time    3.9257

 eigenvalue-minimisations  :  8688
 total energy-change (2. order) : 0.6066893E-01  (-0.6051740E+00)
 number of electron     144.0000013 magnetization 
 augmentation part        0.6039663 magnetization 

 Broyden mixing:
  rms(total) = 0.22197E+00    rms(broyden)= 0.22197E+00
  rms(prec ) = 0.28240E+00
  weight for this iteration     100.00

 eigenvalues of (default mixing * dielectric matrix)
  average eigenvalue GAMMA=   1.7976
  1.7976  1.7976

 Free energy of the ion-electron system (eV)
  ---------------------------------------------------
  alpha Z        PSCENC =       332.24841166
  Ewald energy   TEWEN  =     -6374.53395873
  -Hartree energ DENC   =     -1670.98193323
  -exchange      EXHF   =         0.00000000
  -V(xc)+E(xc)   XCENC  =       123.02255084
  PAW double counting   =      4532.63218981    -4166.70173556
  entropy T*S    EENTRO =         0.00000000
  eigenvalues    EBANDS =     -1275.04918097
  atomic energy  EATOM  =      8407.39227039
  Solvation  Ediel_sol  =         0.00000000
  ---------------------------------------------------
  free energy    TOTEN  =       -91.97138579 eV

  energy without entropy =      -91.97138579  energy(sigma->0) =      -91.97138579


--------------------------------------------------------------------------------------------------------




--------------------------------------- Iteration      1(   8)  ---------------------------------------


    POTLOK:  cpu time    0.9138: real time    0.9179
    SETDIJ:  cpu time    0.0470: real time    0.0471
     EDDAV:  cpu time    2.5962: real time    2.6024
 BZINTS: Fermi energy:  3.037511;144.000000 electrons
         Band energy:***********;  BLOECHL correction:  0.000000
       DOS:  cpu time    0.0079: real time    0.0079
    CHARGE:  cpu time    0.0765: real time    0.0766
    MIXING:  cpu time    0.0030: real time    0.0033
    --------------------------------------------
      LOOP:  cpu time    3.6444: real time    3.6552

 eigenvalue-minimisations  :  7640
 total energy-change (2. order) :-0.4502093E-01  (-0.1866276E+00)
 number of electron     144.0000013 magnetization 
 augmentation part        0.4351213 magnetization 

 Broyden mixing:
  rms(total) = 0.81484E-01    rms(broyden)= 0.81483E-01
  rms(prec ) = 0.14862E+00
  weight for this iteration     100.00

 eigenvalues of (default mixing * dielectric matrix)
  average eigenvalue GAMMA=   1.6234
  2.4607  1.2048  1.2048

 Free energy of the ion-electron system (eV)
  ---------------------------------------------------
  alpha Z        PSCENC =       332.24841166
  Ewald energy   TEWEN  =     -6374.53395873
  -Hartree energ DENC   =     -1661.69837633
  -exchange      EXHF   =         0.00000000
  -V(xc)+E(xc)   XCENC  =       123.00847261
  PAW double counting   =      4578.65310404    -4217.64845317
  entropy T*S    EENTRO =         0.00000000
  eigenvalues    EBANDS =     -1279.43787718
  atomic energy  EATOM  =      8407.39227039
  Solvation  Ediel_sol  =         0.00000000
  ---------------------------------------------------
  free energy    TOTEN  =       -92.01640672 eV

  energy without entropy =      -92.01640672  energy(sigma->0) =      -92.01640672


--------------------------------------------------------------------------------------------------------




--------------------------------------- Iteration      1(   9)  ---------------------------------------


    POTLOK:  cpu time    0.9164: real time    0.9203
    SETDIJ:  cpu time    0.0444: real time    0.0445
     EDDAV:  cpu time    2.4433: real time    2.4491
 BZINTS: Fermi energy:  3.054854;144.000000 electrons
         Band energy:***********;  BLOECHL correction:  0.000000
       DOS:  cpu time    0.0068: real time    0.0068
    CHARGE:  cpu time    0.0767: real time    0.0768
    MIXING:  cpu time    0.0029: real time    0.0030
    --------------------------------------------
      LOOP:  cpu time    3.4905: real time    3.5006

 eigenvalue-minimisations  :  7088
 total energy-change (2. order) : 0.5298006E-01  (-0.4744014E-01)
 number of electron     144.0000013 magnetization 
 augmentation part        0.4498106 magnetization 

 Broyden mixing:
  rms(total) = 0.23875E-01    rms(broyden)= 0.23875E-01
  rms(prec ) = 0.27950E-01
  weight for this iteration     100.00

 eigenvalues of (default mixing * dielectric matrix)
  average eigenvalue GAMMA=   1.6906
  2.2219  2.2219  1.1593  1.1593

 Free energy of the ion-electron system (eV)
  ---------------------------------------------------
  alpha Z        PSCENC =       332.24841166
  Ewald energy   TEWEN  =     -6374.53395873
  -Hartree energ DENC   =     -1661.50786251
  -exchange      EXHF   =         0.00000000
  -V(xc)+E(xc)   XCENC  =       123.34588880
  PAW double counting   =      4588.85628675    -4230.19460228
  entropy T*S    EENTRO =         0.00000000
  eigenvalues    EBANDS =     -1277.56986074
  atomic energy  EATOM  =      8407.39227039
  Solvation  Ediel_sol  =         0.00000000
  ---------------------------------------------------
  free energy    TOTEN  =       -91.96342666 eV

  energy without entropy =      -91.96342666  energy(sigma->0) =      -91.96342666


--------------------------------------------------------------------------------------------------------




--------------------------------------- Iteration      1(  10)  ---------------------------------------


    POTLOK:  cpu time    0.9150: real time    0.9191
    SETDIJ:  cpu time    0.0532: real time    0.0533
     EDDAV:  cpu time    3.0569: real time    3.0641
 BZINTS: Fermi energy:  3.046099;144.000000 electrons
         Band energy:***********;  BLOECHL correction:  0.000000
       DOS:  cpu time    0.0067: real time    0.0067
    CHARGE:  cpu time    0.0772: real time    0.0774
    MIXING:  cpu time    0.0030: real time    0.0030
    --------------------------------------------
      LOOP:  cpu time    4.1120: real time    4.1237

 eigenvalue-minimisations  :  9416
 total energy-change (2. order) :-0.8060051E-02  (-0.7327974E-02)
 number of electron     144.0000013 magnetization 
 augmentation part        0.3880987 magnetization 

 Broyden mixing:
  rms(total) = 0.18185E-01    rms(broyden)= 0.18185E-01
  rms(prec ) = 0.22359E-01
  weight for this iteration     100.00

 eigenvalues of (default mixing * dielectric matrix)
  average eigenvalue GAMMA=   1.7157
  2.7982  2.7982  1.1178  1.1178  0.7465

 Free energy of the ion-electron system (eV)
  ---------------------------------------------------
  alpha Z        PSCENC =       332.24841166
  Ewald energy   TEWEN  =     -6374.53395873
  -Hartree energ DENC   =     -1662.59870206
  -exchange      EXHF   =         0.00000000
  -V(xc)+E(xc)   XCENC  =       123.35270064
  PAW double counting   =      4596.59113862    -4236.66616681
  entropy T*S    EENTRO =         0.00000000
  eigenvalues    EBANDS =     -1277.75718041
  atomic energy  EATOM  =      8407.39227039
  Solvation  Ediel_sol  =         0.00000000
  ---------------------------------------------------
  free energy    TOTEN  =       -91.97148671 eV

  energy without entropy =      -91.97148671  energy(sigma->0) =      -91.97148671


--------------------------------------------------------------------------------------------------------




--------------------------------------- Iteration      1(  11)  ---------------------------------------


    POTLOK:  cpu time    0.9161: real time    0.9203
    SETDIJ:  cpu time    0.0460: real time    0.0461
     EDDAV:  cpu time    2.8013: real time    2.8079
 BZINTS: Fermi energy:  3.148202;144.000000 electrons
         Band energy:***********;  BLOECHL correction:  0.000000
       DOS:  cpu time    0.0082: real time    0.0082
    CHARGE:  cpu time    0.0779: real time    0.0781
    MIXING:  cpu time    0.0030: real time    0.0031
    --------------------------------------------
      LOOP:  cpu time    3.8526: real time    3.8637

 eigenvalue-minimisations  :  8408
 total energy-change (2. order) :-0.7164767E-03  (-0.2397383E-03)
 number of electron     144.0000013 magnetization 
 augmentation part        0.3866878 magnetization 

 Broyden mixing:
  rms(total) = 0.85676E-02    rms(broyden)= 0.85676E-02
  rms(prec ) = 0.12085E-01
  weight for this iteration     100.00

 eigenvalues of (default mixing * dielectric matrix)
  average eigenvalue GAMMA=   1.6067
  2.7762  1.9788  1.6634  1.0017  1.1099  1.1099

 Free energy of the ion-electron system (eV)
  ---------------------------------------------------
  alpha Z        PSCENC =       332.24841166
  Ewald energy   TEWEN  =     -6374.53395873
  -Hartree energ DENC   =     -1663.78733575
  -exchange      EXHF   =         0.00000000
  -V(xc)+E(xc)   XCENC  =       123.41538320
  PAW double counting   =      4602.59261941    -4241.89737678
  entropy T*S    EENTRO =         0.00000000
  eigenvalues    EBANDS =     -1277.40221658
  atomic energy  EATOM  =      8407.39227039
  Solvation  Ediel_sol  =         0.00000000
  ---------------------------------------------------
  free energy    TOTEN  =       -91.97220319 eV

  energy without entropy =      -91.97220319  energy(sigma->0) =      -91.97220319


--------------------------------------------------------------------------------------------------------




--------------------------------------- Iteration      1(  12)  ---------------------------------------


    POTLOK:  cpu time    0.9154: real time    0.9193
    SETDIJ:  cpu time    0.0454: real time    0.0455
     EDDAV:  cpu time    2.4782: real time    2.4841
 BZINTS: Fermi energy:  3.143924;144.000000 electrons
         Band energy:***********;  BLOECHL correction:  0.000000
       DOS:  cpu time    0.0082: real time    0.0082
    CHARGE:  cpu time    0.0765: real time    0.0767
    MIXING:  cpu time    0.0031: real time    0.0031
    --------------------------------------------
      LOOP:  cpu time    3.5268: real time    3.5369

 eigenvalue-minimisations  :  7256
 total energy-change (2. order) : 0.6106770E-04  (-0.8430549E-04)
 number of electron     144.0000013 magnetization 
 augmentation part        0.3853149 magnetization 

 Broyden mixing:
  rms(total) = 0.65289E-02    rms(broyden)= 0.65289E-02
  rms(prec ) = 0.78033E-02
  weight for this iteration     100.00

 eigenvalues of (default mixing * dielectric matrix)
  average eigenvalue GAMMA=   1.6577
  3.0242  2.6021  1.7926  1.1248  1.1248  1.1333  0.8024

 Free energy of the ion-electron system (eV)
  ---------------------------------------------------
  alpha Z        PSCENC =       332.24841166
  Ewald energy   TEWEN  =     -6374.53395873
  -Hartree energ DENC   =     -1663.55454026
  -exchange      EXHF   =         0.00000000
  -V(xc)+E(xc)   XCENC  =       123.45008712
  PAW double counting   =      4603.37370439    -4243.08222044
  entropy T*S    EENTRO =         0.00000000
  eigenvalues    EBANDS =     -1277.26589625
  atomic energy  EATOM  =      8407.39227039
  Solvation  Ediel_sol  =         0.00000000
  ---------------------------------------------------
  free energy    TOTEN  =       -91.97214212 eV

  energy without entropy =      -91.97214212  energy(sigma->0) =      -91.97214212


--------------------------------------------------------------------------------------------------------




--------------------------------------- Iteration      1(  13)  ---------------------------------------


    POTLOK:  cpu time    0.9153: real time    0.9193
    SETDIJ:  cpu time    0.0462: real time    0.0464
     EDDAV:  cpu time    2.7802: real time    2.7868
 BZINTS: Fermi energy:  3.141291;144.000000 electrons
         Band energy:***********;  BLOECHL correction:  0.000000
       DOS:  cpu time    0.0080: real time    0.0080
    CHARGE:  cpu time    0.0781: real time    0.0783
    MIXING:  cpu time    0.0032: real time    0.0033
    --------------------------------------------
      LOOP:  cpu time    3.8311: real time    3.8420

 eigenvalue-minimisations  :  8280
 total energy-change (2. order) : 0.2342879E-04  (-0.3916038E-04)
 number of electron     144.0000013 magnetization 
 augmentation part        0.3864971 magnetization 

 Broyden mixing:
  rms(total) = 0.80347E-03    rms(broyden)= 0.80346E-03
  rms(prec ) = 0.98825E-03
  weight for this iteration     100.00

 eigenvalues of (default mixing * dielectric matrix)
  average eigenvalue GAMMA=   1.6149
  2.9962  2.2337  2.2337  1.1617  1.1617  1.1244  1.1244  0.8835

 Free energy of the ion-electron system (eV)
  ---------------------------------------------------
  alpha Z        PSCENC =       332.24841166
  Ewald energy   TEWEN  =     -6374.53395873
  -Hartree energ DENC   =     -1663.98298154
  -exchange      EXHF   =         0.00000000
  -V(xc)+E(xc)   XCENC  =       123.46612056
  PAW double counting   =      4603.84290584    -4243.30292802
  entropy T*S    EENTRO =         0.00000000
  eigenvalues    EBANDS =     -1277.10195885
  atomic energy  EATOM  =      8407.39227039
  Solvation  Ediel_sol  =         0.00000000
  ---------------------------------------------------
  free energy    TOTEN  =       -91.97211869 eV

  energy without entropy =      -91.97211869  energy(sigma->0) =      -91.97211869


--------------------------------------------------------------------------------------------------------




--------------------------------------- Iteration      1(  14)  ---------------------------------------


    POTLOK:  cpu time    0.9177: real time    0.9215
    SETDIJ:  cpu time    0.0973: real time    0.0975
     EDDAV:  cpu time    2.6940: real time    2.7004
 BZINTS: Fermi energy:  3.138556;144.000000 electrons
         Band energy:***********;  BLOECHL correction:  0.000000
       DOS:  cpu time    0.0080: real time    0.0080
    CHARGE:  cpu time    0.0790: real time    0.0791
    MIXING:  cpu time    0.0032: real time    0.0033
    --------------------------------------------
      LOOP:  cpu time    3.7992: real time    3.8099

 eigenvalue-minimisations  :  7896
 total energy-change (2. order) :-0.4936890E-05  (-0.4367161E-05)
 number of electron     144.0000013 magnetization 
 augmentation part        0.3877758 magnetization 

 Broyden mixing:
  rms(total) = 0.48502E-03    rms(broyden)= 0.48502E-03
  rms(prec ) = 0.62987E-03
  weight for this iteration     100.00

 eigenvalues of (default mixing * dielectric matrix)
  average eigenvalue GAMMA=   1.6768
  3.0996  2.5082  2.5082  1.8390  1.1484  1.1484  1.0566  0.8915  0.8915

 Free energy of the ion-electron system (eV)
  ---------------------------------------------------
  alpha Z        PSCENC =       332.24841166
  Ewald energy   TEWEN  =     -6374.53395873
  -Hartree energ DENC   =     -1664.00001662
  -exchange      EXHF   =         0.00000000
  -V(xc)+E(xc)   XCENC  =       123.46720114
  PAW double counting   =      4603.59153626    -4243.06209615
  entropy T*S    EENTRO =         0.00000000
  eigenvalues    EBANDS =     -1277.07547157
  atomic energy  EATOM  =      8407.39227039
  Solvation  Ediel_sol  =         0.00000000
  ---------------------------------------------------
  free energy    TOTEN  =       -91.97212363 eV

  energy without entropy =      -91.97212363  energy(sigma->0) =      -91.97212363


--------------------------------------------------------------------------------------------------------




--------------------------------------- Iteration      1(  15)  ---------------------------------------


    POTLOK:  cpu time    0.9161: real time    0.9211
    SETDIJ:  cpu time    0.0954: real time    0.0956
     EDDAV:  cpu time    2.3164: real time    2.3218
 BZINTS: Fermi energy:  3.136428;144.000000 electrons
         Band energy:***********;  BLOECHL correction:  0.000000
       DOS:  cpu time    0.0078: real time    0.0078
    --------------------------------------------
      LOOP:  cpu time    3.3356: real time    3.3464

 eigenvalue-minimisations  :  6488
 total energy-change (2. order) : 0.2732486E-06  (-0.7162582E-06)
 number of electron     144.0000013 magnetization 
 augmentation part        0.3877758 magnetization 

 Free energy of the ion-electron system (eV)
  ---------------------------------------------------
  alpha Z        PSCENC =       332.24841166
  Ewald energy   TEWEN  =     -6374.53395873
  -Hartree energ DENC   =     -1664.01051766
  -exchange      EXHF   =         0.00000000
  -V(xc)+E(xc)   XCENC  =       123.46678444
  PAW double counting   =      4603.42488342    -4242.89146251
  entropy T*S    EENTRO =         0.00000000
  eigenvalues    EBANDS =     -1277.06853436
  atomic energy  EATOM  =      8407.39227039
  Solvation  Ediel_sol  =         0.00000000
  ---------------------------------------------------
  free energy    TOTEN  =       -91.97212336 eV

  energy without entropy =      -91.97212336  energy(sigma->0) =      -91.97212336


--------------------------------------------------------------------------------------------------------




 average (electrostatic) potential at core
  the test charge radii are     1.1929  0.9892
  (the norm of the test charge is              1.0000)
       1 -38.5975       2 -38.5975       3 -38.5975       4 -38.5975       5 -38.7724
       6 -38.7724       7 -38.7724       8 -38.7724       9 -85.7172      10 -85.7172
      11 -85.7172      12 -85.7172      13 -85.7172      14 -85.7172      15 -85.7172
      16 -85.7172      17 -85.7479      18 -85.7479      19 -85.7480      20 -85.7480
      21 -85.6703      22 -85.6703      23 -85.6703      24 -85.6703
 
 
 
 E-fermi :   3.1364     XC(G=0):  -8.5607     alpha+bet : -9.2320


 k-point     1 :       0.0000    0.0000    0.0000
  band No.  band energies     occupation 
      1     -32.6700      2.00000
      2     -32.6699      2.00000
      3     -32.6694      2.00000
      4     -32.6693      2.00000
      5     -32.5086      2.00000
      6     -32.5086      2.00000
      7     -32.5074      2.00000
      8     -32.5073      2.00000
      9     -14.7542      2.00000
     10     -14.7524      2.00000
     11     -14.7490      2.00000
     12     -14.7475      2.00000
     13     -14.7301      2.00000
     14     -14.7234      2.00000
     15     -14.7187      2.00000
     16     -14.7158      2.00000
     17     -14.7129      2.00000
     18     -14.7116      2.00000
     19     -14.7016      2.00000
     20     -14.6992      2.00000
     21     -14.6015      2.00000
     22     -14.5999      2.00000
     23     -14.5799      2.00000
     24     -14.5799      2.00000
     25     -14.5716      2.00000
     26     -14.5645      2.00000
     27     -14.5553      2.00000
     28     -14.5553      2.00000
     29     -14.5549      2.00000
     30     -14.5521      2.00000
     31     -14.5495      2.00000
     32     -14.5477      2.00000
     33      -7.7914      2.00000
     34      -7.6474      2.00000
     35      -7.6370      2.00000
     36      -7.6029      2.00000
     37      -3.2052      2.00000
     38      -3.1676      2.00000
     39      -2.8382      2.00000
     40      -2.8311      2.00000
     41      -2.7203      2.00000
     42      -2.7055      2.00000
     43      -2.6921      2.00000
     44      -2.5880      2.00000
     45      -2.5815      2.00000
     46      -2.5786      2.00000
     47      -2.5602      2.00000
     48      -2.2902      2.00000
     49      -0.7373      2.00000
     50       0.3410      2.00000
     51       0.3512      2.00000
     52       0.4805      2.00000
     53       0.8382      2.00000
     54       1.0667      2.00000
     55       1.1680      2.00000
     56       1.3058      2.00000
     57       1.4750      2.00000
     58       1.5172      2.00000
     59       1.5397      2.00000
     60       1.5948      2.00000
     61       1.6874      2.00000
     62       1.7071      2.00000
     63       1.7162      2.00000
     64       1.7508      2.00000
     65       1.7588      2.00000
     66       2.0134      2.00000
     67       2.0187      2.00000
     68       2.0220      2.00000
     69       2.4825      2.00000
     70       2.5958      2.00000
     71       2.7086      2.00000
     72       2.7826      2.00000
     73       4.0711      0.00000
     74       4.1515      0.00000
     75       4.4438      0.00000
     76       4.5369      0.00000
     77       4.5564      0.00000
     78       4.7121      0.00000
     79       4.9849      0.00000
     80       5.1815      0.00000
     81       5.4879      0.00000
     82       5.5614      0.00000
     83       5.5733      0.00000
     84       5.6932      0.00000
     85       5.7561      0.00000
     86       5.7843      0.00000
     87       5.9638      0.00000
     88       5.9861      0.00000

 k-point     2 :       0.2000    0.0000    0.0000
  band No.  band energies     occupation 
      1     -32.6700      2.00000
      2     -32.6699      2.00000
      3     -32.6694      2.00000
      4     -32.6693      2.00000
      5     -32.5085      2.00000
      6     -32.5085      2.00000
      7     -32.5076      2.00000
      8     -32.5075      2.00000
      9     -14.7543      2.00000
     10     -14.7531      2.00000
     11     -14.7485      2.00000
     12     -14.7475      2.00000
     13     -14.7294      2.00000
     14     -14.7239      2.00000
     15     -14.7175      2.00000
     16     -14.7156      2.00000
     17     -14.7133      2.00000
     18     -14.7119      2.00000
     19     -14.7016      2.00000
     20     -14.6996      2.00000
     21     -14.5998      2.00000
     22     -14.5972      2.00000
     23     -14.5827      2.00000
     24     -14.5803      2.00000
     25     -14.5695      2.00000
     26     -14.5636      2.00000
     27     -14.5556      2.00000
     28     -14.5550      2.00000
     29     -14.5547      2.00000
     30     -14.5524      2.00000
     31     -14.5517      2.00000
     32     -14.5503      2.00000
     33      -7.7726      2.00000
     34      -7.6445      2.00000
     35      -7.6358      2.00000
     36      -7.6196      2.00000
     37      -3.2196      2.00000
     38      -3.1248      2.00000
     39      -2.9898      2.00000
     40      -2.7971      2.00000
     41      -2.6968      2.00000
     42      -2.6839      2.00000
     43      -2.6055      2.00000
     44      -2.5985      2.00000
     45      -2.5926      2.00000
     46      -2.5889      2.00000
     47      -2.5555      2.00000
     48      -2.4362      2.00000
     49      -0.5765      2.00000
     50       0.2880      2.00000
     51       0.3037      2.00000
     52       0.5310      2.00000
     53       0.8053      2.00000
     54       1.1120      2.00000
     55       1.2764      2.00000
     56       1.3141      2.00000
     57       1.4182      2.00000
     58       1.4342      2.00000
     59       1.4618      2.00000
     60       1.6027      2.00000
     61       1.7663      2.00000
     62       1.7840      2.00000
     63       1.7891      2.00000
     64       1.8656      2.00000
     65       1.8871      2.00000
     66       2.0299      2.00000
     67       2.0480      2.00000
     68       2.0557      2.00000
     69       2.4760      2.00000
     70       2.5910      2.00000
     71       2.6044      2.00000
     72       2.7654      2.00000
     73       4.1103      0.00000
     74       4.1546      0.00000
     75       4.4352      0.00000
     76       4.5863      0.00000
     77       4.6258      0.00000
     78       4.6450      0.00000
     79       4.6719      0.00000
     80       5.0625      0.00000
     81       5.1181      0.00000
     82       5.3585      0.00000
     83       5.4475      0.00000
     84       5.5669      0.00000
     85       5.7555      0.00000
     86       5.9265      0.00000
     87       5.9897      0.00000
     88       6.1411      0.00000

 k-point     3 :       0.4000    0.0000    0.0000
  band No.  band energies     occupation 
      1     -32.6700      2.00000
      2     -32.6699      2.00000
      3     -32.6693      2.00000
      4     -32.6693      2.00000
      5     -32.5082      2.00000
      6     -32.5082      2.00000
      7     -32.5079      2.00000
      8     -32.5078      2.00000
      9     -14.7545      2.00000
     10     -14.7541      2.00000
     11     -14.7478      2.00000
     12     -14.7475      2.00000
     13     -14.7274      2.00000
     14     -14.7253      2.00000
     15     -14.7151      2.00000
     16     -14.7150      2.00000
     17     -14.7143      2.00000
     18     -14.7129      2.00000
     19     -14.7013      2.00000
     20     -14.7005      2.00000
     21     -14.5947      2.00000
     22     -14.5907      2.00000
     23     -14.5882      2.00000
     24     -14.5841      2.00000
     25     -14.5639      2.00000
     26     -14.5610      2.00000
     27     -14.5569      2.00000
     28     -14.5562      2.00000
     29     -14.5555      2.00000
     30     -14.5553      2.00000
     31     -14.5539      2.00000
     32     -14.5530      2.00000
     33      -7.7240      2.00000
     34      -7.6658      2.00000
     35      -7.6378      2.00000
     36      -7.6349      2.00000
     37      -3.2195      2.00000
     38      -3.1464      2.00000
     39      -2.9879      2.00000
     40      -2.7879      2.00000
     41      -2.6752      2.00000
     42      -2.6667      2.00000
     43      -2.6530      2.00000
     44      -2.6263      2.00000
     45      -2.6198      2.00000
     46      -2.6126      2.00000
     47      -2.5407      2.00000
     48      -2.5390      2.00000
     49      -0.2449      2.00000
     50       0.0866      2.00000
     51       0.3096      2.00000
     52       0.4461      2.00000
     53       0.9364      2.00000
     54       1.0876      2.00000
     55       1.3262      2.00000
     56       1.3424      2.00000
     57       1.3626      2.00000
     58       1.3640      2.00000
     59       1.5003      2.00000
     60       1.5979      2.00000
     61       1.8541      2.00000
     62       1.8778      2.00000
     63       1.9412      2.00000
     64       2.0131      2.00000
     65       2.0745      2.00000
     66       2.1043      2.00000
     67       2.1725      2.00000
     68       2.2690      2.00000
     69       2.4306      2.00000
     70       2.4491      2.00000
     71       2.4501      2.00000
     72       2.6225      2.00000
     73       4.1549      0.00000
     74       4.2265      0.00000
     75       4.2529      0.00000
     76       4.5058      0.00000
     77       4.5181      0.00000
     78       4.5558      0.00000
     79       4.5916      0.00000
     80       4.7378      0.00000
     81       5.1099      0.00000
     82       5.1897      0.00000
     83       5.3186      0.00000
     84       5.4987      0.00000
     85       5.5126      0.00000
     86       5.7139      0.00000
     87       5.9204      0.00000
     88       6.0993      0.00000

 k-point     4 :       0.0000    0.1667    0.0000
  band No.  band energies     occupation 
      1     -32.6700      2.00000
      2     -32.6699      2.00000
      3     -32.6694      2.00000
      4     -32.6693      2.00000
      5     -32.5086      2.00000
      6     -32.5086      2.00000
      7     -32.5074      2.00000
      8     -32.5073      2.00000
      9     -14.7544      2.00000
     10     -14.7525      2.00000
     11     -14.7492      2.00000
     12     -14.7486      2.00000
     13     -14.7288      2.00000
     14     -14.7256      2.00000
     15     -14.7200      2.00000
     16     -14.7197      2.00000
     17     -14.7126      2.00000
     18     -14.7076      2.00000
     19     -14.7008      2.00000
     20     -14.7002      2.00000
     21     -14.6016      2.00000
     22     -14.6000      2.00000
     23     -14.5800      2.00000
     24     -14.5797      2.00000
     25     -14.5697      2.00000
     26     -14.5639      2.00000
     27     -14.5564      2.00000
     28     -14.5558      2.00000
     29     -14.5544      2.00000
     30     -14.5521      2.00000
     31     -14.5495      2.00000
     32     -14.5479      2.00000
     33      -7.7717      2.00000
     34      -7.6412      2.00000
     35      -7.6374      2.00000
     36      -7.6025      2.00000
     37      -3.1906      2.00000
     38      -3.1224      2.00000
     39      -2.8283      2.00000
     40      -2.8188      2.00000
     41      -2.7632      2.00000
     42      -2.7579      2.00000
     43      -2.7089      2.00000
     44      -2.7071      2.00000
     45      -2.6347      2.00000
     46      -2.5759      2.00000
     47      -2.5565      2.00000
     48      -2.3079      2.00000
     49      -0.4931      2.00000
     50       0.4712      2.00000
     51       0.4878      2.00000
     52       0.6523      2.00000
     53       0.8075      2.00000
     54       0.8380      2.00000
     55       1.0820      2.00000
     56       1.3497      2.00000
     57       1.4672      2.00000
     58       1.5178      2.00000
     59       1.5259      2.00000
     60       1.5825      2.00000
     61       1.6056      2.00000
     62       1.6895      2.00000
     63       1.7900      2.00000
     64       1.7942      2.00000
     65       1.8420      2.00000
     66       1.8856      2.00000
[...]
     17     -13.2036      2.00000
     18     -13.2036      2.00000
     19     -13.1986      2.00000
     20     -13.1986      2.00000
     21     -13.0543      2.00000
     22     -13.0543      2.00000
     23     -13.0151      2.00000
     24     -13.0151      2.00000
     25     -13.0070      2.00000
     26     -13.0070      2.00000
     27     -12.9927      2.00000
     28     -12.9927      2.00000
     29     -12.9904      2.00000
     30     -12.9904      2.00000
     31     -12.9775      2.00000
     32     -12.9775      2.00000
     33      -6.7543      2.00000
     34      -6.7543      2.00000
     35      -6.6974      2.00000
     36      -6.6974      2.00000
     37      -2.6145      2.00000
     38      -2.6145      2.00000
     39      -2.2251      2.00000
     40      -2.2251      2.00000
     41      -1.9940      2.00000
     42      -1.9940      2.00000
     43      -1.8746      2.00000
     44      -1.8746      2.00000
     45      -1.6581      2.00000
     46      -1.6581      2.00000
     47      -1.5715      2.00000
     48      -1.5715      2.00000
     49       0.9963      2.00000
     50       0.9963      2.00000
     51       1.2200      2.00000
     52       1.2200      2.00000
     53       1.8422      2.00000
     54       1.8422      2.00000
     55       1.8987      2.00000
     56       1.8987      2.00000
     57       2.2902      2.00000
     58       2.2903      2.00000
     59       2.3348      2.00000
     60       2.3348      2.00000
     61       2.8035      2.00000
     62       2.8035      2.00000
     63       2.8421      2.00000
     64       2.8421      2.00000
     65       3.0640      2.00000
     66       3.0640      2.00000
     67       3.1538      2.00000
     68       3.1538      2.00000
     69       3.4799      2.00000
     70       3.4799      2.00000
     71       3.6943      2.00000
     72       3.6943      2.00000
     73       4.7226      0.00000
     74       4.7226      0.00000
     75       4.9706      0.00000
     76       4.9706      0.00000
     77       5.3802      0.00000
     78       5.3802      0.00000
     79       5.5458      0.00000
     80       5.5458      0.00000
     81       6.0636      0.00000
     82       6.0636      0.00000
     83       6.1004      0.00000
     84       6.1004      0.00000
     85       6.6602      0.00000
     86       6.6602      0.00000
     87       7.0778      0.00000
     88       7.0778      0.00000

 k-point    36 :       0.4000    0.5000    0.5000
  band No.  band energies     occupation 
      1     -31.1003      2.00000
      2     -31.1003      2.00000
      3     -31.1002      2.00000
      4     -31.1002      2.00000
      5     -30.8661      2.00000
      6     -30.8661      2.00000
      7     -30.8651      2.00000
      8     -30.8651      2.00000
      9     -13.2654      2.00000
     10     -13.2654      2.00000
     11     -13.2640      2.00000
     12     -13.2640      2.00000
     13     -13.2501      2.00000
     14     -13.2501      2.00000
     15     -13.2490      2.00000
     16     -13.2490      2.00000
     17     -13.2015      2.00000
     18     -13.2015      2.00000
     19     -13.1992      2.00000
     20     -13.1992      2.00000
     21     -13.0392      2.00000
     22     -13.0392      2.00000
     23     -13.0238      2.00000
     24     -13.0238      2.00000
     25     -13.0008      2.00000
     26     -13.0008      2.00000
     27     -12.9927      2.00000
     28     -12.9927      2.00000
     29     -12.9919      2.00000
     30     -12.9919      2.00000
     31     -12.9882      2.00000
     32     -12.9882      2.00000
     33      -6.7294      2.00000
     34      -6.7294      2.00000
     35      -6.7075      2.00000
     36      -6.7075      2.00000
     37      -2.5778      2.00000
     38      -2.5778      2.00000
     39      -2.4462      2.00000
     40      -2.4462      2.00000
     41      -1.8811      2.00000
     42      -1.8811      2.00000
     43      -1.8388      2.00000
     44      -1.8388      2.00000
     45      -1.6858      2.00000
     46      -1.6858      2.00000
     47      -1.6274      2.00000
     48      -1.6274      2.00000
     49       1.1138      2.00000
     50       1.1138      2.00000
     51       1.3179      2.00000
     52       1.3179      2.00000
     53       1.8103      2.00000
     54       1.8103      2.00000
     55       1.9975      2.00000
     56       1.9975      2.00000
     57       2.4026      2.00000
     58       2.4026      2.00000
     59       2.4800      2.00000
     60       2.4800      2.00000
     61       2.6507      2.00000
     62       2.6508      2.00000
     63       2.7317      2.00000
     64       2.7317      2.00000
     65       3.1029      2.00000
     66       3.1029      2.00000
     67       3.1242      2.00000
     68       3.1242      2.00000
     69       3.5734      2.00000
     70       3.5734      2.00000
     71       3.5991      2.00000
     72       3.5991      2.00000
     73       4.8367      0.00000
     74       4.8367      0.00000
     75       5.0487      0.00000
     76       5.0487      0.00000
     77       5.2088      0.00000
     78       5.2088      0.00000
     79       5.3541      0.00000
     80       5.3541      0.00000
     81       6.0440      0.00000
     82       6.0440      0.00000
     83       6.2814      0.00000
     84       6.2814      0.00000
     85       6.6280      0.00000
     86       6.6280      0.00000
     87       6.8255      0.00000
     88       6.8255      0.00000


--------------------------------------------------------------------------------------------------------


 soft charge-density along one line, spin component           1
         0         1         2         3         4         5         6         7         8         9
 total charge-density along one line
 
 pseudopotential strength for first ion, spin component:           1
-11.448  -7.587   0.000   0.002   0.001  -0.000  -0.000  -0.000
 -7.587  -5.761   0.000  -0.002  -0.001  -0.000   0.000   0.000
  0.000   0.000 -15.120   0.000   0.000   0.117  -0.000  -0.000
  0.002  -0.002   0.000 -15.121   0.002  -0.000   0.117  -0.000
  0.001  -0.001   0.000   0.002 -15.120  -0.000  -0.000   0.117
 -0.000  -0.000   0.117  -0.000  -0.000   0.035  -0.000  -0.000
 -0.000   0.000  -0.000   0.117  -0.000  -0.000   0.036  -0.000
 -0.000   0.000  -0.000  -0.000   0.117  -0.000  -0.000   0.036
  0.000   0.000  -0.000   0.000   0.000   0.000  -0.000  -0.000
  0.000   0.000  -0.000   0.000   0.000   0.000  -0.000  -0.000
 -0.000  -0.000  -0.000   0.000   0.000   0.000   0.000  -0.000
  0.001   0.001   0.000   0.000   0.000  -0.000   0.000   0.000
 -0.000  -0.000  -0.000   0.000   0.000   0.000  -0.000   0.000
  0.000   0.000  -0.000   0.000   0.000   0.000   0.000   0.000
  0.000   0.000  -0.000   0.000   0.000  -0.000   0.000   0.000
 -0.000  -0.000  -0.000  -0.000   0.000  -0.000  -0.000  -0.000
  0.000   0.000   0.000  -0.000  -0.000   0.000  -0.000  -0.000
 -0.000  -0.000  -0.000   0.000  -0.000  -0.000   0.000  -0.000
 total augmentation occupancy for first ion, spin component:           1
  2.159  -0.349  -0.000  -0.006  -0.004   0.000   0.021   0.010  -0.000  -0.000   0.002  -0.010  -0.000   0.000  -0.000  -0.004
 -0.349   0.727   0.000   0.014   0.008   0.000  -0.042  -0.014   0.000  -0.000  -0.004   0.019   0.001   0.000   0.000   0.012
 -0.000   0.000   2.012  -0.000   0.000   0.028   0.000   0.000  -0.009  -0.003   0.000   0.000   0.000   0.021   0.013  -0.000
 -0.006   0.014  -0.000   2.011   0.002   0.000   0.034  -0.007   0.000   0.000   0.003   0.018   0.004   0.000   0.000   0.006
 -0.004   0.008   0.000   0.002   2.011   0.000  -0.007   0.031   0.000  -0.000   0.010   0.006   0.011   0.000   0.000  -0.025
  0.000   0.000   0.028   0.000   0.000   0.328   0.000   0.000   0.029   0.019  -0.000   0.000   0.000  -0.082  -0.063   0.000
  0.021  -0.042   0.000   0.034  -0.007  -0.000   0.320   0.013   0.000   0.000  -0.006  -0.047  -0.017   0.000   0.000   0.021
  0.010  -0.014   0.000  -0.007   0.031   0.000   0.013   0.330   0.000  -0.000  -0.030  -0.017  -0.026  -0.000   0.000   0.094
  0.000  -0.000  -0.009   0.000   0.000   0.029   0.000  -0.000   0.121  -0.045  -0.000   0.000   0.000  -0.382   0.139   0.000
 -0.000  -0.000  -0.003  -0.000   0.000   0.019  -0.000  -0.000  -0.045   0.081  -0.000   0.000   0.000   0.139  -0.252   0.000
  0.002  -0.004   0.000   0.003   0.010   0.000  -0.006  -0.030  -0.000   0.000   0.104   0.031   0.012   0.000   0.000  -0.329
 -0.010   0.019   0.000   0.018   0.006   0.000  -0.047  -0.017   0.000   0.000   0.031   0.114   0.028   0.000   0.000  -0.099
 -0.000   0.001  -0.000   0.004   0.011  -0.000  -0.017  -0.026  -0.000   0.000   0.012   0.028   0.084   0.000   0.000  -0.031
  0.000   0.000   0.021   0.000   0.000  -0.082  -0.000  -0.000  -0.382   0.139  -0.000   0.000   0.000   1.269  -0.466  -0.000
  0.000  -0.000   0.013   0.000  -0.000  -0.063   0.000   0.000   0.139  -0.252   0.000   0.000   0.000  -0.466   0.820   0.000
 -0.004   0.012  -0.000   0.006  -0.025   0.000   0.021   0.094   0.000   0.000  -0.329  -0.099  -0.031  -0.000  -0.000   1.092
  0.017  -0.042  -0.000  -0.043  -0.002   0.000   0.148   0.038  -0.000  -0.000  -0.099  -0.356  -0.084   0.000  -0.000   0.347
  0.008  -0.020   0.000  -0.006  -0.023   0.000   0.047   0.071   0.000   0.000  -0.032  -0.085  -0.262   0.000   0.000   0.092


------------------------ aborting loop because EDIFF is reached ----------------------------------------


    CHARGE:  cpu time    0.0799: real time    0.0801
    FORLOC:  cpu time    0.0039: real time    0.0039
    FORNL :  cpu time    0.4352: real time    0.4362
    STRESS:  cpu time    1.3286: real time    1.3317
    FORCOR:  cpu time    0.8953: real time    0.8974
    FORHAR:  cpu time    0.0080: real time    0.0080
    MIXING:  cpu time    0.0029: real time    0.0029
    OFIELD:  cpu time    0.0000: real time    0.0000

  FORCE on cell =-STRESS in cart. coord.  units (eV):
  Direction    XX          YY          ZZ          XY          YZ          ZX
  --------------------------------------------------------------------------------------
  Alpha Z   388.43661   388.43661   388.43661
  Ewald   -2267.63601 -2248.51645 -2246.02936    -0.00000    -0.00000    -0.00013
  Hartree   492.36859   509.75106   504.19618    -0.00000    -0.00000    -0.00000
  E(xc)    -500.68931  -500.56467  -500.55628    -0.00000    -0.00000    -0.00000
  Local     186.15917   155.35101   160.11216     0.00000     0.00000     0.00010
  n-local   228.36019   224.29067   225.10020    -0.13037    -0.14659    -0.13134
  augment   -71.73704   -70.56656   -70.84415     0.00000    -0.00000    -0.00000
  Kinetic  1543.73732  1541.59116  1538.91418     1.16270    -1.25857     0.25665
  Fock        0.00000     0.00000     0.00000     0.00000     0.00000     0.00000
  -------------------------------------------------------------------------------------
  Total      -1.00049    -0.22717    -0.67046     0.00000     0.00000     0.00000
  in kB      -2.64517    -0.60060    -1.77260     0.00000     0.00000     0.00000
  external pressure =       -1.67 kB  Pullay stress =        0.00 kB


 VOLUME and BASIS-vectors are now :
 -----------------------------------------------------------------------------
  energy-cutoff  :      500.00
  volume of cell :      606.00
      direct lattice vectors                 reciprocal lattice vectors
     8.568593312  0.000000000  0.000000000     0.116705270 -0.000000000  0.000000000
     0.000000000  6.421728586  0.000000000    -0.000000000  0.155721312  0.000000000
     0.000000000  0.000000000 11.013125654     0.000000000  0.000000000  0.090800744

  length of vectors
     8.568593312  6.421728586 11.013125654     0.116705270  0.155721312  0.090800744


 FORCES acting on ions
    electron-ion (+dipol)            ewald-force                    non-local-force                 convergence-correction
 -----------------------------------------------------------------------------------------------
   0.249E+01 0.958E-04 0.637E+01   -.284E+01 0.153E-04 -.680E+01   0.396E+00 0.209E-19 0.475E+00   -.125E-04 0.168E-08 -.585E-04
   -.249E+01 0.130E-04 -.637E+01   0.284E+01 -.216E-04 0.680E+01   -.396E+00 0.106E-18 -.475E+00   0.125E-04 0.246E-09 0.585E-04
   -.249E+01 0.769E-05 0.637E+01   0.284E+01 -.216E-04 -.680E+01   -.396E+00 -.682E-18 0.475E+00   0.125E-04 0.221E-09 -.585E-04
   0.249E+01 0.905E-04 -.637E+01   -.284E+01 0.153E-04 0.680E+01   0.396E+00 0.547E-18 -.475E+00   -.125E-04 0.166E-08 0.585E-04
   -.226E+02 0.112E-04 -.487E+01   0.218E+02 -.196E-04 0.507E+01   0.763E+00 -.852E-18 -.190E+00   -.549E-04 -.267E-09 -.586E-04
   0.226E+02 0.929E-04 0.487E+01   -.218E+02 0.188E-04 -.507E+01   -.763E+00 0.945E-18 0.190E+00   0.549E-04 0.119E-08 0.586E-04
   0.226E+02 0.918E-04 -.487E+01   -.218E+02 0.188E-04 0.507E+01   -.763E+00 -.116E-17 -.190E+00   0.549E-04 0.105E-08 -.586E-04
   -.226E+02 0.100E-04 0.487E+01   0.218E+02 -.196E-04 -.507E+01   0.763E+00 0.104E-17 0.190E+00   -.549E-04 -.400E-09 0.586E-04
   0.774E+01 0.236E+02 -.133E+02   -.831E+01 -.250E+02 0.142E+02   0.616E+00 0.144E+01 -.895E+00   -.626E-05 0.441E-04 0.130E-04
   -.774E+01 -.236E+02 0.133E+02   0.831E+01 0.250E+02 -.142E+02   -.616E+00 -.144E+01 0.895E+00   0.626E-05 -.441E-04 -.130E-04
   -.774E+01 -.236E+02 -.133E+02   0.831E+01 0.250E+02 0.142E+02   -.616E+00 -.144E+01 -.895E+00   0.626E-05 -.441E-04 0.130E-04
   0.774E+01 0.236E+02 0.133E+02   -.831E+01 -.250E+02 -.142E+02   0.616E+00 0.144E+01 0.895E+00   -.626E-05 0.441E-04 -.130E-04
   -.774E+01 0.236E+02 0.133E+02   0.831E+01 -.250E+02 -.142E+02   -.616E+00 0.144E+01 0.895E+00   0.626E-05 0.441E-04 -.130E-04
   0.774E+01 -.236E+02 -.133E+02   -.831E+01 0.250E+02 0.142E+02   0.616E+00 -.144E+01 -.895E+00   -.626E-05 -.441E-04 0.130E-04
   0.774E+01 -.236E+02 0.133E+02   -.831E+01 0.250E+02 -.142E+02   0.616E+00 -.144E+01 0.895E+00   -.626E-05 -.441E-04 -.130E-04
   -.774E+01 0.236E+02 -.133E+02   0.831E+01 -.250E+02 0.142E+02   -.616E+00 0.144E+01 -.895E+00   0.626E-05 0.441E-04 0.130E-04
   0.372E+02 -.108E-04 0.826E+00   -.392E+02 -.877E-05 -.173E+01   0.203E+01 0.837E-18 0.905E+00   -.137E-04 -.356E-09 0.569E-05
   -.372E+02 -.296E-05 -.826E+00   0.392E+02 0.892E-05 0.173E+01   -.203E+01 0.407E-18 -.905E+00   0.137E-04 -.221E-11 -.569E-05
   -.372E+02 0.779E-05 0.826E+00   0.392E+02 0.892E-05 -.173E+01   -.203E+01 0.162E-17 0.905E+00   0.137E-04 -.233E-10 0.568E-05
   0.372E+02 -.559E-07 -.826E+00   -.392E+02 -.877E-05 0.173E+01   0.203E+01 -.549E-19 -.905E+00   -.137E-04 -.377E-09 -.568E-05
   0.547E+01 -.502E-05 0.273E+02   -.537E+01 0.960E-05 -.289E+02   -.949E-01 0.829E-18 0.161E+01   0.350E-04 0.686E-10 0.475E-04
   -.547E+01 -.117E-04 -.273E+02   0.537E+01 -.102E-04 0.289E+02   0.949E-01 0.124E-17 -.161E+01   -.350E-04 -.258E-09 -.475E-04
   -.547E+01 0.327E-06 0.273E+02   0.537E+01 -.102E-04 -.289E+02   0.949E-01 0.104E-16 0.161E+01   -.350E-04 -.145E-09 0.475E-04
   0.547E+01 0.703E-05 -.273E+02   -.537E+01 0.960E-05 0.289E+02   -.949E-01 0.861E-17 -.161E+01   0.350E-04 0.182E-09 -.475E-04
 -----------------------------------------------------------------------------------------------
   -.334E-03 0.463E-03 0.500E-04   0.462E-13 0.626E-14 -.284E-13   -.133E-14 0.246E-15 0.444E-15   -.285E-08 0.429E-08 -.369E-10
 
 
 POSITION                                       TOTAL-FORCE (eV/Angst)
 -----------------------------------------------------------------------------------
      0.12948      1.60543      7.62424         0.044738     -0.000000      0.047123
      8.43911      4.81630      3.38888        -0.044738     -0.000000     -0.047123
      4.15482      4.81630      2.11768        -0.044738     -0.000000      0.047123
      4.41378      1.60543      8.89545         0.044738      0.000000     -0.047123
      1.35491      4.81630      9.98590         0.007909      0.000000      0.005733
      7.21368      1.60543      1.02722        -0.007909      0.000000     -0.005733
      2.92938      1.60543      4.47934        -0.007909      0.000000      0.005733
      5.63921      4.81630      6.53379         0.007909     -0.000000     -0.005733
      1.64638      0.39944      1.64382         0.053719      0.013353     -0.051090
      6.92222      6.02229      9.36931        -0.053719     -0.013353      0.051090
      2.63792      6.02229      7.15038        -0.053719     -0.013353     -0.051090
      5.93067      0.39944      3.86274         0.053719      0.013353      0.051090
      6.92222      3.61030      9.36931        -0.053719      0.013353      0.051090
      1.64638      2.81142      1.64382         0.053719     -0.013353     -0.051090
      5.93067      2.81142      3.86274         0.053719     -0.013353      0.051090
      2.63792      3.61030      7.15038        -0.053719      0.013353     -0.051090
      0.63122      4.81630      6.51149        -0.036276     -0.000000      0.004064
      7.93737      1.60543      4.50164         0.036276      0.000000     -0.004064
      3.65307      1.60543      1.00492         0.036276      0.000000      0.004064
      4.91552      4.81630     10.00820        -0.036276     -0.000000     -0.004064
      1.67728      1.60543     10.56943         0.004017      0.000000     -0.039175
      6.89132      4.81630      0.44370        -0.004017     -0.000000      0.039175
      2.60702      4.81630      5.06286        -0.004017      0.000000     -0.039175
      5.96157      1.60543      5.95026         0.004017     -0.000000      0.039175
 -----------------------------------------------------------------------------------
    total drift:                               -0.000334      0.000463      0.000050


--------------------------------------------------------------------------------------------------------



  FREE ENERGIE OF THE ION-ELECTRON SYSTEM (eV)
  ---------------------------------------------------
  free  energy   TOTEN  =       -93.81631748 eV

  energy  without entropy=      -93.81631748  energy(sigma->0) =      -93.81631748
 
 d Force = 0.8658320E-03[ 0.808E-03, 0.924E-03]  d Energy = 0.2102342E-03 0.656E-03
 d Force =-0.3317626E-01[-0.336E-01,-0.328E-01]  d Ewald  =-0.2755432E+01 0.272E+01


--------------------------------------------------------------------------------------------------------


    POTLOK:  cpu time    1.0097: real time    1.0121


--------------------------------------------------------------------------------------------------------




--------------------------------------------------------------------------------------------------------


  
 reached required accuracy - stopping structural energy minimisation
 writing wavefunctions
     LOOP+:  cpu time   35.3819: real time   35.8891
    4ORBIT:  cpu time    0.0000: real time    0.0000
 BZINTS: Fermi energy:  4.200558;144.000000 electrons
         Band energy:***********;  BLOECHL correction:  0.000000

 total amount of memory used by VASP MPI-rank0    67903. kBytes
=======================================================================

   base      :      30000. kBytes
   nonlr-proj:       2711. kBytes
   fftplans  :       2347. kBytes
   grid      :       3658. kBytes
   one-center:         93. kBytes
   wavefun   :      29094. kBytes
 
  
  
 General timing and accounting informations for this job:
 ========================================================
  
                  Total CPU time used (sec):      324.947
                            User time (sec):      322.577
                          System time (sec):        2.370
                         Elapsed time (sec):      329.240
  
                   Maximum memory used (kb):      260896.
                   Average memory used (kb):           0.
  
                          Minor page faults:        96746
                          Major page faults:          285
                 Voluntary context switches:        16403
