 vasp.5.4.4.18Apr17-6-g9f103f2a35 (build Nov 21 2017 15:30:27) complex          
  
 executed on             LinuxIFC date 2020.09.16  14:48:39
 running on   64 total cores
 distrk:  each k-point on   32 cores,    2 groups
 distr:  one band on NCORES_PER_BAND=   4 cores,    8 groups


--------------------------------------------------------------------------------------------------------


 INCAR:
 POTCAR:   PAW_PBE Ba_sv 06Sep2000                
 POTCAR:   PAW_PBE Si 05Jan2001                   

 ----------------------------------------------------------------------------- 
|                                                                             |
|           W    W    AA    RRRRR   N    N  II  N    N   GGGG   !!!           |
|           W    W   A  A   R    R  NN   N  II  NN   N  G    G  !!!           |
|           W    W  A    A  R    R  N N  N  II  N N  N  G       !!!           |
|           W WW W  AAAAAA  RRRRR   N  N N  II  N  N N  G  GGG   !            |
|           WW  WW  A    A  R   R   N   NN  II  N   NN  G    G                |
|           W    W  A    A  R    R  N    N  II  N    N   GGGG   !!!           |
|                                                                             |
|      You have enabled k-point parallelism (KPAR>1).                         |
|      This developmental code was originally  written by Paul Kent at ORNL,  |
|      and carefully double checked in Vienna.                                |
|      GW as well as linear response parallelism added by Martijn Marsman     |
|      and Georg Kresse.                                                      |
|      Carefully verify results versus KPAR=1.                                |
|      Report problems to Paul Kent and Vienna.                               |
|                                                                             |
 ----------------------------------------------------------------------------- 


 ----------------------------------------------------------------------------- 
|                                                                             |
|  ADVICE TO THIS USER RUNNING 'VASP/VAMP'   (HEAR YOUR MASTER'S VOICE ...):  |
|                                                                             |
|      You have switched on vdW-DFT.                                          |
|      This routine was written and supplied by Jiri Klimes.                  |
|      We recommed that you carefully read and cite the following             |
|      publication                                                            |
|      J. Klimes, D.R. Bowler, A. Michelides                                  |
|        J. Phys.: Cond Matt. 22 022201 (2010)                                |
|      J. Klimes, D.R. Bowler, A. Michelides                                  |
|        Phys. Rev. B. 83, 195131 (2011)                                      |
|      and references therein.                                                |
|                                                                             |
 ----------------------------------------------------------------------------- 

 POTCAR:   PAW_PBE Ba_sv 06Sep2000                
   VRHFIN =Ba: 5s5p6s                                                           
   LEXCH  = PE                                                                  
   EATOM  =   700.2255 eV,   51.4651 Ry                                         
                                                                                
   TITEL  = PAW_PBE Ba_sv 06Sep2000                                             
   LULTRA =        F    use ultrasoft PP ?                                      
   IUNSCR =        1    unscreen: 0-lin 1-nonlin 2-no                           
   RPACOR =    2.400    partial core radius                                     
   POMASS =  137.327; ZVAL   =   10.000    mass and valenz                      
   RCORE  =    2.800    outmost cutoff radius                                   
   RWIGS  =    3.740; RWIGS  =    1.979    wigner-seitz radius (au A)           
   ENMAX  =  187.210; ENMIN  =  140.408 eV                                      
   RCLOC  =    2.516    cutoff for local pot                                    
   LCOR   =        T    correct aug charges                                     
   LPAW   =        T    paw PP                                                  
   EAUG   =  351.165                                                            
   DEXC   =     .000                                                            
   RMAX   =    3.370    core radius for proj-oper                               
   RAUG   =    1.300    factor for augmentation sphere                          
   RDEP   =    2.976    radius for radial grids                                 
   QCUT   =   -3.709; QGAM   =    7.419    optimization parameters              
                                                                                
   Description                                                                  
     l     E      TYP  RCUT    TYP  RCUT                                        
     0   .000     23  2.800                                                     
     0   .000     23  2.800                                                     
     1   .000     23  2.700                                                     
     1  2.000     23  2.700                                                     
     2   .000     23  2.700                                                     
     2   .000     23  2.700                                                     
  local pseudopotential read in
  partial core-charges read in
  atomic valenz-charges read in
  non local Contribution for L=           0  read in
    real space projection operators read in
  non local Contribution for L=           0  read in
    real space projection operators read in
  non local Contribution for L=           1  read in
    real space projection operators read in
  non local Contribution for L=           1  read in
    real space projection operators read in
  non local Contribution for L=           2  read in
    real space projection operators read in
  non local Contribution for L=           2  read in
    real space projection operators read in
    PAW grid and wavefunctions read in
 
   number of l-projection  operators is LMAX  =           6
   number of lm-projection operators is LMMAX =          18
 
 POTCAR:   PAW_PBE Si 05Jan2001                   
   VRHFIN =Si: s2p2                                                             
   LEXCH  = PE                                                                  
   EATOM  =   103.0669 eV,    7.5752 Ry                                         
                                                                                
   TITEL  = PAW_PBE Si 05Jan2001                                                
   LULTRA =        F    use ultrasoft PP ?                                      
   IUNSCR =        1    unscreen: 0-lin 1-nonlin 2-no                           
   RPACOR =    1.500    partial core radius                                     
   POMASS =   28.085; ZVAL   =    4.000    mass and valenz                      
   RCORE  =    1.900    outmost cutoff radius                                   
   RWIGS  =    2.480; RWIGS  =    1.312    wigner-seitz radius (au A)           
   ENMAX  =  245.345; ENMIN  =  184.009 eV                                      
   ICORE  =        2    local potential                                         
   LCOR   =        T    correct aug charges                                     
   LPAW   =        T    paw PP                                                  
   EAUG   =  322.069                                                            
   DEXC   =    -.007                                                            
   RMAX   =    2.944    core radius for proj-oper                               
   RAUG   =    1.300    factor for augmentation sphere                          
   RDEP   =    1.993    radius for radial grids                                 
   QCUT   =   -4.246; QGAM   =    8.493    optimization parameters              
                                                                                
   Description                                                                  
     l     E      TYP  RCUT    TYP  RCUT                                        
     0   .000     23  1.900                                                     
     0   .000     23  1.900                                                     
     1   .000     23  1.900                                                     
     1   .000     23  1.900                                                     
     2   .000      7  1.900                                                     
  local pseudopotential read in
  partial core-charges read in
  atomic valenz-charges read in
  non local Contribution for L=           0  read in
    real space projection operators read in
  non local Contribution for L=           0  read in
    real space projection operators read in
  non local Contribution for L=           1  read in
    real space projection operators read in
  non local Contribution for L=           1  read in
    real space projection operators read in
    PAW grid and wavefunctions read in
 
   number of l-projection  operators is LMAX  =           4
   number of lm-projection operators is LMMAX =           8
 
 Optimization of the real space projectors (new method)

 maximal supplied QI-value         = 13.42
 optimisation between [QCUT,QGAM] = [ 11.40, 22.81] = [ 36.42,145.68] Ry 
 Optimized for a Real-space Cutoff    1.56 Angstroem

   l    n(q)    QCUT    max X(q) W(low)/X(q) W(high)/X(q)  e(spline) 
   0     11    11.404     7.198    0.14E-04    0.26E-04    0.99E-07
   0     11    11.404    15.603    0.29E-04    0.72E-04    0.44E-06
   1     10    11.404     3.746    0.20E-04    0.24E-04    0.43E-07
   1     10    11.404     4.362    0.22E-03    0.97E-04    0.22E-06
   2     10    11.404     5.782    0.83E-04    0.62E-05    0.27E-06
   2     10    11.404    65.505    0.42E-03    0.31E-04    0.12E-05
 Optimization of the real space projectors (new method)

 maximal supplied QI-value         = 19.84
 optimisation between [QCUT,QGAM] = [ 11.31, 22.82] = [ 35.82,145.81] Ry 
 Optimized for a Real-space Cutoff    1.16 Angstroem

   l    n(q)    QCUT    max X(q) W(low)/X(q) W(high)/X(q)  e(spline) 
   0      8    11.310     8.708    0.14E-04    0.11E-04    0.43E-08
   0      8    11.310   106.241    0.27E-03    0.30E-03    0.38E-07
   1      7    11.310     5.901    0.82E-05    0.48E-04    0.19E-07
   1      7    11.310    73.241    0.27E-03    0.27E-03    0.74E-07

 ----------------------------------------------------------------------------- 
|                                                                             |
|  ADVICE TO THIS USER RUNNING 'VASP/VAMP'   (HEAR YOUR MASTER'S VOICE ...):  |
|                                                                             |
|      You enforced a specific xc-type in the INCAR file,                     |
|      a different type was found on the POTCAR file                          |
|          I HOPE YOU KNOW, WHAT YOU ARE  DOING                               |
|                                                                             |
 ----------------------------------------------------------------------------- 

 PAW_PBE Ba_sv 06Sep2000                :
 energy of atom  1       EATOM= -700.2255
 kinetic energy error for atom=    0.0005 (will be added to EATOM!!)
 PAW_PBE Si 05Jan2001                   :
 energy of atom  2       EATOM= -103.0669
 kinetic energy error for atom=    0.0006 (will be added to EATOM!!)
 
 
 POSCAR: ba8 si16                                
  positions in direct lattice
  velocities in cartesian coordinates
 exchange correlation table for  LEXCH =       42
   RHO(1)=    0.500       N(1)  =     2000
   RHO(2)=  100.500       N(2)  =     4000
 


--------------------------------------------------------------------------------------------------------


 ion  position               nearest neighbor table
   1  0.006  0.250  0.704-  21 3.39  16 3.44  11 3.44  17 3.65  17 3.65   5 4.38   5 4.38   7 4.61

   2  0.386  0.750  0.296-  22 3.39  12 3.44  15 3.44  18 3.65  18 3.65   6 4.38   6 4.38   8 4.61

   3  0.182  0.750  0.186-  20 3.35   9 3.44  14 3.44  12 3.63  15 3.63  19 3.65  19 3.65  22 3.67
                            23 3.74   5 4.30   7 4.38   7 4.38
   4  0.210  0.250  0.814-  19 3.35  13 3.44  10 3.44  16 3.63  11 3.63  20 3.65  20 3.65  21 3.67
                            24 3.74   6 4.30   8 4.38   8 4.38
   5  0.060  0.750  0.915-   9 3.44  14 3.44  21 3.44  21 3.44  11 3.48  16 3.48  17 3.74   3 4.30
                             1 4.38   1 4.38
   6  0.332  0.250  0.085-  13 3.44  10 3.44  22 3.44  22 3.44  15 3.48  12 3.48  18 3.74   4 4.30
                             2 4.38   2 4.38
   7  0.128  0.250  0.398-  14 3.45   9 3.45  23 3.52  23 3.52  19 3.74  16 3.74  11 3.74  15 3.84
                            12 3.84  24 3.90   3 4.38   3 4.38   1 4.61
   8  0.264  0.750  0.602-  10 3.45  13 3.45  24 3.52  24 3.52  20 3.74  12 3.74  15 3.74  11 3.84
                            16 3.84  23 3.90   4 4.38   4 4.38   2 4.61
   9  0.073  0.072  0.143-  14 2.42  21 2.45  19 2.45   5 3.44   3 3.44   7 3.45
  10  0.319  0.928  0.857-  13 2.42  22 2.45  20 2.45   6 3.44   4 3.44   8 3.45
  11  0.115  0.930  0.659-  16 2.44  17 2.45  23 2.45   1 3.44   5 3.48   4 3.63   7 3.74   8 3.84

  12  0.277  0.070  0.341-  15 2.44  18 2.45  24 2.45   2 3.44   6 3.48   3 3.63   8 3.74   7 3.84

  13  0.319  0.572  0.857-  10 2.42  22 2.45  20 2.45   6 3.44   4 3.44   8 3.45
  14  0.073  0.428  0.143-   9 2.42  21 2.45  19 2.45   5 3.44   3 3.44   7 3.45
  15  0.277  0.430  0.341-  12 2.44  18 2.45  24 2.45   2 3.44   6 3.48   3 3.63   8 3.74   7 3.84

  16  0.115  0.570  0.659-  11 2.44  17 2.45  23 2.45   1 3.44   5 3.48   4 3.63   7 3.74   8 3.84

  17  0.031  0.750  0.599-  23 2.44  11 2.45  16 2.45   1 3.65   1 3.65   5 3.74
  18  0.361  0.250  0.401-  24 2.44  15 2.45  12 2.45   2 3.65   2 3.65   6 3.74
  19  0.157  0.250  0.081-  21 2.43  14 2.45   9 2.45   4 3.35   3 3.65   3 3.65   7 3.74
  20  0.235  0.750  0.919-  22 2.43  10 2.45  13 2.45   3 3.35   4 3.65   4 3.65   8 3.74
  21  0.074  0.250  0.960-  19 2.43  14 2.45   9 2.45   1 3.39   5 3.44   5 3.44   4 3.67
  22  0.318  0.750  0.040-  20 2.43  10 2.45  13 2.45   2 3.39   6 3.44   6 3.44   3 3.67
  23  0.113  0.750  0.476-  17 2.44  11 2.45  16 2.45   7 3.52   7 3.52   3 3.74   8 3.90
  24  0.278  0.250  0.524-  18 2.44  15 2.45  12 2.45   8 3.52   8 3.52   4 3.74   7 3.90
 
  LATTYP: Found a simple orthorhombic cell.
 ALAT       =     6.7778496742
 B/A-ratio  =     1.7117734747
 C/A-ratio  =     3.5423429602
  
  Lattice vectors:
  
 A1 = (   0.0000000000,   6.7778496742,   0.0000000000)
 A2 = (   0.0000000000,   0.0000000000, -11.6021432877)
 A3 = ( -24.0094680786,   0.0000000000,   0.0000000000)


Analysis of symmetry for initial positions (statically):
=====================================================================
 Subroutine PRICEL returns:
 Original cell was already a primitive cell.
 

 Routine SETGRP: Setting up the symmetry group for a 
 simple orthorhombic supercell.


 Subroutine GETGRP returns: Found  4 space group operations
 (whereof  1 operations were pure point group operations)
 out of a pool of  8 trial point group operations.


The static configuration has the point symmetry C_1 .
 The point group associated with its full space group is C_2h.


Analysis of symmetry for dynamics (positions and initial velocities):
=====================================================================
 Subroutine PRICEL returns:
 Original cell was already a primitive cell.
 

 Routine SETGRP: Setting up the symmetry group for a 
 simple orthorhombic supercell.


 Subroutine GETGRP returns: Found  4 space group operations
 (whereof  1 operations were pure point group operations)
 out of a pool of  8 trial point group operations.


The dynamic configuration has the point symmetry C_1 .
 The point group associated with its full space group is C_2h.


Analysis of constrained symmetry for selective dynamics:
=====================================================================
 Subroutine PRICEL returns:
 Original cell was already a primitive cell.
 

 Routine SETGRP: Setting up the symmetry group for a 
 simple orthorhombic supercell.


 Subroutine GETGRP returns: Found  4 space group operations
 (whereof  1 operations were pure point group operations)
 out of a pool of  8 trial point group operations.


The constrained configuration has the point symmetry C_1 .
 The point group associated with its full space group is C_2h.


 Subroutine INISYM returns: Found  4 space group operations
 (whereof  1 operations are pure point group operations),
 and found     1 'primitive' translations

 
 
 KPOINTS: k-density: 8.0                          

Automatic generation of k-mesh.
Space group operators:
 irot       det(A)        alpha          n_x          n_y          n_z        tau_x        tau_y        tau_z
    1     1.000000     0.000000     1.000000     0.000000     0.000000     0.000000     0.000000     0.000000
    2    -1.000000     0.000000     1.000000     0.000000     0.000000    -0.608093     0.000000     0.000000
    3     1.000000   180.000000     0.000000     1.000000     0.000000    -0.608093     0.500000     0.000000
    4    -1.000000   180.000000     0.000000     1.000000     0.000000     0.000000     0.500000     0.000000
 
 Subroutine IBZKPT returns following result:
 ===========================================
 
 Found     15 irreducible k-points:
 
 Following reciprocal coordinates:
            Coordinates               Weight
  0.000000  0.000000  0.000000      1.000000
  0.000000  0.125000  0.000000      2.000000
  0.000000  0.250000  0.000000      2.000000
  0.000000  0.375000  0.000000      2.000000
  0.000000  0.500000  0.000000      1.000000
  0.000000  0.000000  0.200000      2.000000
  0.000000  0.125000  0.200000      4.000000
  0.000000  0.250000  0.200000      4.000000
  0.000000  0.375000  0.200000      4.000000
  0.000000  0.500000  0.200000      2.000000
  0.000000  0.000000  0.400000      2.000000
  0.000000  0.125000  0.400000      4.000000
  0.000000  0.250000  0.400000      4.000000
  0.000000  0.375000  0.400000      4.000000
  0.000000  0.500000  0.400000      2.000000
 
 Following cartesian coordinates:
            Coordinates               Weight
  0.000000  0.000000  0.000000      1.000000
  0.000000  0.018442  0.000000      2.000000
  0.000000  0.036885  0.000000      2.000000
  0.000000  0.055327  0.000000      2.000000
  0.000000  0.073770  0.000000      1.000000
  0.000000  0.000000  0.017238      2.000000
  0.000000  0.018442  0.017238      4.000000
  0.000000  0.036885  0.017238      4.000000
  0.000000  0.055327  0.017238      4.000000
  0.000000  0.073770  0.017238      2.000000
  0.000000  0.000000  0.034476      2.000000
  0.000000  0.018442  0.034476      4.000000
  0.000000  0.036885  0.034476      4.000000
  0.000000  0.055327  0.034476      4.000000
  0.000000  0.073770  0.034476      2.000000
 
 TETIRR: Found    108 inequivalent tetrahedra from      240


--------------------------------------------------------------------------------------------------------




 Dimension of arrays:
   k-points           NKPTS =     15   k-points in BZ     NKDIM =     15   number of bands    NBANDS=     88
   number of dos      NEDOS =    301   number of ions     NIONS =     24
   non local maximal  LDIM  =      6   non local SUM 2l+1 LMDIM =     18
   total plane-waves  NPLWV = 358400
   max r-space proj   IRMAX =   3093   max aug-charges    IRDMAX=  12081
   dimension x,y,z NGX =   140 NGY =   40 NGZ =   64
   dimension x,y,z NGXF=   280 NGYF=   80 NGZF=  128
   support grid    NGXF=   280 NGYF=   80 NGZF=  128
   ions per type =               8  16
   NGX,Y,Z   is equivalent  to a cutoff of   9.69,  9.81,  9.17 a.u.
   NGXF,Y,Z  is equivalent  to a cutoff of  19.39, 19.62, 18.34 a.u.

 SYSTEM =  unknown system                          
 POSCAR =  ba8 si16                                

 Startparameter for this run:
   NWRITE =      2    write-flag & timer
   PREC   = normal    normal or accurate (medium, high low for compatibility)
   ISTART =      0    job   : 0-new  1-cont  2-samecut
   ICHARG =      2    charge: 1-file 2-atom 10-const
   ISPIN  =      1    spin polarized calculation?
   LNONCOLLINEAR =      F non collinear calculations
   LSORBIT =      F    spin-orbit coupling
   INIWAV =      1    electr: 0-lowe 1-rand  2-diag
   LASPH  =      T    aspherical Exc in radial PAW
   METAGGA=      F    non-selfconsistent MetaGGA calc.

 Electronic Relaxation 1
   ENCUT  =  500.0 eV  36.75 Ry    6.06 a.u.  43.77 12.36 21.15*2*pi/ulx,y,z
   ENINI  =  500.0     initial cutoff
   ENAUG  =  351.2 eV  augmentation charge cutoff
   NELM   =    100;   NELMIN=  2; NELMDL= -5     # of ELM steps 
   EDIFF  = 0.1E-05   stopping-criterion for ELM
   LREAL  =      T    real-space projection
   NLSPLINE    = F    spline interpolate recip. space projectors
   LCOMPAT=      F    compatible to vasp.4.4
   GGA_COMPAT  = T    GGA compatible to vasp.4.4-vasp.4.6
   LMAXPAW     = -100 max onsite density
   LMAXMIX     =    2 max onsite mixed and CHGCAR
   VOSKOWN=      0    Vosko Wilk Nusair interpolation
   ROPT   =   -0.00050  -0.00050
 Ionic relaxation
   EDIFFG = -.1E-02   stopping-criterion for IOM
   NSW    =      0    number of steps for IOM
   NBLOCK =      1;   KBLOCK =      1    inner block; outer block 
   IBRION =     -1    ionic relax: 0-MD 1-quasi-New 2-CG
   NFREE  =      0    steps in history (QN), initial steepest desc. (CG)
   ISIF   =      2    stress and relaxation
   IWAVPR =     10    prediction:  0-non 1-charg 2-wave 3-comb
   ISYM   =      2    0-nonsym 1-usesym 2-fastsym
   LCORR  =      T    Harris-Foulkes like correction to forces

   POTIM  = 0.3000    time-step for ionic-motion
   TEIN   =    0.0    initial temperature
   TEBEG  =    0.0;   TEEND  =   0.0 temperature during run
   SMASS  =  -3.00    Nose mass-parameter (am)
   estimated Nose-frequenzy (Omega)   =  0.10E-29 period in steps =****** mass=  -0.132E-25a.u.
   SCALEE = 1.0000    scale energy and forces
   NPACO  =    256;   APACO  = 16.0  distance and # of slots for P.C.
   PSTRESS=    0.0 pullay stress

  Mass of Ions in am
   POMASS = 137.33 28.09
  Ionic Valenz
   ZVAL   =  10.00  4.00
  Atomic Wigner-Seitz radii
   RWIGS  =  -1.00 -1.00
  virtual crystal weights 
   VCA    =   1.00  1.00
   NELECT =     144.0000    total number of electrons
   NUPDOWN=      -1.0000    fix difference up-down

 DOS related values:
   EMIN   =  10.00;   EMAX   =-10.00  energy-range for DOS
   EFERMI =   0.00
   ISMEAR =    -5;   SIGMA  =   0.01  broadening in eV -4-tet -1-fermi 0-gaus

 Electronic relaxation 2 (details)
   IALGO  =     38    algorithm
   LDIAG  =      T    sub-space diagonalisation (order eigenvalues)
   LSUBROT=      F    optimize rotation matrix (better conditioning)
   TURBO    =      0    0=normal 1=particle mesh
   IRESTART =      0    0=no restart 2=restart with 2 vectors
   NREBOOT  =      0    no. of reboots
   NMIN     =      0    reboot dimension
   EREF     =   0.00    reference energy to select bands
   IMIX   =      4    mixing-type and parameters
     AMIX     =   0.40;   BMIX     =  1.00
     AMIX_MAG =   1.60;   BMIX_MAG =  1.00
     AMIN     =   0.10
     WC   =   100.;   INIMIX=   1;  MIXPRE=   1;  MAXMIX= -45

 Intra band minimization:
   WEIMIN = 0.0000     energy-eigenvalue tresh-hold
   EBREAK =  0.28E-08  absolut break condition
   DEPER  =   0.30     relativ break condition  

   TIME   =   0.40     timestep for ELM

  volume/ion in A,a.u.               =      78.67       530.88
  Fermi-wavevector in a.u.,A,eV,Ry     =   0.694264  1.311969  6.558046  0.482003
  Thomas-Fermi vector in A             =   1.776709
 
 Write flags
   LWAVE        =      T    write WAVECAR
   LDOWNSAMPLE  =      F    k-point downsampling of WAVECAR
   LCHARG       =      T    write CHGCAR
   LVTOT        =      F    write LOCPOT, total local potential
   LVHAR        =      F    write LOCPOT, Hartree potential only
   LELF         =      F    write electronic localiz. function (ELF)
   LORBIT       =      0    0 simple, 1 ext, 2 COOP (PROOUT), +10 PAW based schemes


 Dipole corrections
   LMONO  =      F    monopole corrections only (constant potential shift)
   LDIPOL =      F    correct potential (dipole corrections)
   IDIPOL =      0    1-x, 2-y, 3-z, 4-all directions 
   EPSILON=  1.0000000 bulk dielectric constant

 Exchange correlation treatment:
   GGA     =    BO    GGA type
   LEXCH   =    42    internal setting for exchange type
   VOSKOWN=      0    Vosko Wilk Nusair interpolation
   LHFCALC =     F    Hartree Fock is set to
   LHFONE  =     F    Hartree Fock one center treatment
   AEXX    =    0.0000 exact exchange contribution

 vdW DFT:
   LUSE_VDW   =     T    switch on vdW DFT
   Zab_VDW    =-.8491    correlation parameter
   PARAM1     =0.1833
   PARAM2     =0.2200
   PARAM3     =0.0000
   -- rVV10 --
   BPARAM     = 6.3000
   CPARAM     = 0.0093

 Linear response parameters
   LEPSILON=     F    determine dielectric tensor
   LRPA    =     F    only Hartree local field effects (RPA)
   LNABLA  =     F    use nabla operator in PAW spheres
   LVEL    =     F    velocity operator in full k-point grid
   LINTERFAST=   F  fast interpolation
   KINTER  =     0    interpolate to denser k-point grid
   CSHIFT  =0.1000    complex shift for real part using Kramers Kronig
   OMEGAMAX=  -1.0    maximum frequency
   DEG_THRESHOLD= 0.2000000E-02 threshold for treating states as degnerate
   RTIME   =   -0.100 relaxation time in fs
  (WPLASMAI=    0.000 imaginary part of plasma frequency in eV, 0.658/RTIME)
   DFIELD  = 0.0000000 0.0000000 0.0000000 field for delta impulse in time
 
 Orbital magnetization related:
   ORBITALMAG=     F  switch on orbital magnetization
   LCHIMAG   =     F  perturbation theory with respect to B field
   DQ        =  0.001000  dq finite difference perturbation B field
   LLRAUG    =     F  two centre corrections for induced B field



--------------------------------------------------------------------------------------------------------


 Static calculation
 charge density and potential will be updated during run
 non-spin polarized calculation
 Variant of blocked Davidson
 Davidson routine will perform the subspace rotation
 perform sub-space diagonalisation
    after iterative eigenvector-optimisation
 modified Broyden-mixing scheme, WC =      100.0
 initial mixing is a Kerker type mixing with AMIX =  0.4000 and BMIX =      1.0000
 Hartree-type preconditioning will be used
 using additional bands           16
 real space projection scheme for non local part
 use partial core corrections
 calculate Harris-corrections to forces 
   (improved forces if not selfconsistent)
 use gradient corrections 
 use of overlap-Matrix (Vanderbilt PP)
 Fermi weights with tetrahedron method with Bloechl corrections


--------------------------------------------------------------------------------------------------------


  energy-cutoff  :      500.00
  volume of cell :     1888.05
      direct lattice vectors                 reciprocal lattice vectors
    24.009468079  0.000000000  0.000000000     0.041650236  0.000000000  0.000000000
     0.000000000  6.777849674  0.000000000     0.000000000  0.147539419  0.000000000
     0.000000000  0.000000000 11.602143288     0.000000000  0.000000000  0.086190971

  length of vectors
    24.009468079  6.777849674 11.602143288     0.041650236  0.147539419  0.086190971


 
 k-points in units of 2pi/SCALE and weight: k-density: 8.0                          
   0.00000000  0.00000000  0.00000000       0.025
   0.00000000  0.01844243  0.00000000       0.050
   0.00000000  0.03688485  0.00000000       0.050
   0.00000000  0.05532728  0.00000000       0.050
   0.00000000  0.07376971  0.00000000       0.025
   0.00000000  0.00000000  0.01723819       0.050
   0.00000000  0.01844243  0.01723819       0.100
   0.00000000  0.03688485  0.01723819       0.100
   0.00000000  0.05532728  0.01723819       0.100
   0.00000000  0.07376971  0.01723819       0.050
   0.00000000  0.00000000  0.03447639       0.050
   0.00000000  0.01844243  0.03447639       0.100
   0.00000000  0.03688485  0.03447639       0.100
   0.00000000  0.05532728  0.03447639       0.100
   0.00000000  0.07376971  0.03447639       0.050
 
 k-points in reciprocal lattice and weights: k-density: 8.0                          
   0.00000000  0.00000000  0.00000000       0.025
   0.00000000  0.12500000  0.00000000       0.050
   0.00000000  0.25000000  0.00000000       0.050
   0.00000000  0.37500000  0.00000000       0.050
   0.00000000  0.50000000  0.00000000       0.025
   0.00000000  0.00000000  0.20000000       0.050
   0.00000000  0.12500000  0.20000000       0.100
   0.00000000  0.25000000  0.20000000       0.100
   0.00000000  0.37500000  0.20000000       0.100
   0.00000000  0.50000000  0.20000000       0.050
   0.00000000  0.00000000  0.40000000       0.050
   0.00000000  0.12500000  0.40000000       0.100
   0.00000000  0.25000000  0.40000000       0.100
   0.00000000  0.37500000  0.40000000       0.100
   0.00000000  0.50000000  0.40000000       0.050
 
 position of ions in fractional coordinates (direct lattice) 
   0.00569361  0.25000000  0.70393442
   0.38621295  0.75000002  0.29606558
   0.18192962  0.75000002  0.18625348
   0.20997694  0.25000000  0.81374650
   0.05978014  0.75000002  0.91540726
   0.33212642  0.25000000  0.08459272
   0.12784309  0.25000000  0.39764465
   0.26406347  0.75000002  0.60235539
   0.07289913  0.07182628  0.14308714
   0.31900743  0.92817371  0.85691284
   0.11472410  0.92990216  0.65897990
   0.27718246  0.07009783  0.34102010
   0.31900743  0.57182629  0.85691284
   0.07289913  0.42817371  0.14308714
   0.27718246  0.42990216  0.34102010
   0.11472410  0.57009784  0.65897990
   0.03110981  0.75000002  0.59876076
   0.36079675  0.25000000  0.40123924
   0.15651343  0.25000000  0.08077060
   0.23539314  0.75000002  0.91922938
   0.07418398  0.25000000  0.95961593
   0.31772258  0.75000002  0.04038409
   0.11343925  0.75000002  0.47570770
   0.27846731  0.25000000  0.52429222
 
 position of ions in cartesian coordinates  (Angst):
   0.13670066  1.69446242  8.16714799
   9.27276745  5.08338737  3.43499530
   4.36803341  5.08338737  2.16093956
   5.04143467  1.69446242  9.44120349
   1.43528938  5.08338737 10.62068619
   7.97417870  1.69446242  0.98145685
   3.06944466  1.69446242  4.61353023
   6.34002342  5.08338737  6.98861353
   1.75026941  0.48682774  1.66011754
   7.65919867  6.29102187  9.94202551
   2.75446463  6.30273709  7.64557922
   6.65500345  0.47511253  3.95656406
   7.65919867  3.87575264  9.94202551
   1.75026941  2.90209703  1.66011754
   6.65500345  2.91381225  3.95656406
   2.75446463  3.86403743  7.64557922
   0.74692994  5.08338737  6.94690809
   8.66253796  1.69446242  4.65523520
   3.75780416  1.69446242  0.93711212
   5.65166416  5.08338737 10.66503092
   1.78111780  1.69446242 11.13360147
   7.62835016  5.08338737  0.46854200
   2.72361612  5.08338737  5.51922884
   6.68585196  1.69446242  6.08291349
 


--------------------------------------------------------------------------------------------------------


 k-point  1 :   0.0000 0.0000 0.0000  plane waves:   47989
 k-point  2 :   0.0000 0.1250 0.0000  plane waves:   47929
 k-point  3 :   0.0000 0.2500 0.0000  plane waves:   47901
 k-point  4 :   0.0000 0.3750 0.0000  plane waves:   47910
 k-point  5 :   0.0000 0.5000 0.0000  plane waves:   47868
 k-point  6 :   0.0000 0.0000 0.2000  plane waves:   48006
 k-point  7 :   0.0000 0.1250 0.2000  plane waves:   47967
 k-point  8 :   0.0000 0.2500 0.2000  plane waves:   47907
 k-point  9 :   0.0000 0.3750 0.2000  plane waves:   47884
 k-point 10 :   0.0000 0.5000 0.2000  plane waves:   47884
 k-point 11 :   0.0000 0.0000 0.4000  plane waves:   47922
 k-point 12 :   0.0000 0.1250 0.4000  plane waves:   47954
 k-point 13 :   0.0000 0.2500 0.4000  plane waves:   47967
 k-point 14 :   0.0000 0.3750 0.4000  plane waves:   47928
 k-point 15 :   0.0000 0.5000 0.4000  plane waves:   47890

 maximum and minimum number of plane-waves per node :     12077    11868

 maximum number of plane-waves:     48006
 maximum index in each direction: 
   IXMAX=   43   IYMAX=   12   IZMAX=   21
   IXMIN=  -43   IYMIN=  -12   IZMIN=  -21


 real space projection operators:
  total allocation   :       4537.61 KBytes
  max/ min on nodes  :       1138.34       1129.56


 parallel 3D FFT for wavefunctions:
    minimum data exchange during FFTs selected (reduces bandwidth)
 parallel 3D FFT for charge:
    minimum data exchange during FFTs selected (reduces bandwidth)


 total amount of memory used by VASP MPI-rank0    79355. kBytes
=======================================================================

   base      :      30000. kBytes
   nonlr-proj:       2649. kBytes
   fftplans  :       5898. kBytes
   grid      :       8824. kBytes
   one-center:         93. kBytes
   wavefun   :      31891. kBytes
 
     INWAV:  cpu time    0.0000: real time    0.0000
 Broyden mixing: mesh for mixing (old mesh)
   NGX = 87   NGY = 25   NGZ = 43
  (NGX  =280   NGY  = 80   NGZ  =128)
  gives a total of  93525 points

 initial charge density was supplied:
 charge density of overlapping atoms calculated
 number of electron     144.0000000 magnetization 
 keeping initial charge density in first step


--------------------------------------------------------------------------------------------------------


 Maximum index for non-local projection operator          745
 Maximum index for augmentation-charges          603 (set IRDMAX)


--------------------------------------------------------------------------------------------------------


 First call to EWALD:  gamma=   0.143
 Maximum number of real-space cells 2x 5x 3
 Maximum number of reciprocal cells 5x 2x 3

    FEWALD:  cpu time    0.0017: real time    0.0017


--------------------------------------- Iteration      1(   1)  ---------------------------------------


    POTLOK:  cpu time14554.0157: real time14588.4753
    SETDIJ:  cpu time    0.0039: real time    0.0284
     EDDAV:  cpu time    2.9868: real time    3.2789
 BZINTS: Fermi energy:  6.763871;144.000000 electrons
         Band energy:-481.217806;  BLOECHL correction: -0.034268
       DOS:  cpu time    0.0125: real time    0.0253
    --------------------------------------------
      LOOP:  cpu time14557.0189: real time14591.8079

 eigenvalue-minimisations  :  2768
 total energy-change (2. order) : 0.1190787E+04  (-0.4768920E+04)
 number of electron     144.0000000 magnetization 
 augmentation part      144.0000000 magnetization 

 Free energy of the ion-electron system (eV)
  ---------------------------------------------------
  alpha Z        PSCENC =       170.45750602
  Ewald energy   TEWEN  =     11304.96240280
  -Hartree energ DENC   =    -17427.04243978
  -exchange      EXHF   =         0.00000000
  -V(xc)+E(xc)   XCENC  =        28.83653678
  PAW double counting   =      3700.71972520    -3383.50420208
  entropy T*S    EENTRO =         0.00000000
  eigenvalues    EBANDS =      -481.21780563
  atomic energy  EATOM  =      7277.57480299
  Solvation  Ediel_sol  =         0.00000000
  ---------------------------------------------------
  free energy    TOTEN  =      1190.78652630 eV

  energy without entropy =     1190.78652630  energy(sigma->0) =     1190.78652630


--------------------------------------------------------------------------------------------------------




--------------------------------------- Iteration      1(   2)  ---------------------------------------


     EDDAV:  cpu time    4.0322: real time    4.1809
 BZINTS: Fermi energy: -1.991128;144.000000 electrons
         Band energy:***********;  BLOECHL correction:  0.000000
       DOS:  cpu time    0.0024: real time    0.0024
    --------------------------------------------
      LOOP:  cpu time    4.0346: real time    4.1833

 eigenvalue-minimisations  :  3880
 total energy-change (2. order) :-0.1119128E+04  (-0.1092180E+04)
 number of electron     144.0000000 magnetization 
 augmentation part      144.0000000 magnetization 

 Free energy of the ion-electron system (eV)
  ---------------------------------------------------
  alpha Z        PSCENC =       170.45750602
  Ewald energy   TEWEN  =     11304.96240280
  -Hartree energ DENC   =    -17427.04243978
  -exchange      EXHF   =         0.00000000
  -V(xc)+E(xc)   XCENC  =        28.83653678
  PAW double counting   =      3700.71972520    -3383.50420208
  entropy T*S    EENTRO =         0.00000000
  eigenvalues    EBANDS =     -1600.34562938
  atomic energy  EATOM  =      7277.57480299
  Solvation  Ediel_sol  =         0.00000000
  ---------------------------------------------------
  free energy    TOTEN  =        71.65870255 eV

  energy without entropy =       71.65870255  energy(sigma->0) =       71.65870255


--------------------------------------------------------------------------------------------------------




--------------------------------------- Iteration      1(   3)  ---------------------------------------


     EDDAV:  cpu time    2.8399: real time    2.9400
 BZINTS: Fermi energy: -3.358216;144.000000 electrons
         Band energy:***********;  BLOECHL correction:  0.000000
       DOS:  cpu time    0.0036: real time    0.0036
    --------------------------------------------
      LOOP:  cpu time    2.8435: real time    2.9436

 eigenvalue-minimisations  :  3208
 total energy-change (2. order) :-0.1678502E+03  (-0.1672125E+03)
 number of electron     144.0000000 magnetization 
 augmentation part      144.0000000 magnetization 

 Free energy of the ion-electron system (eV)
  ---------------------------------------------------
  alpha Z        PSCENC =       170.45750602
  Ewald energy   TEWEN  =     11304.96240280
  -Hartree energ DENC   =    -17427.04243978
  -exchange      EXHF   =         0.00000000
  -V(xc)+E(xc)   XCENC  =        28.83653678
  PAW double counting   =      3700.71972520    -3383.50420208
  entropy T*S    EENTRO =         0.00000000
  eigenvalues    EBANDS =     -1768.19578074
  atomic energy  EATOM  =      7277.57480299
  Solvation  Ediel_sol  =         0.00000000
  ---------------------------------------------------
  free energy    TOTEN  =       -96.19144881 eV

  energy without entropy =      -96.19144881  energy(sigma->0) =      -96.19144881


--------------------------------------------------------------------------------------------------------




--------------------------------------- Iteration      1(   4)  ---------------------------------------


     EDDAV:  cpu time    3.7315: real time    3.7546
 BZINTS: Fermi energy: -3.426803;144.000000 electrons
         Band energy:***********;  BLOECHL correction:  0.000000
       DOS:  cpu time    0.0027: real time    0.0027
    --------------------------------------------
      LOOP:  cpu time    3.7342: real time    3.7574

 eigenvalue-minimisations  :  3752
 total energy-change (2. order) :-0.5941460E+01  (-0.5924394E+01)
 number of electron     144.0000000 magnetization 
 augmentation part      144.0000000 magnetization 

 Free energy of the ion-electron system (eV)
  ---------------------------------------------------
  alpha Z        PSCENC =       170.45750602
  Ewald energy   TEWEN  =     11304.96240280
  -Hartree energ DENC   =    -17427.04243978
  -exchange      EXHF   =         0.00000000
  -V(xc)+E(xc)   XCENC  =        28.83653678
  PAW double counting   =      3700.71972520    -3383.50420208
  entropy T*S    EENTRO =         0.00000000
  eigenvalues    EBANDS =     -1774.13724041
  atomic energy  EATOM  =      7277.57480299
  Solvation  Ediel_sol  =         0.00000000
  ---------------------------------------------------
  free energy    TOTEN  =      -102.13290848 eV

  energy without entropy =     -102.13290848  energy(sigma->0) =     -102.13290848


--------------------------------------------------------------------------------------------------------




--------------------------------------- Iteration      1(   5)  ---------------------------------------


     EDDAV:  cpu time    3.5104: real time    3.5293
 BZINTS: Fermi energy: -3.419369;144.000000 electrons
         Band energy:***********;  BLOECHL correction:  0.000000
       DOS:  cpu time    0.0031: real time    0.0031
    CHARGE:  cpu time    0.1589: real time    0.1786
    MIXING:  cpu time    0.0053: real time    0.0058
    --------------------------------------------
      LOOP:  cpu time    3.6778: real time    3.7168

 eigenvalue-minimisations  :  4192
 total energy-change (2. order) :-0.2696863E+00  (-0.2695999E+00)
 number of electron     143.9999979 magnetization 
 augmentation part      -17.7577864 magnetization 

 Broyden mixing:
  rms(total) = 0.92943E+00    rms(broyden)= 0.92942E+00
  rms(prec ) = 0.12021E+01
  weight for this iteration     100.00

 Free energy of the ion-electron system (eV)
  ---------------------------------------------------
  alpha Z        PSCENC =       170.45750602
  Ewald energy   TEWEN  =     11304.96240280
  -Hartree energ DENC   =    -17427.04243978
  -exchange      EXHF   =         0.00000000
  -V(xc)+E(xc)   XCENC  =        28.83653678
  PAW double counting   =      3700.71972520    -3383.50420208
  entropy T*S    EENTRO =         0.00000000
  eigenvalues    EBANDS =     -1774.40692673
  atomic energy  EATOM  =      7277.57480299
  Solvation  Ediel_sol  =         0.00000000
  ---------------------------------------------------
  free energy    TOTEN  =      -102.40259480 eV

  energy without entropy =     -102.40259480  energy(sigma->0) =     -102.40259480


--------------------------------------------------------------------------------------------------------




--------------------------------------- Iteration      1(   6)  ---------------------------------------


    POTLOK:  cpu time    2.6387: real time    2.6563
    SETDIJ:  cpu time    0.0019: real time    0.0019
     EDDAV:  cpu time    3.2251: real time    3.2328
 BZINTS: Fermi energy: -2.316352;144.000000 electrons
         Band energy:***********;  BLOECHL correction:  0.000000
       DOS:  cpu time    0.0025: real time    0.0025
    CHARGE:  cpu time    0.1858: real time    0.1862
    MIXING:  cpu time    0.0081: real time    0.0082
    --------------------------------------------
      LOOP:  cpu time    6.0621: real time    6.0879

 eigenvalue-minimisations  :  3032
 total energy-change (2. order) : 0.8379098E+01  (-0.2116735E+01)
 number of electron     143.9999979 magnetization 
 augmentation part      -17.6201420 magnetization 

 Broyden mixing:
  rms(total) = 0.47259E+00    rms(broyden)= 0.47259E+00
  rms(prec ) = 0.58954E+00
  weight for this iteration     100.00

 eigenvalues of (default mixing * dielectric matrix)
  average eigenvalue GAMMA=   1.5434
  1.5434

 Free energy of the ion-electron system (eV)
  ---------------------------------------------------
  alpha Z        PSCENC =       170.45750602
  Ewald energy   TEWEN  =     11304.96240280
  -Hartree energ DENC   =    -17518.72998550
  -exchange      EXHF   =         0.00000000
  -V(xc)+E(xc)   XCENC  =        31.74435679
  PAW double counting   =      3734.40378399    -3424.35809905
  entropy T*S    EENTRO =         0.00000000
  eigenvalues    EBANDS =     -1670.07826509
  atomic energy  EATOM  =      7277.57480299
  Solvation  Ediel_sol  =         0.00000000
  ---------------------------------------------------
  free energy    TOTEN  =       -94.02349704 eV

  energy without entropy =      -94.02349704  energy(sigma->0) =      -94.02349704


--------------------------------------------------------------------------------------------------------




--------------------------------------- Iteration      1(   7)  ---------------------------------------


    POTLOK:  cpu time    2.4254: real time    2.4428
    SETDIJ:  cpu time    0.2318: real time    0.2323
     EDDAV:  cpu time    3.4643: real time    3.4725
 BZINTS: Fermi energy: -1.450156;144.000000 electrons
         Band energy:***********;  BLOECHL correction:  0.000000
       DOS:  cpu time    0.0026: real time    0.0026
    CHARGE:  cpu time    0.1476: real time    0.1480
    MIXING:  cpu time    0.0046: real time    0.0049
    --------------------------------------------
      LOOP:  cpu time    6.2762: real time    6.3031

 eigenvalue-minimisations  :  3480
 total energy-change (2. order) : 0.1221867E+01  (-0.1037086E+01)
 number of electron     143.9999978 magnetization 
 augmentation part      -17.6782948 magnetization 

 Broyden mixing:
  rms(total) = 0.25109E+00    rms(broyden)= 0.25109E+00
  rms(prec ) = 0.29910E+00
  weight for this iteration     100.00

 eigenvalues of (default mixing * dielectric matrix)
  average eigenvalue GAMMA=   1.8654
  1.8654  1.8654

 Free energy of the ion-electron system (eV)
  ---------------------------------------------------
  alpha Z        PSCENC =       170.45750602
  Ewald energy   TEWEN  =     11304.96240280
  -Hartree energ DENC   =    -17595.17952461
  -exchange      EXHF   =         0.00000000
  -V(xc)+E(xc)   XCENC  =        34.12721583
  PAW double counting   =      3778.90815371    -3474.64177890
  entropy T*S    EENTRO =         0.00000000
  eigenvalues    EBANDS =     -1589.01040803
  atomic energy  EATOM  =      7277.57480299
  Solvation  Ediel_sol  =         0.00000000
  ---------------------------------------------------
  free energy    TOTEN  =       -92.80163017 eV

  energy without entropy =      -92.80163017  energy(sigma->0) =      -92.80163017


--------------------------------------------------------------------------------------------------------




--------------------------------------- Iteration      1(   8)  ---------------------------------------


    POTLOK:  cpu time    2.9114: real time    2.9301
    SETDIJ:  cpu time    0.0020: real time    0.0020
     EDDAV:  cpu time    2.9236: real time    2.9306
 BZINTS: Fermi energy: -1.331655;144.000000 electrons
         Band energy:***********;  BLOECHL correction:  0.000000
       DOS:  cpu time    0.0034: real time    0.0034
    CHARGE:  cpu time    0.1664: real time    0.1668
    MIXING:  cpu time    0.0089: real time    0.0094
    --------------------------------------------
      LOOP:  cpu time    6.0157: real time    6.0423

 eigenvalue-minimisations  :  3120
 total energy-change (2. order) : 0.2285792E+00  (-0.3745092E+00)
 number of electron     143.9999978 magnetization 
 augmentation part      -17.7987551 magnetization 

 Broyden mixing:
  rms(total) = 0.12094E+00    rms(broyden)= 0.12094E+00
  rms(prec ) = 0.19140E+00
  weight for this iteration     100.00

 eigenvalues of (default mixing * dielectric matrix)
  average eigenvalue GAMMA=   1.6916
  2.6661  1.2044  1.2044

 Free energy of the ion-electron system (eV)
  ---------------------------------------------------
  alpha Z        PSCENC =       170.45750602
  Ewald energy   TEWEN  =     11304.96240280
  -Hartree energ DENC   =    -17627.40268747
  -exchange      EXHF   =         0.00000000
  -V(xc)+E(xc)   XCENC  =        35.11400787
  PAW double counting   =      3828.85577839    -3526.33076409
  entropy T*S    EENTRO =         0.00000000
  eigenvalues    EBANDS =     -1555.80409751
  atomic energy  EATOM  =      7277.57480299
  Solvation  Ediel_sol  =         0.00000000
  ---------------------------------------------------
  free energy    TOTEN  =       -92.57305100 eV

  energy without entropy =      -92.57305100  energy(sigma->0) =      -92.57305100


--------------------------------------------------------------------------------------------------------




--------------------------------------- Iteration      1(   9)  ---------------------------------------


    POTLOK:  cpu time    2.7169: real time    2.7358
    SETDIJ:  cpu time    0.0019: real time    0.0019
     EDDAV:  cpu time    2.7869: real time    2.7936
 BZINTS: Fermi energy: -0.998201;144.000000 electrons
         Band energy:***********;  BLOECHL correction:  0.000000
       DOS:  cpu time    0.0023: real time    0.0023
    CHARGE:  cpu time    0.1758: real time    0.1763
    MIXING:  cpu time    0.0050: real time    0.0050
    --------------------------------------------
      LOOP:  cpu time    5.6889: real time    5.7150

 eigenvalue-minimisations  :  3104
 total energy-change (2. order) : 0.2872532E+00  (-0.1144922E+00)
 number of electron     143.9999978 magnetization 
 augmentation part      -17.7606066 magnetization 

 Broyden mixing:
  rms(total) = 0.54649E-01    rms(broyden)= 0.54649E-01
  rms(prec ) = 0.77731E-01
  weight for this iteration     100.00

 eigenvalues of (default mixing * dielectric matrix)
  average eigenvalue GAMMA=   1.4113
  2.6076  1.2157  1.2157  0.6064

 Free energy of the ion-electron system (eV)
  ---------------------------------------------------
  alpha Z        PSCENC =       170.45750602
  Ewald energy   TEWEN  =     11304.96240280
  -Hartree energ DENC   =    -17666.88168744
  -exchange      EXHF   =         0.00000000
  -V(xc)+E(xc)   XCENC  =        36.09445990
  PAW double counting   =      3840.43544232    -3539.28765619
  entropy T*S    EENTRO =         0.00000000
  eigenvalues    EBANDS =     -1515.64106823
  atomic energy  EATOM  =      7277.57480299
  Solvation  Ediel_sol  =         0.00000000
  ---------------------------------------------------
  free energy    TOTEN  =       -92.28579783 eV

  energy without entropy =      -92.28579783  energy(sigma->0) =      -92.28579783


--------------------------------------------------------------------------------------------------------




--------------------------------------- Iteration      1(  10)  ---------------------------------------


    POTLOK:  cpu time    2.5183: real time    2.5357
    SETDIJ:  cpu time    0.0438: real time    0.0439
     EDDAV:  cpu time    3.6822: real time    3.6910
 BZINTS: Fermi energy: -0.864636;144.000000 electrons
         Band energy:***********;  BLOECHL correction:  0.000000
       DOS:  cpu time    0.0027: real time    0.0027
    CHARGE:  cpu time    0.1781: real time    0.1785
    MIXING:  cpu time    0.0048: real time    0.0049
    --------------------------------------------
      LOOP:  cpu time    6.4299: real time    6.4567

 eigenvalue-minimisations  :  3608
 total energy-change (2. order) : 0.1144866E-01  (-0.2598985E-01)
 number of electron     143.9999978 magnetization 
 augmentation part      -17.7725503 magnetization 

 Broyden mixing:
  rms(total) = 0.41309E-01    rms(broyden)= 0.41309E-01
  rms(prec ) = 0.60940E-01
  weight for this iteration     100.00

 eigenvalues of (default mixing * dielectric matrix)
  average eigenvalue GAMMA=   1.5679
  2.5611  2.2278  1.1735  0.9387  0.9387

 Free energy of the ion-electron system (eV)
  ---------------------------------------------------
  alpha Z        PSCENC =       170.45750602
  Ewald energy   TEWEN  =     11304.96240280
  -Hartree energ DENC   =    -17675.82575090
  -exchange      EXHF   =         0.00000000
  -V(xc)+E(xc)   XCENC  =        36.12299892
  PAW double counting   =      3835.35378721    -3533.93003461
  entropy T*S    EENTRO =         0.00000000
  eigenvalues    EBANDS =     -1506.99006161
  atomic energy  EATOM  =      7277.57480299
  Solvation  Ediel_sol  =         0.00000000
  ---------------------------------------------------
  free energy    TOTEN  =       -92.27434917 eV

  energy without entropy =      -92.27434917  energy(sigma->0) =      -92.27434917


--------------------------------------------------------------------------------------------------------




--------------------------------------- Iteration      1(  11)  ---------------------------------------


    POTLOK:  cpu time    2.4697: real time    2.4868
    SETDIJ:  cpu time    0.1758: real time    0.1762
     EDDAV:  cpu time    2.9809: real time    2.9879
 BZINTS: Fermi energy: -0.846469;144.000000 electrons
         Band energy:***********;  BLOECHL correction:  0.000000
       DOS:  cpu time    0.0022: real time    0.0022
    CHARGE:  cpu time    0.1632: real time    0.1636
    MIXING:  cpu time    0.0059: real time    0.0059
    --------------------------------------------
      LOOP:  cpu time    5.7976: real time    5.8226

 eigenvalue-minimisations  :  3256
 total energy-change (2. order) : 0.2862384E-01  (-0.6638231E-02)
 number of electron     143.9999978 magnetization 
 augmentation part      -17.7802697 magnetization 

 Broyden mixing:
  rms(total) = 0.15766E-01    rms(broyden)= 0.15766E-01
  rms(prec ) = 0.31302E-01
  weight for this iteration     100.00

 eigenvalues of (default mixing * dielectric matrix)
  average eigenvalue GAMMA=   1.6026
  2.8005  2.8005  1.0860  1.0860  0.9213  0.9213

 Free energy of the ion-electron system (eV)
  ---------------------------------------------------
  alpha Z        PSCENC =       170.45750602
  Ewald energy   TEWEN  =     11304.96240280
  -Hartree energ DENC   =    -17691.18044489
  -exchange      EXHF   =         0.00000000
  -V(xc)+E(xc)   XCENC  =        36.26875754
  PAW double counting   =      3836.19199224    -3534.48131207
  entropy T*S    EENTRO =         0.00000000
  eigenvalues    EBANDS =     -1492.03942996
  atomic energy  EATOM  =      7277.57480299
  Solvation  Ediel_sol  =         0.00000000
  ---------------------------------------------------
  free energy    TOTEN  =       -92.24572533 eV

  energy without entropy =      -92.24572533  energy(sigma->0) =      -92.24572533


--------------------------------------------------------------------------------------------------------




--------------------------------------- Iteration      1(  12)  ---------------------------------------


    POTLOK:  cpu time    2.8193: real time    2.8375
    SETDIJ:  cpu time    0.0018: real time    0.0018
     EDDAV:  cpu time    3.1712: real time    3.1787
 BZINTS: Fermi energy: -0.770027;144.000000 electrons
         Band energy:***********;  BLOECHL correction:  0.000000
       DOS:  cpu time    0.0024: real time    0.0024
    CHARGE:  cpu time    0.1514: real time    0.1517
    MIXING:  cpu time    0.0060: real time    0.0061
    --------------------------------------------
      LOOP:  cpu time    6.1521: real time    6.1783

 eigenvalue-minimisations  :  3368
 total energy-change (2. order) :-0.1360208E-01  (-0.1481655E-02)
 number of electron     143.9999978 magnetization 
 augmentation part      -17.7761150 magnetization 

 Broyden mixing:
  rms(total) = 0.11805E-01    rms(broyden)= 0.11805E-01
  rms(prec ) = 0.20411E-01
  weight for this iteration     100.00

 eigenvalues of (default mixing * dielectric matrix)
  average eigenvalue GAMMA=   1.7106
  3.4224  2.5978  1.9536  1.1220  1.1220  0.8783  0.8783

 Free energy of the ion-electron system (eV)
  ---------------------------------------------------
  alpha Z        PSCENC =       170.45750602
  Ewald energy   TEWEN  =     11304.96240280
  -Hartree energ DENC   =    -17703.03816382
  -exchange      EXHF   =         0.00000000
  -V(xc)+E(xc)   XCENC  =        36.29837458
  PAW double counting   =      3833.62791388    -3531.72043127
  entropy T*S    EENTRO =         0.00000000
  eigenvalues    EBANDS =     -1480.42173259
  atomic energy  EATOM  =      7277.57480299
  Solvation  Ediel_sol  =         0.00000000
  ---------------------------------------------------
  free energy    TOTEN  =       -92.25932741 eV

  energy without entropy =      -92.25932741  energy(sigma->0) =      -92.25932741


--------------------------------------------------------------------------------------------------------




--------------------------------------- Iteration      1(  13)  ---------------------------------------


    POTLOK:  cpu time    3.0079: real time    3.0268
    SETDIJ:  cpu time    0.0016: real time    0.0016
     EDDAV:  cpu time    3.3593: real time    3.3672
 BZINTS: Fermi energy: -0.626147;144.000000 electrons
         Band energy:***********;  BLOECHL correction:  0.000000
       DOS:  cpu time    0.0022: real time    0.0022
    CHARGE:  cpu time    0.2127: real time    0.2132
    MIXING:  cpu time    0.0067: real time    0.0067
    --------------------------------------------
      LOOP:  cpu time    6.5905: real time    6.6179

 eigenvalue-minimisations  :  3224
 total energy-change (2. order) : 0.8616527E-02  (-0.8446495E-03)
 number of electron     143.9999978 magnetization 
 augmentation part      -17.7761698 magnetization 

 Broyden mixing:
  rms(total) = 0.62712E-02    rms(broyden)= 0.62712E-02
  rms(prec ) = 0.10971E-01
  weight for this iteration     100.00

 eigenvalues of (default mixing * dielectric matrix)
  average eigenvalue GAMMA=   1.7840
  4.0384  2.7852  2.4101  1.2098  1.2098  0.8878  0.8652  0.8652

 Free energy of the ion-electron system (eV)
  ---------------------------------------------------
  alpha Z        PSCENC =       170.45750602
  Ewald energy   TEWEN  =     11304.96240280
  -Hartree energ DENC   =    -17712.44483983
  -exchange      EXHF   =         0.00000000
  -V(xc)+E(xc)   XCENC  =        36.36776381
  PAW double counting   =      3832.33064932    -3530.52977016
  entropy T*S    EENTRO =         0.00000000
  eigenvalues    EBANDS =     -1470.96922583
  atomic energy  EATOM  =      7277.57480299
  Solvation  Ediel_sol  =         0.00000000
  ---------------------------------------------------
  free energy    TOTEN  =       -92.25071088 eV

  energy without entropy =      -92.25071088  energy(sigma->0) =      -92.25071088


--------------------------------------------------------------------------------------------------------




--------------------------------------- Iteration      1(  14)  ---------------------------------------


    POTLOK:  cpu time    2.5073: real time    2.5252
    SETDIJ:  cpu time    0.0202: real time    0.0203
     EDDAV:  cpu time    3.1956: real time    3.2032
 BZINTS: Fermi energy: -0.605133;144.000000 electrons
         Band energy:***********;  BLOECHL correction:  0.000000
       DOS:  cpu time    0.0022: real time    0.0022
    CHARGE:  cpu time    0.2014: real time    0.2019
    MIXING:  cpu time    0.0070: real time    0.0070
    --------------------------------------------
      LOOP:  cpu time    5.9338: real time    5.9599

 eigenvalue-minimisations  :  3032
 total energy-change (2. order) : 0.4398768E-02  (-0.2666035E-03)
 number of electron     143.9999978 magnetization 
 augmentation part      -17.7772986 magnetization 

 Broyden mixing:
  rms(total) = 0.51741E-02    rms(broyden)= 0.51741E-02
  rms(prec ) = 0.83341E-02
  weight for this iteration     100.00

 eigenvalues of (default mixing * dielectric matrix)
  average eigenvalue GAMMA=   1.8250
  4.5068  3.0574  2.0867  1.4255  1.4255  0.8857  0.8857  1.0758  1.0758

 Free energy of the ion-electron system (eV)
  ---------------------------------------------------
  alpha Z        PSCENC =       170.45750602
  Ewald energy   TEWEN  =     11304.96240280
  -Hartree energ DENC   =    -17716.00410677
  -exchange      EXHF   =         0.00000000
  -V(xc)+E(xc)   XCENC  =        36.38251816
  PAW double counting   =      3831.65874290    -3529.87192763
  entropy T*S    EENTRO =         0.00000000
  eigenvalues    EBANDS =     -1467.40625059
  atomic energy  EATOM  =      7277.57480299
  Solvation  Ediel_sol  =         0.00000000
  ---------------------------------------------------
  free energy    TOTEN  =       -92.24631212 eV

  energy without entropy =      -92.24631212  energy(sigma->0) =      -92.24631212


--------------------------------------------------------------------------------------------------------




--------------------------------------- Iteration      1(  15)  ---------------------------------------


    POTLOK:  cpu time    2.5368: real time    2.5535
    SETDIJ:  cpu time    0.0843: real time    0.0845
     EDDAV:  cpu time    2.8937: real time    2.9006
 BZINTS: Fermi energy: -0.595675;144.000000 electrons
         Band energy:***********;  BLOECHL correction:  0.000000
       DOS:  cpu time    0.0039: real time    0.0039
    CHARGE:  cpu time    0.1660: real time    0.1664
    MIXING:  cpu time    0.0058: real time    0.0058
    --------------------------------------------
      LOOP:  cpu time    5.6905: real time    5.7147

 eigenvalue-minimisations  :  2880
 total energy-change (2. order) :-0.1047990E-02  (-0.2202695E-03)
 number of electron     143.9999978 magnetization 
 augmentation part      -17.7787619 magnetization 

 Broyden mixing:
  rms(total) = 0.19592E-02    rms(broyden)= 0.19592E-02
  rms(prec ) = 0.38390E-02
  weight for this iteration     100.00

 eigenvalues of (default mixing * dielectric matrix)
  average eigenvalue GAMMA=   1.9283
  5.3540  3.3007  2.5748  1.6350  0.8836  0.8836  1.2666  1.2666  0.9915  1.1264

 Free energy of the ion-electron system (eV)
  ---------------------------------------------------
  alpha Z        PSCENC =       170.45750602
  Ewald energy   TEWEN  =     11304.96240280
  -Hartree energ DENC   =    -17717.49391412
  -exchange      EXHF   =         0.00000000
  -V(xc)+E(xc)   XCENC  =        36.37315789
  PAW double counting   =      3832.01428972    -3530.19989531
  entropy T*S    EENTRO =         0.00000000
  eigenvalues    EBANDS =     -1465.93571010
  atomic energy  EATOM  =      7277.57480299
  Solvation  Ediel_sol  =         0.00000000
  ---------------------------------------------------
  free energy    TOTEN  =       -92.24736011 eV

  energy without entropy =      -92.24736011  energy(sigma->0) =      -92.24736011


--------------------------------------------------------------------------------------------------------




--------------------------------------- Iteration      1(  16)  ---------------------------------------


    POTLOK:  cpu time    2.5948: real time    2.6131
    SETDIJ:  cpu time    0.0024: real time    0.0024
     EDDAV:  cpu time    2.7239: real time    2.7303
 BZINTS: Fermi energy: -0.586194;144.000000 electrons
         Band energy:***********;  BLOECHL correction:  0.000000
       DOS:  cpu time    0.0032: real time    0.0032
    CHARGE:  cpu time    0.1758: real time    0.1762
    MIXING:  cpu time    0.0063: real time    0.0064
    --------------------------------------------
      LOOP:  cpu time    5.5064: real time    5.5316

 eigenvalue-minimisations  :  3080
 total energy-change (2. order) : 0.1015461E-02  (-0.1491829E-03)
 number of electron     143.9999978 magnetization 
 augmentation part      -17.7785217 magnetization 

 Broyden mixing:
  rms(total) = 0.14693E-02    rms(broyden)= 0.14693E-02
  rms(prec ) = 0.26353E-02
  weight for this iteration     100.00

 eigenvalues of (default mixing * dielectric matrix)
  average eigenvalue GAMMA=   1.9897
  5.6665  3.7541  2.5760  1.7699  1.7699  0.8856  0.8856  1.2658  1.2658  1.0239
  1.0239

 Free energy of the ion-electron system (eV)
  ---------------------------------------------------
  alpha Z        PSCENC =       170.45750602
  Ewald energy   TEWEN  =     11304.96240280
  -Hartree energ DENC   =    -17719.08455020
  -exchange      EXHF   =         0.00000000
  -V(xc)+E(xc)   XCENC  =        36.37765526
  PAW double counting   =      3832.28488467    -3530.48510651
  entropy T*S    EENTRO =         0.00000000
  eigenvalues    EBANDS =     -1464.33393968
  atomic energy  EATOM  =      7277.57480299
  Solvation  Ediel_sol  =         0.00000000
  ---------------------------------------------------
  free energy    TOTEN  =       -92.24634464 eV

  energy without entropy =      -92.24634464  energy(sigma->0) =      -92.24634464


--------------------------------------------------------------------------------------------------------




--------------------------------------- Iteration      1(  17)  ---------------------------------------


    POTLOK:  cpu time    2.6949: real time    2.7149
    SETDIJ:  cpu time    0.0022: real time    0.0022
     EDDAV:  cpu time    3.2852: real time    3.2930
 BZINTS: Fermi energy: -0.579826;144.000000 electrons
         Band energy:***********;  BLOECHL correction:  0.000000
       DOS:  cpu time    0.0025: real time    0.0025
    CHARGE:  cpu time    0.1996: real time    0.2001
    MIXING:  cpu time    0.0058: real time    0.0058
    --------------------------------------------
      LOOP:  cpu time    6.1903: real time    6.2186

 eigenvalue-minimisations  :  3008
 total energy-change (2. order) : 0.5249382E-03  (-0.9751732E-04)
 number of electron     143.9999978 magnetization 
 augmentation part      -17.7784920 magnetization 

 Broyden mixing:
  rms(total) = 0.95446E-03    rms(broyden)= 0.95446E-03
  rms(prec ) = 0.17512E-02
  weight for this iteration     100.00

 eigenvalues of (default mixing * dielectric matrix)
  average eigenvalue GAMMA=   2.0140
  6.0404  3.9456  2.7869  2.2059  1.4519  1.4519  0.8846  0.8846  1.3367  1.0970
  1.0970  0.9857

 Free energy of the ion-electron system (eV)
  ---------------------------------------------------
  alpha Z        PSCENC =       170.45750602
  Ewald energy   TEWEN  =     11304.96240280
  -Hartree energ DENC   =    -17720.13715226
  -exchange      EXHF   =         0.00000000
  -V(xc)+E(xc)   XCENC  =        36.37933392
  PAW double counting   =      3832.25398749    -3530.44998699
  entropy T*S    EENTRO =         0.00000000
  eigenvalues    EBANDS =     -1463.28671368
  atomic energy  EATOM  =      7277.57480299
  Solvation  Ediel_sol  =         0.00000000
  ---------------------------------------------------
  free energy    TOTEN  =       -92.24581971 eV

  energy without entropy =      -92.24581971  energy(sigma->0) =      -92.24581971


--------------------------------------------------------------------------------------------------------




--------------------------------------- Iteration      1(  18)  ---------------------------------------


    POTLOK:  cpu time    2.4151: real time    2.4323
    SETDIJ:  cpu time    0.1197: real time    0.1200
     EDDAV:  cpu time    2.9572: real time    2.9642
 BZINTS: Fermi energy: -0.577015;144.000000 electrons
         Band energy:***********;  BLOECHL correction:  0.000000
       DOS:  cpu time    0.0025: real time    0.0025
    CHARGE:  cpu time    0.1625: real time    0.1629
    MIXING:  cpu time    0.0060: real time    0.0060
    --------------------------------------------
      LOOP:  cpu time    5.6629: real time    5.6878

 eigenvalue-minimisations  :  2768
 total energy-change (2. order) :-0.7630291E-03  (-0.3872969E-04)
 number of electron     143.9999978 magnetization 
 augmentation part      -17.7784104 magnetization 

 Broyden mixing:
  rms(total) = 0.58521E-03    rms(broyden)= 0.58521E-03
  rms(prec ) = 0.99029E-03
  weight for this iteration     100.00

 eigenvalues of (default mixing * dielectric matrix)
  average eigenvalue GAMMA=   2.0878
  6.4176  4.5698  2.7215  2.7215  1.8504  0.8843  0.8843  1.3653  1.3653  1.1986
  1.1986  0.9823  0.9823

 Free energy of the ion-electron system (eV)
  ---------------------------------------------------
  alpha Z        PSCENC =       170.45750602
  Ewald energy   TEWEN  =     11304.96240280
  -Hartree energ DENC   =    -17720.82901407
  -exchange      EXHF   =         0.00000000
  -V(xc)+E(xc)   XCENC  =        36.38196944
  PAW double counting   =      3832.19415102    -3530.38728786
  entropy T*S    EENTRO =         0.00000000
  eigenvalues    EBANDS =     -1462.60111307
  atomic energy  EATOM  =      7277.57480299
  Solvation  Ediel_sol  =         0.00000000
  ---------------------------------------------------
  free energy    TOTEN  =       -92.24658274 eV

  energy without entropy =      -92.24658274  energy(sigma->0) =      -92.24658274


--------------------------------------------------------------------------------------------------------




--------------------------------------- Iteration      1(  19)  ---------------------------------------


    POTLOK:  cpu time    2.9212: real time    2.9393
    SETDIJ:  cpu time    0.0019: real time    0.0019
     EDDAV:  cpu time    2.5471: real time    2.5531
 BZINTS: Fermi energy: -0.577289;144.000000 electrons
         Band energy:***********;  BLOECHL correction:  0.000000
       DOS:  cpu time    0.0022: real time    0.0022
    CHARGE:  cpu time    0.1638: real time    0.1642
    MIXING:  cpu time    0.0083: real time    0.0084
    --------------------------------------------
      LOOP:  cpu time    5.6445: real time    5.6691

 eigenvalue-minimisations  :  2608
 total energy-change (2. order) :-0.8058917E-03  (-0.3251778E-04)
 number of electron     143.9999978 magnetization 
 augmentation part      -17.7786150 magnetization 

 Broyden mixing:
  rms(total) = 0.48312E-03    rms(broyden)= 0.48311E-03
  rms(prec ) = 0.70709E-03
  weight for this iteration     100.00

 eigenvalues of (default mixing * dielectric matrix)
  average eigenvalue GAMMA=   2.1997
  6.9871  5.2901  3.1299  2.7973  2.0478  1.6456  1.6456  0.8844  0.8844  1.2496
  1.2496  0.9551  1.0148  1.0148

 Free energy of the ion-electron system (eV)
  ---------------------------------------------------
  alpha Z        PSCENC =       170.45750602
  Ewald energy   TEWEN  =     11304.96240280
  -Hartree energ DENC   =    -17720.99864808
  -exchange      EXHF   =         0.00000000
  -V(xc)+E(xc)   XCENC  =        36.37989178
  PAW double counting   =      3832.12404696    -3530.31502182
  entropy T*S    EENTRO =         0.00000000
  eigenvalues    EBANDS =     -1462.43236928
  atomic energy  EATOM  =      7277.57480299
  Solvation  Ediel_sol  =         0.00000000
  ---------------------------------------------------
  free energy    TOTEN  =       -92.24738863 eV

  energy without entropy =      -92.24738863  energy(sigma->0) =      -92.24738863


--------------------------------------------------------------------------------------------------------




--------------------------------------- Iteration      1(  20)  ---------------------------------------


    POTLOK:  cpu time    2.6853: real time    2.7052
    SETDIJ:  cpu time    0.0019: real time    0.0019
     EDDAV:  cpu time    2.3030: real time    2.3084
 BZINTS: Fermi energy: -0.578361;144.000000 electrons
         Band energy:***********;  BLOECHL correction:  0.000000
       DOS:  cpu time    0.0042: real time    0.0042
    CHARGE:  cpu time    0.1807: real time    0.1811
    MIXING:  cpu time    0.0112: real time    0.0113
    --------------------------------------------
      LOOP:  cpu time    5.1864: real time    5.2122

 eigenvalue-minimisations  :  2616
 total energy-change (2. order) :-0.5475145E-03  (-0.2319348E-04)
 number of electron     143.9999978 magnetization 
 augmentation part      -17.7787139 magnetization 

 Broyden mixing:
  rms(total) = 0.22358E-03    rms(broyden)= 0.22358E-03
  rms(prec ) = 0.33343E-03
  weight for this iteration     100.00

 eigenvalues of (default mixing * dielectric matrix)
  average eigenvalue GAMMA=   2.2837
  7.5059  6.2326  3.1172  3.1172  2.4959  1.6000  1.6000  0.8844  0.8844  1.3152
  1.3152  1.1318  1.1318  0.9618  0.9618

 Free energy of the ion-electron system (eV)
  ---------------------------------------------------
  alpha Z        PSCENC =       170.45750602
  Ewald energy   TEWEN  =     11304.96240280
  -Hartree energ DENC   =    -17721.08543226
  -exchange      EXHF   =         0.00000000
  -V(xc)+E(xc)   XCENC  =        36.38005222
  PAW double counting   =      3832.14969093    -3530.34045637
  entropy T*S    EENTRO =         0.00000000
  eigenvalues    EBANDS =     -1462.34650248
  atomic energy  EATOM  =      7277.57480299
  Solvation  Ediel_sol  =         0.00000000
  ---------------------------------------------------
  free energy    TOTEN  =       -92.24793614 eV

  energy without entropy =      -92.24793614  energy(sigma->0) =      -92.24793614


--------------------------------------------------------------------------------------------------------




--------------------------------------- Iteration      1(  21)  ---------------------------------------


    POTLOK:  cpu time    2.4791: real time    2.4989
    SETDIJ:  cpu time    0.0556: real time    0.0558
     EDDAV:  cpu time    2.6252: real time    2.6315
 BZINTS: Fermi energy: -0.581177;144.000000 electrons
         Band energy:***********;  BLOECHL correction:  0.000000
       DOS:  cpu time    0.0023: real time    0.0023
    CHARGE:  cpu time    0.1873: real time    0.1877
    MIXING:  cpu time    0.0066: real time    0.0067
    --------------------------------------------
      LOOP:  cpu time    5.3561: real time    5.3828

 eigenvalue-minimisations  :  2360
 total energy-change (2. order) :-0.3228443E-03  (-0.1346991E-04)
 number of electron     143.9999978 magnetization 
 augmentation part      -17.7786927 magnetization 

 Broyden mixing:
  rms(total) = 0.11966E-03    rms(broyden)= 0.11966E-03
  rms(prec ) = 0.14404E-03
  weight for this iteration     100.00

 eigenvalues of (default mixing * dielectric matrix)
  average eigenvalue GAMMA=   2.3312
  8.4530  6.4665  3.2397  3.2397  2.4353  1.8891  1.8891  0.8844  0.8844  1.3047
  1.3047  1.1521  1.1521  1.0411  0.9814  0.9814

 Free energy of the ion-electron system (eV)
  ---------------------------------------------------
  alpha Z        PSCENC =       170.45750602
  Ewald energy   TEWEN  =     11304.96240280
  -Hartree energ DENC   =    -17720.98191485
  -exchange      EXHF   =         0.00000000
  -V(xc)+E(xc)   XCENC  =        36.37927738
  PAW double counting   =      3832.17115677    -3530.36299574
  entropy T*S    EENTRO =         0.00000000
  eigenvalues    EBANDS =     -1462.44849435
  atomic energy  EATOM  =      7277.57480299
  Solvation  Ediel_sol  =         0.00000000
  ---------------------------------------------------
  free energy    TOTEN  =       -92.24825899 eV

  energy without entropy =      -92.24825899  energy(sigma->0) =      -92.24825899


--------------------------------------------------------------------------------------------------------




--------------------------------------- Iteration      1(  22)  ---------------------------------------


    POTLOK:  cpu time    2.5196: real time    2.5376
    SETDIJ:  cpu time    0.1131: real time    0.1134
     EDDAV:  cpu time    2.3727: real time    2.3783
 BZINTS: Fermi energy: -0.582999;144.000000 electrons
         Band energy:***********;  BLOECHL correction:  0.000000
       DOS:  cpu time    0.0023: real time    0.0023
    CHARGE:  cpu time    0.1667: real time    0.1671
    MIXING:  cpu time    0.0065: real time    0.0065
    --------------------------------------------
      LOOP:  cpu time    5.1809: real time    5.2052

 eigenvalue-minimisations  :  2088
 total energy-change (2. order) :-0.1125194E-04  (-0.4668146E-05)
 number of electron     143.9999978 magnetization 
 augmentation part      -17.7786682 magnetization 

 Broyden mixing:
  rms(total) = 0.69609E-04    rms(broyden)= 0.69608E-04
  rms(prec ) = 0.88719E-04
  weight for this iteration     100.00

 eigenvalues of (default mixing * dielectric matrix)
  average eigenvalue GAMMA=   2.3236
  8.6049  6.9653  3.3299  3.3299  2.5645  1.9185  1.9185  0.8844  0.8844  1.3972
  1.2231  1.2231  0.9655  0.9655  1.0914  1.1176  1.1176

 Free energy of the ion-electron system (eV)
  ---------------------------------------------------
  alpha Z        PSCENC =       170.45750602
  Ewald energy   TEWEN  =     11304.96240280
  -Hartree energ DENC   =    -17720.98053589
  -exchange      EXHF   =         0.00000000
  -V(xc)+E(xc)   XCENC  =        36.37895842
  PAW double counting   =      3832.15099483    -3530.34266135
  entropy T*S    EENTRO =         0.00000000
  eigenvalues    EBANDS =     -1462.44973806
  atomic energy  EATOM  =      7277.57480299
  Solvation  Ediel_sol  =         0.00000000
  ---------------------------------------------------
  free energy    TOTEN  =       -92.24827024 eV

  energy without entropy =      -92.24827024  energy(sigma->0) =      -92.24827024


--------------------------------------------------------------------------------------------------------




--------------------------------------- Iteration      1(  23)  ---------------------------------------


    POTLOK:  cpu time    2.9748: real time    2.9931
    SETDIJ:  cpu time    0.0021: real time    0.0021
     EDDAV:  cpu time    2.2911: real time    2.2966
 BZINTS: Fermi energy: -0.585350;144.000000 electrons
         Band energy:***********;  BLOECHL correction:  0.000000
       DOS:  cpu time    0.0023: real time    0.0023
    CHARGE:  cpu time    0.1724: real time    0.1728
    MIXING:  cpu time    0.0070: real time    0.0071
    --------------------------------------------
      LOOP:  cpu time    5.4497: real time    5.4740

 eigenvalue-minimisations  :  2064
 total energy-change (2. order) : 0.3417719E-04  (-0.3868468E-05)
 number of electron     143.9999978 magnetization 
 augmentation part      -17.7786553 magnetization 

 Broyden mixing:
  rms(total) = 0.39478E-04    rms(broyden)= 0.39476E-04
  rms(prec ) = 0.53382E-04
  weight for this iteration     100.00

 eigenvalues of (default mixing * dielectric matrix)
  average eigenvalue GAMMA=   2.3174
  8.6016  7.1622  3.4281  3.4281  2.6686  1.9509  1.9509  1.8032  0.8844  0.8844
  1.2711  1.2711  1.2588  1.1331  1.1331  0.9594  0.9594  0.9650

 Free energy of the ion-electron system (eV)
  ---------------------------------------------------
  alpha Z        PSCENC =       170.45750602
  Ewald energy   TEWEN  =     11304.96240280
  -Hartree energ DENC   =    -17720.96337689
  -exchange      EXHF   =         0.00000000
  -V(xc)+E(xc)   XCENC  =        36.37883799
  PAW double counting   =      3832.14850411    -3530.34027575
  entropy T*S    EENTRO =         0.00000000
  eigenvalues    EBANDS =     -1462.46663734
  atomic energy  EATOM  =      7277.57480299
  Solvation  Ediel_sol  =         0.00000000
  ---------------------------------------------------
  free energy    TOTEN  =       -92.24823606 eV

  energy without entropy =      -92.24823606  energy(sigma->0) =      -92.24823606


--------------------------------------------------------------------------------------------------------




--------------------------------------- Iteration      1(  24)  ---------------------------------------


    POTLOK:  cpu time    2.8886: real time    2.9076
    SETDIJ:  cpu time    0.0018: real time    0.0018
     EDDAV:  cpu time    2.5300: real time    2.5360
 BZINTS: Fermi energy: -0.597208;144.000000 electrons
         Band energy:***********;  BLOECHL correction:  0.000000
       DOS:  cpu time    0.0027: real time    0.0027
    CHARGE:  cpu time    0.1756: real time    0.1760
    MIXING:  cpu time    0.0081: real time    0.0081
    --------------------------------------------
      LOOP:  cpu time    5.6068: real time    5.6323

 eigenvalue-minimisations  :  2600
 total energy-change (2. order) : 0.1743394E-04  (-0.1513901E-05)
 number of electron     143.9999978 magnetization 
 augmentation part      -17.7786438 magnetization 

 Broyden mixing:
  rms(total) = 0.24205E-04    rms(broyden)= 0.24195E-04
  rms(prec ) = 0.33225E-04
  weight for this iteration     100.00

 eigenvalues of (default mixing * dielectric matrix)
  average eigenvalue GAMMA=   2.3114
  8.4979  7.3831  3.6031  3.6031  2.7853  2.2020  2.2020  1.8673  0.8844  0.8844
  1.2496  1.2496  0.9571  0.9571  1.1802  1.1192  1.1192  1.0864  1.0864

 Free energy of the ion-electron system (eV)
  ---------------------------------------------------
[...]
      7     -28.2755      2.00000
      8     -28.2752      2.00000
      9     -15.0190      2.00000
     10     -15.0188      2.00000
     11     -14.9549      2.00000
     12     -14.9549      2.00000
     13     -14.8866      2.00000
     14     -14.8866      2.00000
     15     -14.1901      2.00000
     16     -14.1898      2.00000
     17     -14.1537      2.00000
     18     -14.1470      2.00000
     19     -14.0934      2.00000
     20     -14.0922      2.00000
     21     -14.0457      2.00000
     22     -14.0383      2.00000
     23     -14.0159      2.00000
     24     -14.0128      2.00000
     25     -14.0120      2.00000
     26     -14.0103      2.00000
     27     -13.5841      2.00000
     28     -13.5770      2.00000
     29     -13.5305      2.00000
     30     -13.5229      2.00000
     31     -13.5083      2.00000
     32     -13.5055      2.00000
     33     -11.0374      2.00000
     34     -11.0279      2.00000
     35     -10.7142      2.00000
     36     -10.7007      2.00000
     37      -6.5361      2.00000
     38      -6.5226      2.00000
     39      -6.2853      2.00000
     40      -6.2778      2.00000
     41      -6.2002      2.00000
     42      -6.1925      2.00000
     43      -6.0045      2.00000
     44      -5.9913      2.00000
     45      -5.9420      2.00000
     46      -5.9030      2.00000
     47      -5.8647      2.00000
     48      -5.7544      2.00000
     49      -2.8527      2.00000
     50      -2.7677      2.00000
     51      -2.6388      2.00000
     52      -2.5918      2.00000
     53      -2.2805      2.00000
     54      -2.1998      2.00000
     55      -2.1877      2.00000
     56      -2.1592      2.00000
     57      -2.0247      2.00000
     58      -2.0025      2.00000
     59      -1.8952      2.00000
     60      -1.8172      2.00000
     61      -1.7540      2.00000
     62      -1.6627      2.00000
     63      -1.5619      2.00000
     64      -1.5195      2.00000
     65      -1.3714      2.00000
     66      -1.3105      2.00000
     67      -1.2662      2.00000
     68      -1.1342      2.00000
     69      -1.0301      2.00000
     70      -0.9809      2.00000
     71      -0.9320      2.00000
     72      -0.8820      2.00000
     73       0.1994      0.00000
     74       0.2393      0.00000
     75       0.3935      0.00000
     76       0.4382      0.00000
     77       0.5472      0.00000
     78       0.6175      0.00000
     79       0.7583      0.00000
     80       0.7775      0.00000
     81       0.8291      0.00000
     82       0.8731      0.00000
     83       1.0298      0.00000
     84       1.0629      0.00000
     85       1.1733      0.00000
     86       1.3130      0.00000
     87       1.4131      0.00000
     88       1.5226      0.00000

 k-point    15 :       0.0000    0.5000    0.4000
  band No.  band energies     occupation 
      1     -29.7268      2.00000
      2     -29.7268      2.00000
      3     -28.8387      2.00000
      4     -28.8387      2.00000
      5     -28.8024      2.00000
      6     -28.8024      2.00000
      7     -28.2754      2.00000
      8     -28.2754      2.00000
      9     -15.0185      2.00000
     10     -15.0185      2.00000
     11     -14.9556      2.00000
     12     -14.9556      2.00000
     13     -14.8885      2.00000
     14     -14.8885      2.00000
     15     -14.1893      2.00000
     16     -14.1892      2.00000
     17     -14.1513      2.00000
     18     -14.1513      2.00000
     19     -14.0953      2.00000
     20     -14.0952      2.00000
     21     -14.0445      2.00000
     22     -14.0445      2.00000
     23     -14.0132      2.00000
     24     -14.0132      2.00000
     25     -14.0124      2.00000
     26     -14.0124      2.00000
     27     -13.5802      2.00000
     28     -13.5802      2.00000
     29     -13.5276      2.00000
     30     -13.5276      2.00000
     31     -13.5058      2.00000
     32     -13.5058      2.00000
     33     -11.0267      2.00000
     34     -11.0267      2.00000
     35     -10.6982      2.00000
     36     -10.6982      2.00000
     37      -6.5590      2.00000
     38      -6.5589      2.00000
     39      -6.2640      2.00000
     40      -6.2640      2.00000
     41      -6.1900      2.00000
     42      -6.1899      2.00000
     43      -5.9742      2.00000
     44      -5.9741      2.00000
     45      -5.9344      2.00000
     46      -5.9344      2.00000
     47      -5.8018      2.00000
     48      -5.8018      2.00000
     49      -2.7621      2.00000
     50      -2.7621      2.00000
     51      -2.6352      2.00000
     52      -2.6352      2.00000
     53      -2.2305      2.00000
     54      -2.2305      2.00000
     55      -2.1891      2.00000
     56      -2.1891      2.00000
     57      -2.0236      2.00000
     58      -2.0236      2.00000
     59      -1.8051      2.00000
     60      -1.8051      2.00000
     61      -1.6141      2.00000
     62      -1.6140      2.00000
     63      -1.5938      2.00000
     64      -1.5938      2.00000
     65      -1.3557      2.00000
     66      -1.3557      2.00000
     67      -1.2052      2.00000
     68      -1.2052      2.00000
     69      -1.0199      2.00000
     70      -1.0199      2.00000
     71      -0.9149      2.00000
     72      -0.9149      2.00000
     73       0.1462      0.00000
     74       0.1463      0.00000
     75       0.3804      0.00000
     76       0.3804      0.00000
     77       0.5984      0.00000
     78       0.5984      0.00000
     79       0.7129      0.00000
     80       0.7129      0.00000
     81       0.7952      0.00000
     82       0.7953      0.00000
     83       1.0650      0.00000
     84       1.0651      0.00000
     85       1.2511      0.00000
     86       1.2514      0.00000
     87       1.3897      0.00000
     88       1.3904      0.00000


--------------------------------------------------------------------------------------------------------


 soft charge-density along one line, spin component           1
         0         1         2         3         4         5         6         7         8         9
 total charge-density along one line
 
 pseudopotential strength for first ion, spin component:           1
  4.881  -5.538  -0.000  -0.005  -0.021  -0.000  -0.005  -0.024
 -5.538  -2.772   0.000   0.001   0.002  -0.000  -0.001  -0.004
 -0.000   0.000  -6.750  -0.000  -0.000   1.896  -0.000  -0.000
 -0.005   0.001  -0.000  -6.745  -0.001  -0.000   1.907  -0.003
 -0.021   0.002  -0.000  -0.001  -6.746  -0.000  -0.003   1.907
 -0.000  -0.000   1.896  -0.000  -0.000   7.250  -0.000  -0.000
 -0.005  -0.001  -0.000   1.907  -0.003  -0.000   7.251  -0.000
 -0.024  -0.004  -0.000  -0.003   1.907  -0.000  -0.000   7.251
 -0.000   0.000  -0.013  -0.000  -0.000  -0.010  -0.000  -0.000
 -0.000   0.000  -0.000  -0.000  -0.000  -0.000  -0.000  -0.000
  0.002  -0.001   0.000  -0.005   0.007   0.000  -0.003   0.005
 -0.002   0.001  -0.000  -0.012  -0.002  -0.000  -0.009  -0.002
  0.003  -0.001   0.000  -0.001  -0.011   0.000  -0.001  -0.009
  0.000   0.000   0.001   0.000   0.000   0.000   0.000   0.000
  0.000   0.000   0.000   0.000   0.000  -0.000   0.000   0.000
 -0.000  -0.000  -0.000   0.000  -0.000  -0.000   0.000  -0.000
  0.000   0.000   0.000   0.001   0.000   0.000   0.000   0.000
 -0.000  -0.000  -0.000   0.000   0.001  -0.000   0.000   0.000
 total augmentation occupancy for first ion, spin component:           1
  2.113  -0.264   0.000   0.012   0.051   0.000  -0.005  -0.019   0.000  -0.000   0.015  -0.007   0.032  -0.000   0.000  -0.008
 -0.264   0.638   0.000  -0.031  -0.133   0.000   0.011   0.032   0.000  -0.000  -0.025   0.007  -0.063   0.000   0.000   0.035
  0.000   0.000   2.014   0.000  -0.000  -0.016   0.000  -0.000  -0.080   0.023  -0.000  -0.000   0.000   0.070  -0.043  -0.000
  0.012  -0.031   0.000   2.000   0.003   0.000  -0.007  -0.002   0.000   0.000  -0.044  -0.065  -0.014  -0.000   0.000   0.044
  0.051  -0.133   0.000   0.003   1.996  -0.000  -0.002  -0.005   0.000   0.000   0.033  -0.006  -0.050   0.000   0.000  -0.028
  0.000   0.000  -0.016   0.000   0.000   0.008   0.000   0.000   0.022  -0.009   0.000   0.000   0.000  -0.030   0.014   0.000
 -0.005   0.011   0.000  -0.007  -0.002  -0.000   0.005   0.001   0.000   0.000   0.016   0.015   0.005   0.000  -0.000  -0.022
 -0.019   0.032   0.000  -0.002  -0.005  -0.000   0.001   0.004   0.000   0.000  -0.006  -0.000   0.008   0.000   0.000   0.008
  0.000   0.000  -0.080   0.000   0.000   0.022   0.000   0.000   0.149  -0.015  -0.000   0.000   0.000  -0.187   0.020  -0.000
  0.000  -0.000   0.023   0.000   0.000  -0.009   0.000   0.000  -0.015   0.068  -0.000   0.000  -0.000   0.019  -0.085   0.000
  0.015  -0.025   0.000  -0.044   0.033   0.000   0.016  -0.006   0.000   0.000   0.120   0.051   0.020  -0.000   0.000  -0.149
 -0.007   0.007   0.000  -0.065  -0.006   0.000   0.015  -0.000   0.000   0.000   0.051   0.088   0.008  -0.000   0.000  -0.071
  0.032  -0.063   0.000  -0.014  -0.050   0.000   0.005   0.008   0.000   0.000   0.020   0.008   0.092   0.000   0.000  -0.026
  0.000  -0.000   0.070   0.000  -0.000  -0.030   0.000   0.000  -0.187   0.019  -0.000   0.000   0.000   0.264  -0.034   0.000
  0.000   0.000  -0.043   0.000   0.000   0.014   0.000   0.000   0.020  -0.085   0.000   0.000   0.000  -0.034   0.115   0.000
 -0.008   0.035  -0.000   0.044  -0.028   0.000  -0.022   0.008   0.000   0.000  -0.149  -0.071  -0.026  -0.000  -0.000   0.205
  0.005  -0.024   0.000   0.056  -0.001   0.000  -0.022  -0.000   0.000   0.000  -0.069  -0.112  -0.011   0.000   0.000   0.107
 -0.024   0.075  -0.000   0.023   0.043   0.000  -0.008  -0.012   0.000   0.000  -0.028  -0.012  -0.121   0.000   0.000   0.043


------------------------ aborting loop because EDIFF is reached ----------------------------------------


    CHARGE:  cpu time    0.1597: real time    0.1601
    FORLOC:  cpu time    0.0098: real time    0.0099
    FORNL :  cpu time    0.4666: real time    0.4678
    STRESS:  cpu time    1.4995: real time    1.5232
    FORCOR:  cpu time    2.5240: real time    2.5300
    FORHAR:  cpu time    0.0278: real time    0.0279
    MIXING:  cpu time    0.0091: real time    0.0092
    OFIELD:  cpu time    0.0000: real time    0.0000

  FORCE on cell =-STRESS in cart. coord.  units (eV):
  Direction    XX          YY          ZZ          XY          YZ          ZX
  --------------------------------------------------------------------------------------
  Alpha Z   170.45751   170.45751   170.45751
  Ewald  -19057.34188 15449.55259 14912.73835    -0.00002     0.00000   133.98708
  Hartree-15992.36149 17064.95494 16648.34978     0.00000    -0.00000   102.89236
  E(xc)    -466.19764  -467.35196  -467.44393    -0.00000     0.00000     0.05451
  Local   33633.30794-33951.12925-32989.74302     0.00001    -0.00000  -234.72052
  n-local   340.55731   340.29537   341.49760     0.06074    -0.21246    -1.36252
  augment  -167.34257  -167.74976  -167.66918    -0.00000    -0.00000     0.28613
  Kinetic  1528.40216  1548.68499  1539.77429    -0.04543    -0.83351    -0.96115
  Fock        0.00000     0.00000     0.00000     0.00000     0.00000     0.00000
  -------------------------------------------------------------------------------------
  Total     -10.51866   -12.28557   -12.03860     0.00000     0.00000     0.17588
  in kB      -8.92603   -10.42541   -10.21583     0.00000     0.00000     0.14925
  external pressure =       -9.86 kB  Pullay stress =        0.00 kB


 VOLUME and BASIS-vectors are now :
 -----------------------------------------------------------------------------
  energy-cutoff  :      500.00
  volume of cell :     1888.05
      direct lattice vectors                 reciprocal lattice vectors
    24.009468079  0.000000000  0.000000000     0.041650236  0.000000000  0.000000000
     0.000000000  6.777849674  0.000000000     0.000000000  0.147539419  0.000000000
     0.000000000  0.000000000 11.602143288     0.000000000  0.000000000  0.086190971

  length of vectors
    24.009468079  6.777849674 11.602143288     0.041650236  0.147539419  0.086190971


 FORCES acting on ions
    electron-ion (+dipol)            ewald-force                    non-local-force                 convergence-correction
 -----------------------------------------------------------------------------------------------
   0.769E+03 0.101E-04 0.427E+02   -.764E+03 0.982E-05 -.420E+02   -.402E+01 0.228E-18 -.777E+00   0.742E-04 -.362E-09 0.329E-05
   -.769E+03 -.633E-04 -.427E+02   0.764E+03 -.127E-04 0.420E+02   0.402E+01 0.268E-18 0.777E+00   -.741E-04 0.288E-09 -.328E-05
   0.861E+02 -.614E-04 -.359E+02   -.859E+02 -.176E-04 0.347E+02   0.138E+00 0.104E-18 0.124E+01   0.550E-04 0.504E-09 -.631E-04
   -.861E+02 0.109E-04 0.359E+02   0.859E+02 0.126E-04 -.347E+02   -.138E+00 -.107E-18 -.124E+01   -.550E-04 -.568E-09 0.631E-04
   0.615E+03 -.614E-04 -.479E+02   -.613E+03 -.164E-04 0.484E+02   -.167E+01 0.217E-17 -.433E+00   0.180E-03 0.380E-09 -.337E-04
   -.615E+03 0.905E-05 0.479E+02   0.613E+03 0.142E-04 -.484E+02   0.167E+01 0.250E-17 0.433E+00   -.180E-03 -.454E-09 0.337E-04
   0.354E+03 0.114E-04 -.772E+01   -.353E+03 0.131E-04 0.710E+01   -.459E+00 0.519E-17 0.620E+00   0.148E-03 -.544E-09 -.231E-04
   -.354E+03 -.621E-04 0.772E+01   0.353E+03 -.133E-04 -.710E+01   0.459E+00 0.448E-17 -.620E+00   -.148E-03 0.459E-09 0.231E-04
   0.271E+03 0.348E+02 -.455E+02   -.271E+03 -.368E+02 0.465E+02   -.118E+00 0.201E+01 -.105E+01   0.116E-03 0.392E-04 -.338E-04
   -.271E+03 -.348E+02 0.455E+02   0.271E+03 0.368E+02 -.465E+02   0.118E+00 -.201E+01 0.105E+01   -.116E-03 -.392E-04 0.338E-04
   0.118E+03 -.310E+02 0.178E+01   -.117E+03 0.327E+02 -.460E+00   -.157E+00 -.165E+01 -.132E+01   0.501E-04 -.276E-04 0.302E-06
   -.118E+03 0.310E+02 -.178E+01   0.117E+03 -.327E+02 0.460E+00   0.157E+00 0.165E+01 0.132E+01   -.501E-04 0.276E-04 -.299E-06
   -.271E+03 0.348E+02 0.455E+02   0.271E+03 -.368E+02 -.465E+02   0.118E+00 0.201E+01 0.105E+01   -.116E-03 0.392E-04 0.338E-04
   0.271E+03 -.348E+02 -.455E+02   -.271E+03 0.368E+02 0.465E+02   -.118E+00 -.201E+01 -.105E+01   0.116E-03 -.392E-04 -.338E-04
   -.118E+03 -.310E+02 -.178E+01   0.117E+03 0.327E+02 0.460E+00   0.157E+00 -.165E+01 0.132E+01   -.501E-04 -.276E-04 -.299E-06
   0.118E+03 0.310E+02 0.178E+01   -.117E+03 -.327E+02 -.460E+00   -.157E+00 0.165E+01 -.132E+01   0.501E-04 0.276E-04 0.302E-06
   0.325E+03 -.431E-05 0.454E+02   -.327E+03 -.607E-05 -.459E+02   0.163E+01 -.101E-17 0.480E+00   0.786E-04 0.160E-09 0.174E-04
   -.325E+03 0.538E-05 -.454E+02   0.327E+03 0.627E-05 0.459E+02   -.163E+01 -.108E-17 -.480E+00   -.786E-04 -.150E-09 -.174E-04
   0.337E+02 0.821E-05 -.997E+01   -.315E+02 0.742E-05 0.935E+01   -.178E+01 -.447E-19 0.616E+00   0.635E-05 -.207E-09 -.597E-05
   -.337E+02 -.329E-05 0.997E+01   0.315E+02 -.712E-05 -.935E+01   0.178E+01 0.557E-19 -.616E+00   -.634E-05 0.210E-09 0.596E-05
   0.236E+03 0.418E-05 0.119E+02   -.236E+03 0.803E-05 -.137E+02   -.141E+00 -.321E-18 0.180E+01   0.103E-03 -.176E-09 0.359E-04
   -.236E+03 -.505E-05 -.119E+02   0.236E+03 -.809E-05 0.137E+02   0.141E+00 -.322E-18 -.180E+01   -.103E-03 0.184E-09 -.359E-04
   0.153E+03 -.630E-05 0.567E+02   -.153E+03 -.753E-05 -.589E+02   -.759E+00 -.914E-20 0.223E+01   0.516E-04 0.205E-09 0.400E-04
   -.153E+03 0.327E-05 -.567E+02   0.153E+03 0.737E-05 0.589E+02   0.759E+00 0.102E-17 -.223E+01   -.516E-04 -.193E-09 -.400E-04
 -----------------------------------------------------------------------------------------------
   -.125E-02 -.215E-03 0.992E-04   0.114E-12 0.661E-15 0.121E-12   -.111E-15 0.886E-15 0.000E+00   0.548E-07 -.257E-09 -.406E-08
 
 
 POSITION                                       TOTAL-FORCE (eV/Angst)
 -----------------------------------------------------------------------------------
      0.13670      1.69446      8.16715         0.752057      0.000000     -0.000203
      9.27277      5.08339      3.43500        -0.752057      0.000000      0.000203
      4.36803      5.08339      2.16094         0.342888      0.000000      0.000390
      5.04143      1.69446      9.44120        -0.342888      0.000000     -0.000390
      1.43529      5.08339     10.62069         0.672706      0.000000      0.000094
      7.97418      1.69446      0.98146        -0.672706      0.000000     -0.000094
      3.06944      1.69446      4.61353         0.500036      0.000000     -0.000417
      6.34002      5.08339      6.98861        -0.500036      0.000000      0.000417
      1.75027      0.48683      1.66012        -0.155803     -0.000848      0.000326
      7.65920      6.29102      9.94203         0.155803      0.000848     -0.000326
      2.75446      6.30274      7.64558         0.296222      0.000405      0.000517
      6.65500      0.47511      3.95656        -0.296222     -0.000405     -0.000517
      7.65920      3.87575      9.94203         0.155803     -0.000848     -0.000326
      1.75027      2.90210      1.66012        -0.155803      0.000848      0.000326
      6.65500      2.91381      3.95656        -0.296222      0.000405     -0.000517
      2.75446      3.86404      7.64558         0.296222     -0.000405      0.000517
      0.74693      5.08339      6.94691        -0.324168      0.000000     -0.000089
      8.66254      1.69446      4.65524         0.324168      0.000000      0.000089
      3.75780      1.69446      0.93711         0.380638      0.000000      0.000505
      5.65166      5.08339     10.66503        -0.380638      0.000000     -0.000505
      1.78112      1.69446     11.13360        -0.189699      0.000000     -0.000838
      7.62835      5.08339      0.46854         0.189699      0.000000      0.000838
      2.72362      5.08339      5.51923        -0.101356      0.000000      0.000504
      6.68585      1.69446      6.08291         0.101356      0.000000     -0.000504
 -----------------------------------------------------------------------------------
    total drift:                               -0.001250     -0.000215      0.000099


--------------------------------------------------------------------------------------------------------



  FREE ENERGIE OF THE ION-ELECTRON SYSTEM (eV)
  ---------------------------------------------------
  free  energy   TOTEN  =       -92.24821182 eV

  energy  without entropy=      -92.24821182  energy(sigma->0) =      -92.24821182
 


--------------------------------------------------------------------------------------------------------


    POTLOK:  cpu time    3.4019: real time    3.4100


--------------------------------------------------------------------------------------------------------


 writing wavefunctions
     LOOP+:  cpu time14711.7492: real time14754.8417
    4ORBIT:  cpu time    0.0000: real time    0.0000
 BZINTS: Fermi energy: -0.629886;144.000000 electrons
         Band energy:***********;  BLOECHL correction:  0.000000

 total amount of memory used by VASP MPI-rank0    79355. kBytes
=======================================================================

   base      :      30000. kBytes
   nonlr-proj:       2649. kBytes
   fftplans  :       5898. kBytes
   grid      :       8824. kBytes
   one-center:         93. kBytes
   wavefun   :      31891. kBytes
 
  
  
 General timing and accounting informations for this job:
 ========================================================
  
                  Total CPU time used (sec):    14720.605
                            User time (sec):    14708.215
                          System time (sec):       12.390
                         Elapsed time (sec):    14767.414
  
                   Maximum memory used (kb):      310836.
                   Average memory used (kb):           0.
  
                          Minor page faults:       109956
                          Major page faults:          122
                 Voluntary context switches:        13528
