 vasp.5.4.4.18Apr17-6-g9f103f2a35 (build Nov 21 2017 15:30:27) complex          
  
 executed on             LinuxIFC date 2020.09.16  11:58:39
 running on   64 total cores
 distrk:  each k-point on   32 cores,    2 groups
 distr:  one band on NCORES_PER_BAND=   4 cores,    8 groups


--------------------------------------------------------------------------------------------------------


 INCAR:
 POTCAR:   PAW_PBE Ba_sv 06Sep2000                
 POTCAR:   PAW_PBE Si 05Jan2001                   

 ----------------------------------------------------------------------------- 
|                                                                             |
|           W    W    AA    RRRRR   N    N  II  N    N   GGGG   !!!           |
|           W    W   A  A   R    R  NN   N  II  NN   N  G    G  !!!           |
|           W    W  A    A  R    R  N N  N  II  N N  N  G       !!!           |
|           W WW W  AAAAAA  RRRRR   N  N N  II  N  N N  G  GGG   !            |
|           WW  WW  A    A  R   R   N   NN  II  N   NN  G    G                |
|           W    W  A    A  R    R  N    N  II  N    N   GGGG   !!!           |
|                                                                             |
|      You have enabled k-point parallelism (KPAR>1).                         |
|      This developmental code was originally  written by Paul Kent at ORNL,  |
|      and carefully double checked in Vienna.                                |
|      GW as well as linear response parallelism added by Martijn Marsman     |
|      and Georg Kresse.                                                      |
|      Carefully verify results versus KPAR=1.                                |
|      Report problems to Paul Kent and Vienna.                               |
|                                                                             |
 ----------------------------------------------------------------------------- 


 ----------------------------------------------------------------------------- 
|                                                                             |
|  ADVICE TO THIS USER RUNNING 'VASP/VAMP'   (HEAR YOUR MASTER'S VOICE ...):  |
|                                                                             |
|      You have switched on vdW-DFT.                                          |
|      This routine was written and supplied by Jiri Klimes.                  |
|      We recommed that you carefully read and cite the following             |
|      publication                                                            |
|      J. Klimes, D.R. Bowler, A. Michelides                                  |
|        J. Phys.: Cond Matt. 22 022201 (2010)                                |
|      J. Klimes, D.R. Bowler, A. Michelides                                  |
|        Phys. Rev. B. 83, 195131 (2011)                                      |
|      and references therein.                                                |
|                                                                             |
 ----------------------------------------------------------------------------- 

 POTCAR:   PAW_PBE Ba_sv 06Sep2000                
   VRHFIN =Ba: 5s5p6s                                                           
   LEXCH  = PE                                                                  
   EATOM  =   700.2255 eV,   51.4651 Ry                                         
                                                                                
   TITEL  = PAW_PBE Ba_sv 06Sep2000                                             
   LULTRA =        F    use ultrasoft PP ?                                      
   IUNSCR =        1    unscreen: 0-lin 1-nonlin 2-no                           
   RPACOR =    2.400    partial core radius                                     
   POMASS =  137.327; ZVAL   =   10.000    mass and valenz                      
   RCORE  =    2.800    outmost cutoff radius                                   
   RWIGS  =    3.740; RWIGS  =    1.979    wigner-seitz radius (au A)           
   ENMAX  =  187.210; ENMIN  =  140.408 eV                                      
   RCLOC  =    2.516    cutoff for local pot                                    
   LCOR   =        T    correct aug charges                                     
   LPAW   =        T    paw PP                                                  
   EAUG   =  351.165                                                            
   DEXC   =     .000                                                            
   RMAX   =    3.370    core radius for proj-oper                               
   RAUG   =    1.300    factor for augmentation sphere                          
   RDEP   =    2.976    radius for radial grids                                 
   QCUT   =   -3.709; QGAM   =    7.419    optimization parameters              
                                                                                
   Description                                                                  
     l     E      TYP  RCUT    TYP  RCUT                                        
     0   .000     23  2.800                                                     
     0   .000     23  2.800                                                     
     1   .000     23  2.700                                                     
     1  2.000     23  2.700                                                     
     2   .000     23  2.700                                                     
     2   .000     23  2.700                                                     
  local pseudopotential read in
  partial core-charges read in
  atomic valenz-charges read in
  non local Contribution for L=           0  read in
    real space projection operators read in
  non local Contribution for L=           0  read in
    real space projection operators read in
  non local Contribution for L=           1  read in
    real space projection operators read in
  non local Contribution for L=           1  read in
    real space projection operators read in
  non local Contribution for L=           2  read in
    real space projection operators read in
  non local Contribution for L=           2  read in
    real space projection operators read in
    PAW grid and wavefunctions read in
 
   number of l-projection  operators is LMAX  =           6
   number of lm-projection operators is LMMAX =          18
 
 POTCAR:   PAW_PBE Si 05Jan2001                   
   VRHFIN =Si: s2p2                                                             
   LEXCH  = PE                                                                  
   EATOM  =   103.0669 eV,    7.5752 Ry                                         
                                                                                
   TITEL  = PAW_PBE Si 05Jan2001                                                
   LULTRA =        F    use ultrasoft PP ?                                      
   IUNSCR =        1    unscreen: 0-lin 1-nonlin 2-no                           
   RPACOR =    1.500    partial core radius                                     
   POMASS =   28.085; ZVAL   =    4.000    mass and valenz                      
   RCORE  =    1.900    outmost cutoff radius                                   
   RWIGS  =    2.480; RWIGS  =    1.312    wigner-seitz radius (au A)           
   ENMAX  =  245.345; ENMIN  =  184.009 eV                                      
   ICORE  =        2    local potential                                         
   LCOR   =        T    correct aug charges                                     
   LPAW   =        T    paw PP                                                  
   EAUG   =  322.069                                                            
   DEXC   =    -.007                                                            
   RMAX   =    2.944    core radius for proj-oper                               
   RAUG   =    1.300    factor for augmentation sphere                          
   RDEP   =    1.993    radius for radial grids                                 
   QCUT   =   -4.246; QGAM   =    8.493    optimization parameters              
                                                                                
   Description                                                                  
     l     E      TYP  RCUT    TYP  RCUT                                        
     0   .000     23  1.900                                                     
     0   .000     23  1.900                                                     
     1   .000     23  1.900                                                     
     1   .000     23  1.900                                                     
     2   .000      7  1.900                                                     
  local pseudopotential read in
  partial core-charges read in
  atomic valenz-charges read in
  non local Contribution for L=           0  read in
    real space projection operators read in
  non local Contribution for L=           0  read in
    real space projection operators read in
  non local Contribution for L=           1  read in
    real space projection operators read in
  non local Contribution for L=           1  read in
    real space projection operators read in
    PAW grid and wavefunctions read in
 
   number of l-projection  operators is LMAX  =           4
   number of lm-projection operators is LMMAX =           8
 
 Optimization of the real space projectors (new method)

 maximal supplied QI-value         = 13.42
 optimisation between [QCUT,QGAM] = [ 11.40, 22.81] = [ 36.42,145.68] Ry 
 Optimized for a Real-space Cutoff    1.56 Angstroem

   l    n(q)    QCUT    max X(q) W(low)/X(q) W(high)/X(q)  e(spline) 
   0     11    11.404     7.198    0.14E-04    0.26E-04    0.99E-07
   0     11    11.404    15.603    0.29E-04    0.72E-04    0.44E-06
   1     10    11.404     3.746    0.20E-04    0.24E-04    0.43E-07
   1     10    11.404     4.362    0.22E-03    0.97E-04    0.22E-06
   2     10    11.404     5.782    0.83E-04    0.62E-05    0.27E-06
   2     10    11.404    65.505    0.42E-03    0.31E-04    0.12E-05
 Optimization of the real space projectors (new method)

 maximal supplied QI-value         = 19.84
 optimisation between [QCUT,QGAM] = [ 11.31, 22.82] = [ 35.82,145.81] Ry 
 Optimized for a Real-space Cutoff    1.16 Angstroem

   l    n(q)    QCUT    max X(q) W(low)/X(q) W(high)/X(q)  e(spline) 
   0      8    11.310     8.708    0.14E-04    0.11E-04    0.43E-08
   0      8    11.310   106.241    0.27E-03    0.30E-03    0.38E-07
   1      7    11.310     5.901    0.82E-05    0.48E-04    0.19E-07
   1      7    11.310    73.241    0.27E-03    0.27E-03    0.74E-07

 ----------------------------------------------------------------------------- 
|                                                                             |
|  ADVICE TO THIS USER RUNNING 'VASP/VAMP'   (HEAR YOUR MASTER'S VOICE ...):  |
|                                                                             |
|      You enforced a specific xc-type in the INCAR file,                     |
|      a different type was found on the POTCAR file                          |
|          I HOPE YOU KNOW, WHAT YOU ARE  DOING                               |
|                                                                             |
 ----------------------------------------------------------------------------- 

 PAW_PBE Ba_sv 06Sep2000                :
 energy of atom  1       EATOM= -700.2255
 kinetic energy error for atom=    0.0005 (will be added to EATOM!!)
 PAW_PBE Si 05Jan2001                   :
 energy of atom  2       EATOM= -103.0669
 kinetic energy error for atom=    0.0006 (will be added to EATOM!!)
 
 
 POSCAR: ba8 si16                                
  positions in direct lattice
  velocities in cartesian coordinates
 exchange correlation table for  LEXCH =       42
   RHO(1)=    0.500       N(1)  =     2000
   RHO(2)=  100.500       N(2)  =     4000
 


--------------------------------------------------------------------------------------------------------


 ion  position               nearest neighbor table
   1  0.006  0.250  0.705-  21 3.40  16 3.44  11 3.44  17 3.66  17 3.66   5 4.38   5 4.38   7 4.61

   2  0.380  0.750  0.295-  22 3.40  12 3.44  15 3.44  18 3.66  18 3.66   6 4.38   6 4.38   8 4.61

   3  0.182  0.750  0.187-  20 3.34   9 3.44  14 3.44  12 3.53  15 3.53  22 3.56  19 3.65  19 3.65
                            23 3.73   5 4.29   7 4.38   7 4.38
   4  0.204  0.250  0.813-  19 3.34  13 3.44  10 3.44  16 3.53  11 3.53  21 3.56  20 3.65  20 3.65
                            24 3.73   6 4.29   8 4.38   8 4.38
   5  0.060  0.750  0.917-   9 3.44  14 3.44  21 3.45  21 3.45  11 3.49  16 3.49  17 3.75   3 4.29
                             1 4.38   1 4.38
   6  0.326  0.250  0.083-  13 3.44  10 3.44  22 3.45  22 3.45  15 3.49  12 3.49  18 3.75   4 4.29
                             2 4.38   2 4.38
   7  0.128  0.250  0.399-  14 3.45   9 3.45  23 3.52  23 3.52  15 3.71  12 3.71  19 3.72  16 3.73
                            11 3.73  24 3.76   3 4.38   3 4.38   1 4.61
   8  0.258  0.750  0.601-  10 3.45  13 3.45  24 3.52  24 3.52  11 3.71  16 3.71  20 3.72  12 3.73
                            15 3.73  23 3.76   4 4.38   4 4.38   2 4.61
   9  0.073  0.072  0.145-  14 2.42  21 2.45  19 2.45   3 3.44   5 3.44   7 3.45
  10  0.313  0.928  0.855-  13 2.42  22 2.45  20 2.45   4 3.44   6 3.44   8 3.45
  11  0.115  0.929  0.659-  16 2.43  23 2.45  17 2.45   1 3.44   5 3.49   4 3.53   8 3.71   7 3.73

  12  0.271  0.071  0.341-  15 2.43  24 2.45  18 2.45   2 3.44   6 3.49   3 3.53   7 3.71   8 3.73

  13  0.313  0.572  0.855-  10 2.42  22 2.45  20 2.45   4 3.44   6 3.44   8 3.45
  14  0.073  0.428  0.145-   9 2.42  21 2.45  19 2.45   3 3.44   5 3.44   7 3.45
  15  0.271  0.429  0.341-  12 2.43  24 2.45  18 2.45   2 3.44   6 3.49   3 3.53   7 3.71   8 3.73

  16  0.115  0.571  0.659-  11 2.43  23 2.45  17 2.45   1 3.44   5 3.49   4 3.53   8 3.71   7 3.73

  17  0.031  0.750  0.599-  23 2.44  11 2.45  16 2.45   1 3.66   1 3.66   5 3.75
  18  0.355  0.250  0.401-  24 2.44  15 2.45  12 2.45   2 3.66   2 3.66   6 3.75
  19  0.157  0.250  0.084-  21 2.43  14 2.45   9 2.45   4 3.34   3 3.65   3 3.65   7 3.72
  20  0.229  0.750  0.916-  22 2.43  10 2.45  13 2.45   3 3.34   4 3.65   4 3.65   8 3.72
  21  0.074  0.250  0.962-  19 2.43  14 2.45   9 2.45   1 3.40   5 3.45   5 3.45   4 3.56
  22  0.311  0.750  0.038-  20 2.43  10 2.45  13 2.45   2 3.40   6 3.45   6 3.45   3 3.56
  23  0.113  0.750  0.476-  17 2.44  11 2.45  16 2.45   7 3.52   7 3.52   3 3.73   8 3.76
  24  0.272  0.250  0.524-  18 2.44  15 2.45  12 2.45   8 3.52   8 3.52   4 3.73   7 3.76
 
  LATTYP: Found a simple orthorhombic cell.
 ALAT       =     6.7778496742
 B/A-ratio  =     1.7117734747
 C/A-ratio  =     3.5423429602
  
  Lattice vectors:
  
 A1 = (   0.0000000000,   6.7778496742,   0.0000000000)
 A2 = (   0.0000000000,   0.0000000000, -11.6021432877)
 A3 = ( -24.0094680786,   0.0000000000,   0.0000000000)


Analysis of symmetry for initial positions (statically):
=====================================================================
 Subroutine PRICEL returns:
 Original cell was already a primitive cell.
 

 Routine SETGRP: Setting up the symmetry group for a 
 simple orthorhombic supercell.


 Subroutine GETGRP returns: Found  4 space group operations
 (whereof  1 operations were pure point group operations)
 out of a pool of  8 trial point group operations.


The static configuration has the point symmetry C_1 .
 The point group associated with its full space group is C_2h.


Analysis of symmetry for dynamics (positions and initial velocities):
=====================================================================
 Subroutine PRICEL returns:
 Original cell was already a primitive cell.
 

 Routine SETGRP: Setting up the symmetry group for a 
 simple orthorhombic supercell.


 Subroutine GETGRP returns: Found  4 space group operations
 (whereof  1 operations were pure point group operations)
 out of a pool of  8 trial point group operations.


The dynamic configuration has the point symmetry C_1 .
 The point group associated with its full space group is C_2h.


Analysis of constrained symmetry for selective dynamics:
=====================================================================
 Subroutine PRICEL returns:
 Original cell was already a primitive cell.
 

 Routine SETGRP: Setting up the symmetry group for a 
 simple orthorhombic supercell.


 Subroutine GETGRP returns: Found  4 space group operations
 (whereof  1 operations were pure point group operations)
 out of a pool of  8 trial point group operations.


The constrained configuration has the point symmetry C_1 .
 The point group associated with its full space group is C_2h.


 Subroutine INISYM returns: Found  4 space group operations
 (whereof  1 operations are pure point group operations),
 and found     1 'primitive' translations

 
 
 KPOINTS: k-density: 8.0                          

Automatic generation of k-mesh.
Space group operators:
 irot       det(A)        alpha          n_x          n_y          n_z        tau_x        tau_y        tau_z
    1     1.000000     0.000000     1.000000     0.000000     0.000000     0.000000     0.000000     0.000000
    2    -1.000000     0.000000     1.000000     0.000000     0.000000    -0.614341     0.000000     0.000000
    3     1.000000   180.000000     0.000000     1.000000     0.000000    -0.614341     0.500000     0.000000
    4    -1.000000   180.000000     0.000000     1.000000     0.000000     0.000000     0.500000     0.000000
 
 Subroutine IBZKPT returns following result:
 ===========================================
 
 Found     15 irreducible k-points:
 
 Following reciprocal coordinates:
            Coordinates               Weight
  0.000000  0.000000  0.000000      1.000000
  0.000000  0.125000  0.000000      2.000000
  0.000000  0.250000  0.000000      2.000000
  0.000000  0.375000  0.000000      2.000000
  0.000000  0.500000  0.000000      1.000000
  0.000000  0.000000  0.200000      2.000000
  0.000000  0.125000  0.200000      4.000000
  0.000000  0.250000  0.200000      4.000000
  0.000000  0.375000  0.200000      4.000000
  0.000000  0.500000  0.200000      2.000000
  0.000000  0.000000  0.400000      2.000000
  0.000000  0.125000  0.400000      4.000000
  0.000000  0.250000  0.400000      4.000000
  0.000000  0.375000  0.400000      4.000000
  0.000000  0.500000  0.400000      2.000000
 
 Following cartesian coordinates:
            Coordinates               Weight
  0.000000  0.000000  0.000000      1.000000
  0.000000  0.018442  0.000000      2.000000
  0.000000  0.036885  0.000000      2.000000
  0.000000  0.055327  0.000000      2.000000
  0.000000  0.073770  0.000000      1.000000
  0.000000  0.000000  0.017238      2.000000
  0.000000  0.018442  0.017238      4.000000
  0.000000  0.036885  0.017238      4.000000
  0.000000  0.055327  0.017238      4.000000
  0.000000  0.073770  0.017238      2.000000
  0.000000  0.000000  0.034476      2.000000
  0.000000  0.018442  0.034476      4.000000
  0.000000  0.036885  0.034476      4.000000
  0.000000  0.055327  0.034476      4.000000
  0.000000  0.073770  0.034476      2.000000
 
 TETIRR: Found    108 inequivalent tetrahedra from      240


--------------------------------------------------------------------------------------------------------




 Dimension of arrays:
   k-points           NKPTS =     15   k-points in BZ     NKDIM =     15   number of bands    NBANDS=     88
   number of dos      NEDOS =    301   number of ions     NIONS =     24
   non local maximal  LDIM  =      6   non local SUM 2l+1 LMDIM =     18
   total plane-waves  NPLWV = 358400
   max r-space proj   IRMAX =   3093   max aug-charges    IRDMAX=  12081
   dimension x,y,z NGX =   140 NGY =   40 NGZ =   64
   dimension x,y,z NGXF=   280 NGYF=   80 NGZF=  128
   support grid    NGXF=   280 NGYF=   80 NGZF=  128
   ions per type =               8  16
   NGX,Y,Z   is equivalent  to a cutoff of   9.69,  9.81,  9.17 a.u.
   NGXF,Y,Z  is equivalent  to a cutoff of  19.39, 19.62, 18.34 a.u.

 SYSTEM =  unknown system                          
 POSCAR =  ba8 si16                                

 Startparameter for this run:
   NWRITE =      2    write-flag & timer
   PREC   = normal    normal or accurate (medium, high low for compatibility)
   ISTART =      0    job   : 0-new  1-cont  2-samecut
   ICHARG =      2    charge: 1-file 2-atom 10-const
   ISPIN  =      1    spin polarized calculation?
   LNONCOLLINEAR =      F non collinear calculations
   LSORBIT =      F    spin-orbit coupling
   INIWAV =      1    electr: 0-lowe 1-rand  2-diag
   LASPH  =      T    aspherical Exc in radial PAW
   METAGGA=      F    non-selfconsistent MetaGGA calc.

 Electronic Relaxation 1
   ENCUT  =  500.0 eV  36.75 Ry    6.06 a.u.  43.77 12.36 21.15*2*pi/ulx,y,z
   ENINI  =  500.0     initial cutoff
   ENAUG  =  351.2 eV  augmentation charge cutoff
   NELM   =    100;   NELMIN=  2; NELMDL= -5     # of ELM steps 
   EDIFF  = 0.1E-05   stopping-criterion for ELM
   LREAL  =      T    real-space projection
   NLSPLINE    = F    spline interpolate recip. space projectors
   LCOMPAT=      F    compatible to vasp.4.4
   GGA_COMPAT  = T    GGA compatible to vasp.4.4-vasp.4.6
   LMAXPAW     = -100 max onsite density
   LMAXMIX     =    2 max onsite mixed and CHGCAR
   VOSKOWN=      0    Vosko Wilk Nusair interpolation
   ROPT   =   -0.00050  -0.00050
 Ionic relaxation
   EDIFFG = -.1E-02   stopping-criterion for IOM
   NSW    =      0    number of steps for IOM
   NBLOCK =      1;   KBLOCK =      1    inner block; outer block 
   IBRION =     -1    ionic relax: 0-MD 1-quasi-New 2-CG
   NFREE  =      0    steps in history (QN), initial steepest desc. (CG)
   ISIF   =      2    stress and relaxation
   IWAVPR =     10    prediction:  0-non 1-charg 2-wave 3-comb
   ISYM   =      2    0-nonsym 1-usesym 2-fastsym
   LCORR  =      T    Harris-Foulkes like correction to forces

   POTIM  = 0.3000    time-step for ionic-motion
   TEIN   =    0.0    initial temperature
   TEBEG  =    0.0;   TEEND  =   0.0 temperature during run
   SMASS  =  -3.00    Nose mass-parameter (am)
   estimated Nose-frequenzy (Omega)   =  0.10E-29 period in steps =****** mass=  -0.132E-25a.u.
   SCALEE = 1.0000    scale energy and forces
   NPACO  =    256;   APACO  = 16.0  distance and # of slots for P.C.
   PSTRESS=    0.0 pullay stress

  Mass of Ions in am
   POMASS = 137.33 28.09
  Ionic Valenz
   ZVAL   =  10.00  4.00
  Atomic Wigner-Seitz radii
   RWIGS  =  -1.00 -1.00
  virtual crystal weights 
   VCA    =   1.00  1.00
   NELECT =     144.0000    total number of electrons
   NUPDOWN=      -1.0000    fix difference up-down

 DOS related values:
   EMIN   =  10.00;   EMAX   =-10.00  energy-range for DOS
   EFERMI =   0.00
   ISMEAR =    -5;   SIGMA  =   0.01  broadening in eV -4-tet -1-fermi 0-gaus

 Electronic relaxation 2 (details)
   IALGO  =     38    algorithm
   LDIAG  =      T    sub-space diagonalisation (order eigenvalues)
   LSUBROT=      F    optimize rotation matrix (better conditioning)
   TURBO    =      0    0=normal 1=particle mesh
   IRESTART =      0    0=no restart 2=restart with 2 vectors
   NREBOOT  =      0    no. of reboots
   NMIN     =      0    reboot dimension
   EREF     =   0.00    reference energy to select bands
   IMIX   =      4    mixing-type and parameters
     AMIX     =   0.40;   BMIX     =  1.00
     AMIX_MAG =   1.60;   BMIX_MAG =  1.00
     AMIN     =   0.10
     WC   =   100.;   INIMIX=   1;  MIXPRE=   1;  MAXMIX= -45

 Intra band minimization:
   WEIMIN = 0.0000     energy-eigenvalue tresh-hold
   EBREAK =  0.28E-08  absolut break condition
   DEPER  =   0.30     relativ break condition  

   TIME   =   0.40     timestep for ELM

  volume/ion in A,a.u.               =      78.67       530.88
  Fermi-wavevector in a.u.,A,eV,Ry     =   0.694264  1.311969  6.558046  0.482003
  Thomas-Fermi vector in A             =   1.776709
 
 Write flags
   LWAVE        =      T    write WAVECAR
   LDOWNSAMPLE  =      F    k-point downsampling of WAVECAR
   LCHARG       =      T    write CHGCAR
   LVTOT        =      F    write LOCPOT, total local potential
   LVHAR        =      F    write LOCPOT, Hartree potential only
   LELF         =      F    write electronic localiz. function (ELF)
   LORBIT       =      0    0 simple, 1 ext, 2 COOP (PROOUT), +10 PAW based schemes


 Dipole corrections
   LMONO  =      F    monopole corrections only (constant potential shift)
   LDIPOL =      F    correct potential (dipole corrections)
   IDIPOL =      0    1-x, 2-y, 3-z, 4-all directions 
   EPSILON=  1.0000000 bulk dielectric constant

 Exchange correlation treatment:
   GGA     =    BO    GGA type
   LEXCH   =    42    internal setting for exchange type
   VOSKOWN=      0    Vosko Wilk Nusair interpolation
   LHFCALC =     F    Hartree Fock is set to
   LHFONE  =     F    Hartree Fock one center treatment
   AEXX    =    0.0000 exact exchange contribution

 vdW DFT:
   LUSE_VDW   =     T    switch on vdW DFT
   Zab_VDW    =-.8491    correlation parameter
   PARAM1     =0.1833
   PARAM2     =0.2200
   PARAM3     =0.0000
   -- rVV10 --
   BPARAM     = 6.3000
   CPARAM     = 0.0093

 Linear response parameters
   LEPSILON=     F    determine dielectric tensor
   LRPA    =     F    only Hartree local field effects (RPA)
   LNABLA  =     F    use nabla operator in PAW spheres
   LVEL    =     F    velocity operator in full k-point grid
   LINTERFAST=   F  fast interpolation
   KINTER  =     0    interpolate to denser k-point grid
   CSHIFT  =0.1000    complex shift for real part using Kramers Kronig
   OMEGAMAX=  -1.0    maximum frequency
   DEG_THRESHOLD= 0.2000000E-02 threshold for treating states as degnerate
   RTIME   =   -0.100 relaxation time in fs
  (WPLASMAI=    0.000 imaginary part of plasma frequency in eV, 0.658/RTIME)
   DFIELD  = 0.0000000 0.0000000 0.0000000 field for delta impulse in time
 
 Orbital magnetization related:
   ORBITALMAG=     F  switch on orbital magnetization
   LCHIMAG   =     F  perturbation theory with respect to B field
   DQ        =  0.001000  dq finite difference perturbation B field
   LLRAUG    =     F  two centre corrections for induced B field



--------------------------------------------------------------------------------------------------------


 Static calculation
 charge density and potential will be updated during run
 non-spin polarized calculation
 Variant of blocked Davidson
 Davidson routine will perform the subspace rotation
 perform sub-space diagonalisation
    after iterative eigenvector-optimisation
 modified Broyden-mixing scheme, WC =      100.0
 initial mixing is a Kerker type mixing with AMIX =  0.4000 and BMIX =      1.0000
 Hartree-type preconditioning will be used
 using additional bands           16
 real space projection scheme for non local part
 use partial core corrections
 calculate Harris-corrections to forces 
   (improved forces if not selfconsistent)
 use gradient corrections 
 use of overlap-Matrix (Vanderbilt PP)
 Fermi weights with tetrahedron method with Bloechl corrections


--------------------------------------------------------------------------------------------------------


  energy-cutoff  :      500.00
  volume of cell :     1888.05
      direct lattice vectors                 reciprocal lattice vectors
    24.009468079  0.000000000  0.000000000     0.041650236  0.000000000  0.000000000
     0.000000000  6.777849674  0.000000000     0.000000000  0.147539419  0.000000000
     0.000000000  0.000000000 11.602143288     0.000000000  0.000000000  0.086190971

  length of vectors
    24.009468079  6.777849674 11.602143288     0.041650236  0.147539419  0.086190971


 
 k-points in units of 2pi/SCALE and weight: k-density: 8.0                          
   0.00000000  0.00000000  0.00000000       0.025
   0.00000000  0.01844243  0.00000000       0.050
   0.00000000  0.03688485  0.00000000       0.050
   0.00000000  0.05532728  0.00000000       0.050
   0.00000000  0.07376971  0.00000000       0.025
   0.00000000  0.00000000  0.01723819       0.050
   0.00000000  0.01844243  0.01723819       0.100
   0.00000000  0.03688485  0.01723819       0.100
   0.00000000  0.05532728  0.01723819       0.100
   0.00000000  0.07376971  0.01723819       0.050
   0.00000000  0.00000000  0.03447639       0.050
   0.00000000  0.01844243  0.03447639       0.100
   0.00000000  0.03688485  0.03447639       0.100
   0.00000000  0.05532728  0.03447639       0.100
   0.00000000  0.07376971  0.03447639       0.050
 
 k-points in reciprocal lattice and weights: k-density: 8.0                          
   0.00000000  0.00000000  0.00000000       0.025
   0.00000000  0.12500000  0.00000000       0.050
   0.00000000  0.25000000  0.00000000       0.050
   0.00000000  0.37500000  0.00000000       0.050
   0.00000000  0.50000000  0.00000000       0.025
   0.00000000  0.00000000  0.20000000       0.050
   0.00000000  0.12500000  0.20000000       0.100
   0.00000000  0.25000000  0.20000000       0.100
   0.00000000  0.37500000  0.20000000       0.100
   0.00000000  0.50000000  0.20000000       0.050
   0.00000000  0.00000000  0.40000000       0.050
   0.00000000  0.12500000  0.40000000       0.100
   0.00000000  0.25000000  0.40000000       0.100
   0.00000000  0.37500000  0.40000000       0.100
   0.00000000  0.50000000  0.40000000       0.050
 
 position of ions in fractional coordinates (direct lattice) 
   0.00569361  0.25000000  0.70507337
   0.37996541  0.75000002  0.29492663
   0.18192962  0.75000002  0.18684549
   0.20372941  0.25000000  0.81315449
   0.05978014  0.75000002  0.91699224
   0.32587889  0.25000000  0.08300774
   0.12784309  0.25000000  0.39886263
   0.25781593  0.75000002  0.60113741
   0.07289913  0.07178715  0.14497271
   0.31275989  0.92821284  0.85502727
   0.11472410  0.92948078  0.65884671
   0.27093493  0.07051921  0.34115329
   0.31275989  0.57178716  0.85502727
   0.07289913  0.42821284  0.14497271
   0.27093493  0.42948078  0.34115329
   0.11472410  0.57051922  0.65884671
   0.03110981  0.75000002  0.59897584
   0.35454921  0.25000000  0.40102416
   0.15651343  0.25000000  0.08357452
   0.22914561  0.75000002  0.91642546
   0.07418398  0.25000000  0.96155624
   0.31147505  0.75000002  0.03844378
   0.11343925  0.75000002  0.47577757
   0.27221977  0.25000000  0.52422235
 
 position of ions in cartesian coordinates  (Angst):
   0.13670066  1.69446242  8.18036226
   9.12276745  5.08338737  3.42178103
   4.36803341  5.08338737  2.16780813
   4.89143467  1.69446242  9.43433492
   1.43528938  5.08338737 10.63907531
   7.82417870  1.69446242  0.96306774
   3.06944466  1.69446242  4.62766139
   6.19002342  5.08338737  6.97448238
   1.75026941  0.48656251  1.68199418
   7.50919867  6.29128710  9.92014887
   2.75446463  6.29988102  7.64403398
   6.50500345  0.47796859  3.95810931
   7.50919867  3.87548741  9.92014887
   1.75026941  2.90236226  1.68199418
   6.50500345  2.91095618  3.95810931
   2.75446463  3.86689349  7.64403398
   0.74692994  5.08338737  6.94940353
   8.51253796  1.69446242  4.65273976
   3.75780416  1.69446242  0.96964359
   5.50166416  5.08338737 10.63249946
   1.78111780  1.69446242 11.15611322
   7.47835016  5.08338737  0.44603025
   2.72361612  5.08338737  5.52003953
   6.53585196  1.69446242  6.08210280
 


--------------------------------------------------------------------------------------------------------


 k-point  1 :   0.0000 0.0000 0.0000  plane waves:   47989
 k-point  2 :   0.0000 0.1250 0.0000  plane waves:   47929
 k-point  3 :   0.0000 0.2500 0.0000  plane waves:   47901
 k-point  4 :   0.0000 0.3750 0.0000  plane waves:   47910
 k-point  5 :   0.0000 0.5000 0.0000  plane waves:   47868
 k-point  6 :   0.0000 0.0000 0.2000  plane waves:   48006
 k-point  7 :   0.0000 0.1250 0.2000  plane waves:   47967
 k-point  8 :   0.0000 0.2500 0.2000  plane waves:   47907
 k-point  9 :   0.0000 0.3750 0.2000  plane waves:   47884
 k-point 10 :   0.0000 0.5000 0.2000  plane waves:   47884
 k-point 11 :   0.0000 0.0000 0.4000  plane waves:   47922
 k-point 12 :   0.0000 0.1250 0.4000  plane waves:   47954
 k-point 13 :   0.0000 0.2500 0.4000  plane waves:   47967
 k-point 14 :   0.0000 0.3750 0.4000  plane waves:   47928
 k-point 15 :   0.0000 0.5000 0.4000  plane waves:   47890

 maximum and minimum number of plane-waves per node :     12077    11868

 maximum number of plane-waves:     48006
 maximum index in each direction: 
   IXMAX=   43   IYMAX=   12   IZMAX=   21
   IXMIN=  -43   IYMIN=  -12   IZMIN=  -21


 real space projection operators:
  total allocation   :       4528.88 KBytes
  max/ min on nodes  :       1134.55       1125.95


 parallel 3D FFT for wavefunctions:
    minimum data exchange during FFTs selected (reduces bandwidth)
 parallel 3D FFT for charge:
    minimum data exchange during FFTs selected (reduces bandwidth)


 total amount of memory used by VASP MPI-rank0    79354. kBytes
=======================================================================

   base      :      30000. kBytes
   nonlr-proj:       2648. kBytes
   fftplans  :       5898. kBytes
   grid      :       8824. kBytes
   one-center:         93. kBytes
   wavefun   :      31891. kBytes
 
     INWAV:  cpu time    0.0000: real time    0.0000
 Broyden mixing: mesh for mixing (old mesh)
   NGX = 87   NGY = 25   NGZ = 43
  (NGX  =280   NGY  = 80   NGZ  =128)
  gives a total of  93525 points

 initial charge density was supplied:
 charge density of overlapping atoms calculated
 number of electron     144.0000000 magnetization 
 keeping initial charge density in first step


--------------------------------------------------------------------------------------------------------


 Maximum index for non-local projection operator          752
 Maximum index for augmentation-charges          601 (set IRDMAX)


--------------------------------------------------------------------------------------------------------


 First call to EWALD:  gamma=   0.143
 Maximum number of real-space cells 2x 5x 3
 Maximum number of reciprocal cells 5x 2x 3

    FEWALD:  cpu time    0.0018: real time    0.0018


--------------------------------------- Iteration      1(   1)  ---------------------------------------


    POTLOK:  cpu time13818.5370: real time13850.9909
    SETDIJ:  cpu time    0.0035: real time    0.0138
     EDDAV:  cpu time    2.8932: real time    3.2065
 BZINTS: Fermi energy:  6.797465;144.000000 electrons
         Band energy:-481.329496;  BLOECHL correction: -0.030208
       DOS:  cpu time    0.0120: real time    0.0239
    --------------------------------------------
      LOOP:  cpu time13821.4457: real time13854.2350

 eigenvalue-minimisations  :  2768
 total energy-change (2. order) : 0.1195907E+04  (-0.4771838E+04)
 number of electron     144.0000000 magnetization 
 augmentation part      144.0000000 magnetization 

 Free energy of the ion-electron system (eV)
  ---------------------------------------------------
  alpha Z        PSCENC =       170.45750602
  Ewald energy   TEWEN  =     11805.28807847
  -Hartree energ DENC   =    -17922.62835253
  -exchange      EXHF   =         0.00000000
  -V(xc)+E(xc)   XCENC  =        29.32940692
  PAW double counting   =      3700.71972520    -3383.50420208
  entropy T*S    EENTRO =         0.00000000
  eigenvalues    EBANDS =      -481.32949633
  atomic energy  EATOM  =      7277.57480299
  Solvation  Ediel_sol  =         0.00000000
  ---------------------------------------------------
  free energy    TOTEN  =      1195.90746866 eV

  energy without entropy =     1195.90746866  energy(sigma->0) =     1195.90746866


--------------------------------------------------------------------------------------------------------




--------------------------------------- Iteration      1(   2)  ---------------------------------------


     EDDAV:  cpu time    3.4686: real time    3.5608
 BZINTS: Fermi energy: -2.021745;144.000000 electrons
         Band energy:***********;  BLOECHL correction:  0.000000
       DOS:  cpu time    0.0024: real time    0.0024
    --------------------------------------------
      LOOP:  cpu time    3.4710: real time    3.5631

 eigenvalue-minimisations  :  3848
 total energy-change (2. order) :-0.1122808E+04  (-0.1094760E+04)
 number of electron     144.0000000 magnetization 
 augmentation part      144.0000000 magnetization 

 Free energy of the ion-electron system (eV)
  ---------------------------------------------------
  alpha Z        PSCENC =       170.45750602
  Ewald energy   TEWEN  =     11805.28807847
  -Hartree energ DENC   =    -17922.62835253
  -exchange      EXHF   =         0.00000000
  -V(xc)+E(xc)   XCENC  =        29.32940692
  PAW double counting   =      3700.71972520    -3383.50420208
  entropy T*S    EENTRO =         0.00000000
  eigenvalues    EBANDS =     -1604.13725812
  atomic energy  EATOM  =      7277.57480299
  Solvation  Ediel_sol  =         0.00000000
  ---------------------------------------------------
  free energy    TOTEN  =        73.09970688 eV

  energy without entropy =       73.09970688  energy(sigma->0) =       73.09970688


--------------------------------------------------------------------------------------------------------




--------------------------------------- Iteration      1(   3)  ---------------------------------------


     EDDAV:  cpu time    3.3628: real time    3.4127
 BZINTS: Fermi energy: -3.403505;144.000000 electrons
         Band energy:***********;  BLOECHL correction:  0.000000
       DOS:  cpu time    0.0024: real time    0.0024
    --------------------------------------------
      LOOP:  cpu time    3.3652: real time    3.4152

 eigenvalue-minimisations  :  3224
 total energy-change (2. order) :-0.1695666E+03  (-0.1688918E+03)
 number of electron     144.0000000 magnetization 
 augmentation part      144.0000000 magnetization 

 Free energy of the ion-electron system (eV)
  ---------------------------------------------------
  alpha Z        PSCENC =       170.45750602
  Ewald energy   TEWEN  =     11805.28807847
  -Hartree energ DENC   =    -17922.62835253
  -exchange      EXHF   =         0.00000000
  -V(xc)+E(xc)   XCENC  =        29.32940692
  PAW double counting   =      3700.71972520    -3383.50420208
  entropy T*S    EENTRO =         0.00000000
  eigenvalues    EBANDS =     -1773.70386873
  atomic energy  EATOM  =      7277.57480299
  Solvation  Ediel_sol  =         0.00000000
  ---------------------------------------------------
  free energy    TOTEN  =       -96.46690374 eV

  energy without entropy =      -96.46690374  energy(sigma->0) =      -96.46690374


--------------------------------------------------------------------------------------------------------




--------------------------------------- Iteration      1(   4)  ---------------------------------------


     EDDAV:  cpu time    3.5104: real time    3.5275
 BZINTS: Fermi energy: -3.446532;144.000000 electrons
         Band energy:***********;  BLOECHL correction:  0.000000
       DOS:  cpu time    0.0024: real time    0.0024
    --------------------------------------------
      LOOP:  cpu time    3.5128: real time    3.5299

 eigenvalue-minimisations  :  3744
 total energy-change (2. order) :-0.5974733E+01  (-0.5958052E+01)
 number of electron     144.0000000 magnetization 
 augmentation part      144.0000000 magnetization 

 Free energy of the ion-electron system (eV)
  ---------------------------------------------------
  alpha Z        PSCENC =       170.45750602
  Ewald energy   TEWEN  =     11805.28807847
  -Hartree energ DENC   =    -17922.62835253
  -exchange      EXHF   =         0.00000000
  -V(xc)+E(xc)   XCENC  =        29.32940692
  PAW double counting   =      3700.71972520    -3383.50420208
  entropy T*S    EENTRO =         0.00000000
  eigenvalues    EBANDS =     -1779.67860154
  atomic energy  EATOM  =      7277.57480299
  Solvation  Ediel_sol  =         0.00000000
  ---------------------------------------------------
  free energy    TOTEN  =      -102.44163654 eV

  energy without entropy =     -102.44163654  energy(sigma->0) =     -102.44163654


--------------------------------------------------------------------------------------------------------




--------------------------------------- Iteration      1(   5)  ---------------------------------------


     EDDAV:  cpu time    4.0660: real time    4.0861
 BZINTS: Fermi energy: -3.479015;144.000000 electrons
         Band energy:***********;  BLOECHL correction:  0.000000
       DOS:  cpu time    0.0019: real time    0.0019
    CHARGE:  cpu time    0.1968: real time    0.2064
    MIXING:  cpu time    0.0061: real time    0.0184
    --------------------------------------------
      LOOP:  cpu time    4.2708: real time    4.3129

 eigenvalue-minimisations  :  4168
 total energy-change (2. order) :-0.2724865E+00  (-0.2723943E+00)
 number of electron     143.9999990 magnetization 
 augmentation part      -17.7701243 magnetization 

 Broyden mixing:
  rms(total) = 0.92377E+00    rms(broyden)= 0.92376E+00
  rms(prec ) = 0.12020E+01
  weight for this iteration     100.00

 Free energy of the ion-electron system (eV)
  ---------------------------------------------------
  alpha Z        PSCENC =       170.45750602
  Ewald energy   TEWEN  =     11805.28807847
  -Hartree energ DENC   =    -17922.62835253
  -exchange      EXHF   =         0.00000000
  -V(xc)+E(xc)   XCENC  =        29.32940692
  PAW double counting   =      3700.71972520    -3383.50420208
  entropy T*S    EENTRO =         0.00000000
  eigenvalues    EBANDS =     -1779.95108804
  atomic energy  EATOM  =      7277.57480299
  Solvation  Ediel_sol  =         0.00000000
  ---------------------------------------------------
  free energy    TOTEN  =      -102.71412304 eV

  energy without entropy =     -102.71412304  energy(sigma->0) =     -102.71412304


--------------------------------------------------------------------------------------------------------




--------------------------------------- Iteration      1(   6)  ---------------------------------------


    POTLOK:  cpu time    2.5840: real time    2.6013
    SETDIJ:  cpu time    0.1861: real time    0.1866
     EDDAV:  cpu time    3.1849: real time    3.1923
 BZINTS: Fermi energy: -2.257595;144.000000 electrons
         Band energy:***********;  BLOECHL correction:  0.000000
       DOS:  cpu time    0.0025: real time    0.0025
    CHARGE:  cpu time    0.1767: real time    0.1771
    MIXING:  cpu time    0.0066: real time    0.0066
    --------------------------------------------
      LOOP:  cpu time    6.1407: real time    6.1664

 eigenvalue-minimisations  :  3016
 total energy-change (2. order) : 0.8338092E+01  (-0.2099987E+01)
 number of electron     143.9999989 magnetization 
 augmentation part      -17.6332915 magnetization 

 Broyden mixing:
  rms(total) = 0.47163E+00    rms(broyden)= 0.47163E+00
  rms(prec ) = 0.59040E+00
  weight for this iteration     100.00

 eigenvalues of (default mixing * dielectric matrix)
  average eigenvalue GAMMA=   1.5410
  1.5410

 Free energy of the ion-electron system (eV)
  ---------------------------------------------------
  alpha Z        PSCENC =       170.45750602
  Ewald energy   TEWEN  =     11805.28807847
  -Hartree energ DENC   =    -18017.89803002
  -exchange      EXHF   =         0.00000000
  -V(xc)+E(xc)   XCENC  =        32.17218094
  PAW double counting   =      3736.65032383    -3426.60348261
  entropy T*S    EENTRO =         0.00000000
  eigenvalues    EBANDS =     -1672.01741087
  atomic energy  EATOM  =      7277.57480299
  Solvation  Ediel_sol  =         0.00000000
  ---------------------------------------------------
  free energy    TOTEN  =       -94.37603125 eV

  energy without entropy =      -94.37603125  energy(sigma->0) =      -94.37603125


--------------------------------------------------------------------------------------------------------




--------------------------------------- Iteration      1(   7)  ---------------------------------------


    POTLOK:  cpu time    2.3733: real time    2.3900
    SETDIJ:  cpu time    0.3638: real time    0.3647
     EDDAV:  cpu time    3.3160: real time    3.3243
 BZINTS: Fermi energy: -1.461094;144.000000 electrons
         Band energy:***********;  BLOECHL correction:  0.000000
       DOS:  cpu time    0.0022: real time    0.0022
    CHARGE:  cpu time    0.1817: real time    0.1821
    MIXING:  cpu time    0.0114: real time    0.0119
    --------------------------------------------
      LOOP:  cpu time    6.2484: real time    6.2752

 eigenvalue-minimisations  :  3480
 total energy-change (2. order) : 0.1247744E+01  (-0.1020697E+01)
 number of electron     143.9999989 magnetization 
 augmentation part      -17.6892846 magnetization 

 Broyden mixing:
  rms(total) = 0.25087E+00    rms(broyden)= 0.25087E+00
  rms(prec ) = 0.29918E+00
  weight for this iteration     100.00

 eigenvalues of (default mixing * dielectric matrix)
  average eigenvalue GAMMA=   1.8577
  1.8577  1.8577

 Free energy of the ion-electron system (eV)
  ---------------------------------------------------
  alpha Z        PSCENC =       170.45750602
  Ewald energy   TEWEN  =     11805.28807847
  -Hartree energ DENC   =    -18096.27004613
  -exchange      EXHF   =         0.00000000
  -V(xc)+E(xc)   XCENC  =        34.53183680
  PAW double counting   =      3783.28116587    -3479.03571247
  entropy T*S    EENTRO =         0.00000000
  eigenvalues    EBANDS =     -1588.95591849
  atomic energy  EATOM  =      7277.57480299
  Solvation  Ediel_sol  =         0.00000000
  ---------------------------------------------------
  free energy    TOTEN  =       -93.12828693 eV

  energy without entropy =      -93.12828693  energy(sigma->0) =      -93.12828693


--------------------------------------------------------------------------------------------------------




--------------------------------------- Iteration      1(   8)  ---------------------------------------


    POTLOK:  cpu time    2.5272: real time    2.5442
    SETDIJ:  cpu time    0.1820: real time    0.1824
     EDDAV:  cpu time    2.9673: real time    2.9747
 BZINTS: Fermi energy: -1.333258;144.000000 electrons
         Band energy:***********;  BLOECHL correction:  0.000000
       DOS:  cpu time    0.0030: real time    0.0030
    CHARGE:  cpu time    0.1701: real time    0.1705
    MIXING:  cpu time    0.0053: real time    0.0058
    --------------------------------------------
      LOOP:  cpu time    5.8548: real time    5.8805

 eigenvalue-minimisations  :  3112
 total energy-change (2. order) : 0.2362706E+00  (-0.3730822E+00)
 number of electron     143.9999989 magnetization 
 augmentation part      -17.8062970 magnetization 

 Broyden mixing:
  rms(total) = 0.12086E+00    rms(broyden)= 0.12086E+00
  rms(prec ) = 0.19352E+00
  weight for this iteration     100.00

 eigenvalues of (default mixing * dielectric matrix)
  average eigenvalue GAMMA=   1.6895
  2.6641  1.2022  1.2022

 Free energy of the ion-electron system (eV)
  ---------------------------------------------------
  alpha Z        PSCENC =       170.45750602
  Ewald energy   TEWEN  =     11805.28807847
  -Hartree energ DENC   =    -18128.78439060
  -exchange      EXHF   =         0.00000000
  -V(xc)+E(xc)   XCENC  =        35.53423252
  PAW double counting   =      3833.35486316    -3530.87610106
  entropy T*S    EENTRO =         0.00000000
  eigenvalues    EBANDS =     -1555.44100785
  atomic energy  EATOM  =      7277.57480299
  Solvation  Ediel_sol  =         0.00000000
  ---------------------------------------------------
  free energy    TOTEN  =       -92.89201635 eV

  energy without entropy =      -92.89201635  energy(sigma->0) =      -92.89201635


--------------------------------------------------------------------------------------------------------




--------------------------------------- Iteration      1(   9)  ---------------------------------------


    POTLOK:  cpu time    2.6013: real time    2.6183
    SETDIJ:  cpu time    0.0021: real time    0.0021
     EDDAV:  cpu time    3.2905: real time    3.2983
 BZINTS: Fermi energy: -0.889671;144.000000 electrons
         Band energy:***********;  BLOECHL correction:  0.000000
       DOS:  cpu time    0.0029: real time    0.0029
    CHARGE:  cpu time    0.1966: real time    0.1970
    MIXING:  cpu time    0.0073: real time    0.0074
    --------------------------------------------
      LOOP:  cpu time    6.1007: real time    6.1260

 eigenvalue-minimisations  :  3104
 total energy-change (2. order) : 0.2901889E+00  (-0.1182378E+00)
 number of electron     143.9999989 magnetization 
 augmentation part      -17.7699055 magnetization 

 Broyden mixing:
  rms(total) = 0.55436E-01    rms(broyden)= 0.55436E-01
  rms(prec ) = 0.78043E-01
  weight for this iteration     100.00

 eigenvalues of (default mixing * dielectric matrix)
  average eigenvalue GAMMA=   1.4084
  2.6018  1.2129  1.2129  0.6061

 Free energy of the ion-electron system (eV)
  ---------------------------------------------------
  alpha Z        PSCENC =       170.45750602
  Ewald energy   TEWEN  =     11805.28807847
  -Hartree energ DENC   =    -18169.57547132
  -exchange      EXHF   =         0.00000000
  -V(xc)+E(xc)   XCENC  =        36.50611714
  PAW double counting   =      3845.33329129    -3544.24676743
  entropy T*S    EENTRO =         0.00000000
  eigenvalues    EBANDS =     -1513.93938457
  atomic energy  EATOM  =      7277.57480299
  Solvation  Ediel_sol  =         0.00000000
  ---------------------------------------------------
  free energy    TOTEN  =       -92.60182740 eV

  energy without entropy =      -92.60182740  energy(sigma->0) =      -92.60182740


--------------------------------------------------------------------------------------------------------




--------------------------------------- Iteration      1(  10)  ---------------------------------------


    POTLOK:  cpu time    2.5524: real time    2.5692
    SETDIJ:  cpu time    0.0017: real time    0.0017
     EDDAV:  cpu time    3.2802: real time    3.2879
 BZINTS: Fermi energy: -0.847791;144.000000 electrons
         Band energy:***********;  BLOECHL correction:  0.000000
       DOS:  cpu time    0.0025: real time    0.0025
    CHARGE:  cpu time    0.1702: real time    0.1706
    MIXING:  cpu time    0.0055: real time    0.0055
    --------------------------------------------
      LOOP:  cpu time    6.0124: real time    6.0373

 eigenvalue-minimisations  :  3600
 total energy-change (2. order) : 0.1129838E-01  (-0.2549724E-01)
 number of electron     143.9999989 magnetization 
 augmentation part      -17.7828442 magnetization 

 Broyden mixing:
  rms(total) = 0.41385E-01    rms(broyden)= 0.41385E-01
  rms(prec ) = 0.61257E-01
  weight for this iteration     100.00

 eigenvalues of (default mixing * dielectric matrix)
  average eigenvalue GAMMA=   1.5560
  2.5823  2.1507  1.1804  0.9332  0.9332

 Free energy of the ion-electron system (eV)
  ---------------------------------------------------
  alpha Z        PSCENC =       170.45750602
  Ewald energy   TEWEN  =     11805.28807847
  -Hartree energ DENC   =    -18177.94701460
  -exchange      EXHF   =         0.00000000
  -V(xc)+E(xc)   XCENC  =        36.51954877
  PAW double counting   =      3840.20121563    -3538.81534574
  entropy T*S    EENTRO =         0.00000000
  eigenvalues    EBANDS =     -1505.86932055
  atomic energy  EATOM  =      7277.57480299
  Solvation  Ediel_sol  =         0.00000000
  ---------------------------------------------------
  free energy    TOTEN  =       -92.59052901 eV

  energy without entropy =      -92.59052901  energy(sigma->0) =      -92.59052901


--------------------------------------------------------------------------------------------------------




--------------------------------------- Iteration      1(  11)  ---------------------------------------


    POTLOK:  cpu time    2.5996: real time    2.6180
    SETDIJ:  cpu time    0.0017: real time    0.0017
     EDDAV:  cpu time    3.1905: real time    3.1981
 BZINTS: Fermi energy: -0.830116;144.000000 electrons
         Band energy:***********;  BLOECHL correction:  0.000000
       DOS:  cpu time    0.0021: real time    0.0021
    CHARGE:  cpu time    0.1811: real time    0.1815
    MIXING:  cpu time    0.0057: real time    0.0057
    --------------------------------------------
      LOOP:  cpu time    5.9807: real time    6.0071

 eigenvalue-minimisations  :  3248
 total energy-change (2. order) : 0.3068070E-01  (-0.6444189E-02)
 number of electron     143.9999989 magnetization 
 augmentation part      -17.7894487 magnetization 

 Broyden mixing:
  rms(total) = 0.16233E-01    rms(broyden)= 0.16233E-01
  rms(prec ) = 0.31979E-01
  weight for this iteration     100.00

 eigenvalues of (default mixing * dielectric matrix)
  average eigenvalue GAMMA=   1.5985
  2.7820  2.7820  1.1827  0.9901  0.9270  0.9270

 Free energy of the ion-electron system (eV)
  ---------------------------------------------------
  alpha Z        PSCENC =       170.45750602
  Ewald energy   TEWEN  =     11805.28807847
  -Hartree energ DENC   =    -18193.32782447
  -exchange      EXHF   =         0.00000000
  -V(xc)+E(xc)   XCENC  =        36.67192109
  PAW double counting   =      3841.03592153    -3539.37740392
  entropy T*S    EENTRO =         0.00000000
  eigenvalues    EBANDS =     -1490.88285003
  atomic energy  EATOM  =      7277.57480299
  Solvation  Ediel_sol  =         0.00000000
  ---------------------------------------------------
  free energy    TOTEN  =       -92.55984831 eV

  energy without entropy =      -92.55984831  energy(sigma->0) =      -92.55984831


--------------------------------------------------------------------------------------------------------




--------------------------------------- Iteration      1(  12)  ---------------------------------------


    POTLOK:  cpu time    2.5933: real time    2.6099
    SETDIJ:  cpu time    0.0022: real time    0.0022
     EDDAV:  cpu time    3.2759: real time    3.2836
 BZINTS: Fermi energy: -0.750344;144.000000 electrons
         Band energy:***********;  BLOECHL correction:  0.000000
       DOS:  cpu time    0.0023: real time    0.0023
    CHARGE:  cpu time    0.1928: real time    0.1933
    MIXING:  cpu time    0.0072: real time    0.0072
    --------------------------------------------
      LOOP:  cpu time    6.0737: real time    6.0985

 eigenvalue-minimisations  :  3328
 total energy-change (2. order) :-0.1720865E-01  (-0.1530820E-02)
 number of electron     143.9999989 magnetization 
 augmentation part      -17.7847938 magnetization 

 Broyden mixing:
  rms(total) = 0.11878E-01    rms(broyden)= 0.11878E-01
  rms(prec ) = 0.20657E-01
  weight for this iteration     100.00

 eigenvalues of (default mixing * dielectric matrix)
  average eigenvalue GAMMA=   1.7127
  3.4336  2.5975  1.9547  1.1244  1.1244  0.8770  0.8770

 Free energy of the ion-electron system (eV)
  ---------------------------------------------------
  alpha Z        PSCENC =       170.45750602
  Ewald energy   TEWEN  =     11805.28807847
  -Hartree energ DENC   =    -18205.59783728
  -exchange      EXHF   =         0.00000000
  -V(xc)+E(xc)   XCENC  =        36.70058017
  PAW double counting   =      3838.29768536    -3536.43633552
  entropy T*S    EENTRO =         0.00000000
  eigenvalues    EBANDS =     -1478.86153718
  atomic energy  EATOM  =      7277.57480299
  Solvation  Ediel_sol  =         0.00000000
  ---------------------------------------------------
  free energy    TOTEN  =       -92.57705696 eV

  energy without entropy =      -92.57705696  energy(sigma->0) =      -92.57705696


--------------------------------------------------------------------------------------------------------




--------------------------------------- Iteration      1(  13)  ---------------------------------------


    POTLOK:  cpu time    2.5787: real time    2.5955
    SETDIJ:  cpu time    0.0595: real time    0.0596
     EDDAV:  cpu time    3.3767: real time    3.3847
 BZINTS: Fermi energy: -0.604042;144.000000 electrons
         Band energy:***********;  BLOECHL correction:  0.000000
       DOS:  cpu time    0.0026: real time    0.0026
    CHARGE:  cpu time    0.1770: real time    0.1775
    MIXING:  cpu time    0.0073: real time    0.0074
    --------------------------------------------
      LOOP:  cpu time    6.2018: real time    6.2273

 eigenvalue-minimisations  :  3272
 total energy-change (2. order) : 0.8698809E-02  (-0.8177014E-03)
 number of electron     143.9999989 magnetization 
 augmentation part      -17.7851548 magnetization 

 Broyden mixing:
  rms(total) = 0.61316E-02    rms(broyden)= 0.61316E-02
  rms(prec ) = 0.10594E-01
  weight for this iteration     100.00

 eigenvalues of (default mixing * dielectric matrix)
  average eigenvalue GAMMA=   1.7820
  4.0277  2.7873  2.3925  1.2152  1.2152  0.8871  0.8656  0.8656

 Free energy of the ion-electron system (eV)
  ---------------------------------------------------
  alpha Z        PSCENC =       170.45750602
  Ewald energy   TEWEN  =     11805.28807847
  -Hartree energ DENC   =    -18215.20429031
  -exchange      EXHF   =         0.00000000
  -V(xc)+E(xc)   XCENC  =        36.76761085
  PAW double counting   =      3836.96339638    -3535.20488692
  entropy T*S    EENTRO =         0.00000000
  eigenvalues    EBANDS =     -1469.21057564
  atomic energy  EATOM  =      7277.57480299
  Solvation  Ediel_sol  =         0.00000000
  ---------------------------------------------------
  free energy    TOTEN  =       -92.56835815 eV

  energy without entropy =      -92.56835815  energy(sigma->0) =      -92.56835815


--------------------------------------------------------------------------------------------------------




--------------------------------------- Iteration      1(  14)  ---------------------------------------


    POTLOK:  cpu time    2.4118: real time    2.4285
    SETDIJ:  cpu time    0.2250: real time    0.2255
     EDDAV:  cpu time    2.5492: real time    2.5552
 BZINTS: Fermi energy: -0.582649;144.000000 electrons
         Band energy:***********;  BLOECHL correction:  0.000000
       DOS:  cpu time    0.0022: real time    0.0022
    CHARGE:  cpu time    0.1519: real time    0.1523
    MIXING:  cpu time    0.0057: real time    0.0057
    --------------------------------------------
      LOOP:  cpu time    5.3458: real time    5.3694

 eigenvalue-minimisations  :  3104
 total energy-change (2. order) : 0.6258513E-02  (-0.2780470E-03)
 number of electron     143.9999989 magnetization 
 augmentation part      -17.7860939 magnetization 

 Broyden mixing:
  rms(total) = 0.52235E-02    rms(broyden)= 0.52235E-02
  rms(prec ) = 0.83838E-02
  weight for this iteration     100.00

 eigenvalues of (default mixing * dielectric matrix)
  average eigenvalue GAMMA=   1.8256
  4.4832  3.0667  2.0023  1.5985  0.8849  0.8849  1.3894  1.0601  1.0601

 Free energy of the ion-electron system (eV)
  ---------------------------------------------------
  alpha Z        PSCENC =       170.45750602
  Ewald energy   TEWEN  =     11805.28807847
  -Hartree energ DENC   =    -18218.83734532
  -exchange      EXHF   =         0.00000000
  -V(xc)+E(xc)   XCENC  =        36.78545713
  PAW double counting   =      3836.28900892    -3534.54616118
  entropy T*S    EENTRO =         0.00000000
  eigenvalues    EBANDS =     -1465.57344668
  atomic energy  EATOM  =      7277.57480299
  Solvation  Ediel_sol  =         0.00000000
  ---------------------------------------------------
  free energy    TOTEN  =       -92.56209964 eV

  energy without entropy =      -92.56209964  energy(sigma->0) =      -92.56209964


--------------------------------------------------------------------------------------------------------




--------------------------------------- Iteration      1(  15)  ---------------------------------------


    POTLOK:  cpu time    2.6838: real time    2.7017
    SETDIJ:  cpu time    0.0017: real time    0.0017
     EDDAV:  cpu time    2.9363: real time    2.9432
 BZINTS: Fermi energy: -0.575607;144.000000 electrons
         Band energy:***********;  BLOECHL correction:  0.000000
       DOS:  cpu time    0.0026: real time    0.0027
    CHARGE:  cpu time    0.1742: real time    0.1746
    MIXING:  cpu time    0.0061: real time    0.0061
    --------------------------------------------
      LOOP:  cpu time    5.8047: real time    5.8299

 eigenvalue-minimisations  :  2896
 total energy-change (2. order) :-0.1184625E-02  (-0.2202266E-03)
 number of electron     143.9999989 magnetization 
 augmentation part      -17.7875077 magnetization 

 Broyden mixing:
  rms(total) = 0.18975E-02    rms(broyden)= 0.18975E-02
  rms(prec ) = 0.36992E-02
  weight for this iteration     100.00

 eigenvalues of (default mixing * dielectric matrix)
  average eigenvalue GAMMA=   1.9283
  5.3610  3.3204  2.5759  1.6197  0.8833  0.8833  1.2778  1.2778  1.0299  1.0542

 Free energy of the ion-electron system (eV)
  ---------------------------------------------------
  alpha Z        PSCENC =       170.45750602
  Ewald energy   TEWEN  =     11805.28807847
  -Hartree energ DENC   =    -18220.24597113
  -exchange      EXHF   =         0.00000000
  -V(xc)+E(xc)   XCENC  =        36.77622969
  PAW double counting   =      3836.67080271    -3534.90045017
  entropy T*S    EENTRO =         0.00000000
  eigenvalues    EBANDS =     -1464.18428285
  atomic energy  EATOM  =      7277.57480299
  Solvation  Ediel_sol  =         0.00000000
  ---------------------------------------------------
  free energy    TOTEN  =       -92.56328426 eV

  energy without entropy =      -92.56328426  energy(sigma->0) =      -92.56328426


--------------------------------------------------------------------------------------------------------




--------------------------------------- Iteration      1(  16)  ---------------------------------------


    POTLOK:  cpu time    2.6288: real time    2.6460
    SETDIJ:  cpu time    0.1884: real time    0.1889
     EDDAV:  cpu time    3.2048: real time    3.2124
 BZINTS: Fermi energy: -0.567444;144.000000 electrons
         Band energy:***********;  BLOECHL correction:  0.000000
       DOS:  cpu time    0.0024: real time    0.0024
    CHARGE:  cpu time    0.1900: real time    0.1905
    MIXING:  cpu time    0.0062: real time    0.0062
    --------------------------------------------
      LOOP:  cpu time    6.2206: real time    6.2463

 eigenvalue-minimisations  :  3088
 total energy-change (2. order) : 0.6575504E-03  (-0.1416059E-03)
 number of electron     143.9999989 magnetization 
 augmentation part      -17.7873066 magnetization 

 Broyden mixing:
  rms(total) = 0.14525E-02    rms(broyden)= 0.14525E-02
  rms(prec ) = 0.25735E-02
  weight for this iteration     100.00

 eigenvalues of (default mixing * dielectric matrix)
  average eigenvalue GAMMA=   1.9940
  5.6869  3.7193  2.5494  1.8249  1.8249  0.8853  0.8853  1.2540  1.2540  1.0251
  1.0251

 Free energy of the ion-electron system (eV)
  ---------------------------------------------------
  alpha Z        PSCENC =       170.45750602
  Ewald energy   TEWEN  =     11805.28807847
  -Hartree energ DENC   =    -18221.79936908
  -exchange      EXHF   =         0.00000000
  -V(xc)+E(xc)   XCENC  =        36.78074773
  PAW double counting   =      3836.92374993    -3535.16887196
  entropy T*S    EENTRO =         0.00000000
  eigenvalues    EBANDS =     -1462.61927082
  atomic energy  EATOM  =      7277.57480299
  Solvation  Ediel_sol  =         0.00000000
  ---------------------------------------------------
  free energy    TOTEN  =       -92.56262671 eV

  energy without entropy =      -92.56262671  energy(sigma->0) =      -92.56262671


--------------------------------------------------------------------------------------------------------




--------------------------------------- Iteration      1(  17)  ---------------------------------------


    POTLOK:  cpu time    2.5821: real time    2.5991
    SETDIJ:  cpu time    0.1988: real time    0.1993
     EDDAV:  cpu time    3.1193: real time    3.1267
 BZINTS: Fermi energy: -0.561892;144.000000 electrons
         Band energy:***********;  BLOECHL correction:  0.000000
       DOS:  cpu time    0.0027: real time    0.0027
    CHARGE:  cpu time    0.2019: real time    0.2024
    MIXING:  cpu time    0.0068: real time    0.0068
    --------------------------------------------
      LOOP:  cpu time    6.1114: real time    6.1369

 eigenvalue-minimisations  :  2912
 total energy-change (2. order) : 0.4728576E-03  (-0.9971944E-04)
 number of electron     143.9999989 magnetization 
 augmentation part      -17.7872788 magnetization 

 Broyden mixing:
  rms(total) = 0.88777E-03    rms(broyden)= 0.88777E-03
  rms(prec ) = 0.16594E-02
  weight for this iteration     100.00

 eigenvalues of (default mixing * dielectric matrix)
  average eigenvalue GAMMA=   2.0004
  5.9905  3.9294  2.7702  2.1766  0.8844  0.8844  1.4482  1.4482  1.3842  1.0521
  1.0521  0.9846

 Free energy of the ion-electron system (eV)
  ---------------------------------------------------
  alpha Z        PSCENC =       170.45750602
  Ewald energy   TEWEN  =     11805.28807847
  -Hartree energ DENC   =    -18222.87749419
  -exchange      EXHF   =         0.00000000
  -V(xc)+E(xc)   XCENC  =        36.78247028
  PAW double counting   =      3836.87201203    -3535.11272136
  entropy T*S    EENTRO =         0.00000000
  eigenvalues    EBANDS =     -1461.54680809
  atomic energy  EATOM  =      7277.57480299
  Solvation  Ediel_sol  =         0.00000000
  ---------------------------------------------------
  free energy    TOTEN  =       -92.56215386 eV

  energy without entropy =      -92.56215386  energy(sigma->0) =      -92.56215386


--------------------------------------------------------------------------------------------------------




--------------------------------------- Iteration      1(  18)  ---------------------------------------


    POTLOK:  cpu time    2.3959: real time    2.4132
    SETDIJ:  cpu time    0.4725: real time    0.4736
     EDDAV:  cpu time    2.5911: real time    2.5972
 BZINTS: Fermi energy: -0.560942;144.000000 electrons
         Band energy:***********;  BLOECHL correction:  0.000000
       DOS:  cpu time    0.0028: real time    0.0028
    CHARGE:  cpu time    0.1713: real time    0.1717
    MIXING:  cpu time    0.0072: real time    0.0072
    --------------------------------------------
      LOOP:  cpu time    5.6407: real time    5.6657

 eigenvalue-minimisations  :  2672
 total energy-change (2. order) :-0.5657822E-03  (-0.2802384E-04)
 number of electron     143.9999989 magnetization 
 augmentation part      -17.7872095 magnetization 

 Broyden mixing:
  rms(total) = 0.56224E-03    rms(broyden)= 0.56223E-03
  rms(prec ) = 0.99771E-03
  weight for this iteration     100.00

 eigenvalues of (default mixing * dielectric matrix)
  average eigenvalue GAMMA=   2.0730
  6.3680  4.4924  2.6906  2.6906  1.8453  0.8841  0.8841  1.3882  1.3882  1.1787
  1.1787  0.9803  0.9803

 Free energy of the ion-electron system (eV)
  ---------------------------------------------------
  alpha Z        PSCENC =       170.45750602
  Ewald energy   TEWEN  =     11805.28807847
  -Hartree energ DENC   =    -18223.46011536
  -exchange      EXHF   =         0.00000000
  -V(xc)+E(xc)   XCENC  =        36.78488387
  PAW double counting   =      3836.85257957    -3535.09121266
  entropy T*S    EENTRO =         0.00000000
  eigenvalues    EBANDS =     -1460.96924254
  atomic energy  EATOM  =      7277.57480299
  Solvation  Ediel_sol  =         0.00000000
  ---------------------------------------------------
  free energy    TOTEN  =       -92.56271964 eV

  energy without entropy =      -92.56271964  energy(sigma->0) =      -92.56271964


--------------------------------------------------------------------------------------------------------




--------------------------------------- Iteration      1(  19)  ---------------------------------------


    POTLOK:  cpu time    2.5946: real time    2.6126
    SETDIJ:  cpu time    0.2207: real time    0.2212
     EDDAV:  cpu time    2.6713: real time    2.6776
 BZINTS: Fermi energy: -0.561536;144.000000 electrons
         Band energy:***********;  BLOECHL correction:  0.000000
       DOS:  cpu time    0.0024: real time    0.0024
    CHARGE:  cpu time    0.1539: real time    0.1543
    MIXING:  cpu time    0.0076: real time    0.0077
    --------------------------------------------
      LOOP:  cpu time    5.6506: real time    5.6757

 eigenvalue-minimisations  :  2600
 total energy-change (2. order) :-0.7280173E-03  (-0.2910841E-04)
 number of electron     143.9999989 magnetization 
 augmentation part      -17.7874103 magnetization 

 Broyden mixing:
  rms(total) = 0.45705E-03    rms(broyden)= 0.45705E-03
  rms(prec ) = 0.68487E-03
  weight for this iteration     100.00

 eigenvalues of (default mixing * dielectric matrix)
  average eigenvalue GAMMA=   2.1548
  6.7944  5.0615  3.1094  2.7571  1.9164  1.6320  1.6320  0.8842  0.8842  1.2594
  1.2594  0.9544  1.0114  1.0114

 Free energy of the ion-electron system (eV)
  ---------------------------------------------------
  alpha Z        PSCENC =       170.45750602
  Ewald energy   TEWEN  =     11805.28807847
  -Hartree energ DENC   =    -18223.72667829
  -exchange      EXHF   =         0.00000000
  -V(xc)+E(xc)   XCENC  =        36.78314644
  PAW double counting   =      3836.77744473    -3535.01354556
  entropy T*S    EENTRO =         0.00000000
  eigenvalues    EBANDS =     -1460.70420246
  atomic energy  EATOM  =      7277.57480299
  Solvation  Ediel_sol  =         0.00000000
  ---------------------------------------------------
  free energy    TOTEN  =       -92.56344766 eV

  energy without entropy =      -92.56344766  energy(sigma->0) =      -92.56344766


--------------------------------------------------------------------------------------------------------




--------------------------------------- Iteration      1(  20)  ---------------------------------------


    POTLOK:  cpu time    2.7384: real time    2.7553
    SETDIJ:  cpu time    0.0692: real time    0.0694
     EDDAV:  cpu time    2.9156: real time    2.9225
 BZINTS: Fermi energy: -0.563329;144.000000 electrons
         Band energy:***********;  BLOECHL correction:  0.000000
       DOS:  cpu time    0.0030: real time    0.0030
    CHARGE:  cpu time    0.1883: real time    0.1887
    MIXING:  cpu time    0.0073: real time    0.0074
    --------------------------------------------
      LOOP:  cpu time    5.9218: real time    5.9463

 eigenvalue-minimisations  :  2616
 total energy-change (2. order) :-0.4623350E-03  (-0.1840002E-04)
 number of electron     143.9999989 magnetization 
 augmentation part      -17.7874867 magnetization 

 Broyden mixing:
  rms(total) = 0.24202E-03    rms(broyden)= 0.24202E-03
  rms(prec ) = 0.36366E-03
  weight for this iteration     100.00

 eigenvalues of (default mixing * dielectric matrix)
  average eigenvalue GAMMA=   2.2667
  7.2518  6.2576  3.1389  3.1389  2.5085  1.6020  1.6020  0.8843  0.8843  1.3042
  1.3042  1.0999  1.0999  0.9617  0.9617

 Free energy of the ion-electron system (eV)
  ---------------------------------------------------
  alpha Z        PSCENC =       170.45750602
  Ewald energy   TEWEN  =     11805.28807847
  -Hartree energ DENC   =    -18223.84816685
  -exchange      EXHF   =         0.00000000
  -V(xc)+E(xc)   XCENC  =        36.78348091
  PAW double counting   =      3836.79388987    -3535.02952844
  entropy T*S    EENTRO =         0.00000000
  eigenvalues    EBANDS =     -1460.58397298
  atomic energy  EATOM  =      7277.57480299
  Solvation  Ediel_sol  =         0.00000000
  ---------------------------------------------------
  free energy    TOTEN  =       -92.56390999 eV

  energy without entropy =      -92.56390999  energy(sigma->0) =      -92.56390999


--------------------------------------------------------------------------------------------------------




--------------------------------------- Iteration      1(  21)  ---------------------------------------


    POTLOK:  cpu time    2.5776: real time    2.5946
    SETDIJ:  cpu time    0.2581: real time    0.2587
     EDDAV:  cpu time    2.7383: real time    2.7448
 BZINTS: Fermi energy: -0.568788;144.000000 electrons
         Band energy:***********;  BLOECHL correction:  0.000000
       DOS:  cpu time    0.0025: real time    0.0025
    CHARGE:  cpu time    0.1743: real time    0.1747
    MIXING:  cpu time    0.0061: real time    0.0062
    --------------------------------------------
      LOOP:  cpu time    5.7570: real time    5.7815

 eigenvalue-minimisations  :  2432
 total energy-change (2. order) :-0.3852591E-03  (-0.1809974E-04)
 number of electron     143.9999989 magnetization 
 augmentation part      -17.7874967 magnetization 

 Broyden mixing:
  rms(total) = 0.12914E-03    rms(broyden)= 0.12914E-03
  rms(prec ) = 0.15320E-03
  weight for this iteration     100.00

 eigenvalues of (default mixing * dielectric matrix)
  average eigenvalue GAMMA=   2.3163
  8.2865  6.3989  3.3663  3.1462  2.4292  1.8746  1.8746  0.8842  0.8842  1.3156
  1.3156  1.1471  1.1471  0.9962  0.9962  0.9976

 Free energy of the ion-electron system (eV)
  ---------------------------------------------------
  alpha Z        PSCENC =       170.45750602
  Ewald energy   TEWEN  =     11805.28807847
  -Hartree energ DENC   =    -18223.75396785
  -exchange      EXHF   =         0.00000000
  -V(xc)+E(xc)   XCENC  =        36.78272519
  PAW double counting   =      3836.81834598    -3535.05536070
  entropy T*S    EENTRO =         0.00000000
  eigenvalues    EBANDS =     -1460.67642536
  atomic energy  EATOM  =      7277.57480299
  Solvation  Ediel_sol  =         0.00000000
  ---------------------------------------------------
  free energy    TOTEN  =       -92.56429525 eV

  energy without entropy =      -92.56429525  energy(sigma->0) =      -92.56429525


--------------------------------------------------------------------------------------------------------




--------------------------------------- Iteration      1(  22)  ---------------------------------------


    POTLOK:  cpu time    2.3803: real time    2.3992
    SETDIJ:  cpu time    0.4089: real time    0.4099
     EDDAV:  cpu time    2.1994: real time    2.2045
 BZINTS: Fermi energy: -0.571797;144.000000 electrons
         Band energy:***********;  BLOECHL correction:  0.000000
       DOS:  cpu time    0.0023: real time    0.0023
    CHARGE:  cpu time    0.1472: real time    0.1475
    MIXING:  cpu time    0.0069: real time    0.0070
    --------------------------------------------
      LOOP:  cpu time    5.1450: real time    5.1705

 eigenvalue-minimisations  :  2080
 total energy-change (2. order) :-0.1666309E-04  (-0.5590627E-05)
 number of electron     143.9999989 magnetization 
 augmentation part      -17.7874648 magnetization 

 Broyden mixing:
  rms(total) = 0.73001E-04    rms(broyden)= 0.73001E-04
  rms(prec ) = 0.91751E-04
  weight for this iteration     100.00

 eigenvalues of (default mixing * dielectric matrix)
  average eigenvalue GAMMA=   2.3143
  8.4797  7.0075  3.3241  3.3241  2.5385  1.9272  1.9272  0.8842  0.8842  1.2360
  1.2360  0.9653  0.9653  1.2454  1.2032  1.0979  1.0979

 Free energy of the ion-electron system (eV)
  ---------------------------------------------------
  alpha Z        PSCENC =       170.45750602
  Ewald energy   TEWEN  =     11805.28807847
  -Hartree energ DENC   =    -18223.74710976
  -exchange      EXHF   =         0.00000000
  -V(xc)+E(xc)   XCENC  =        36.78238149
  PAW double counting   =      3836.79708511    -3535.03386494
  entropy T*S    EENTRO =         0.00000000
  eigenvalues    EBANDS =     -1460.68319130
  atomic energy  EATOM  =      7277.57480299
  Solvation  Ediel_sol  =         0.00000000
  ---------------------------------------------------
  free energy    TOTEN  =       -92.56431191 eV

  energy without entropy =      -92.56431191  energy(sigma->0) =      -92.56431191


--------------------------------------------------------------------------------------------------------




--------------------------------------- Iteration      1(  23)  ---------------------------------------


    POTLOK:  cpu time    2.5899: real time    2.6072
    SETDIJ:  cpu time    0.2354: real time    0.2360
     EDDAV:  cpu time    2.2192: real time    2.2245
 BZINTS: Fermi energy: -0.576505;144.000000 electrons
         Band energy:***********;  BLOECHL correction:  0.000000
       DOS:  cpu time    0.0024: real time    0.0024
    CHARGE:  cpu time    0.1392: real time    0.1395
    MIXING:  cpu time    0.0087: real time    0.0087
    --------------------------------------------
      LOOP:  cpu time    5.1948: real time    5.2182

 eigenvalue-minimisations  :  2208
 total energy-change (2. order) : 0.7268208E-05  (-0.2141648E-05)
 number of electron     143.9999989 magnetization 
 augmentation part      -17.7874525 magnetization 

 Broyden mixing:
  rms(total) = 0.38849E-04    rms(broyden)= 0.38848E-04
  rms(prec ) = 0.51243E-04
  weight for this iteration     100.00

 eigenvalues of (default mixing * dielectric matrix)
  average eigenvalue GAMMA=   2.3131
  8.6492  7.1183  3.4544  3.4544  2.6402  1.9237  1.9237  1.6845  0.8842  0.8842
  1.2797  1.2797  1.3302  1.1077  1.1077  0.9781  0.9781  0.9578

 Free energy of the ion-electron system (eV)
  ---------------------------------------------------
  alpha Z        PSCENC =       170.45750602
  Ewald energy   TEWEN  =     11805.28807847
  -Hartree energ DENC   =    -18223.73561211
  -exchange      EXHF   =         0.00000000
  -V(xc)+E(xc)   XCENC  =        36.78227544
  PAW double counting   =      3836.79475673    -3535.03157132
  entropy T*S    EENTRO =         0.00000000
  eigenvalues    EBANDS =     -1460.69454086
  atomic energy  EATOM  =      7277.57480299
  Solvation  Ediel_sol  =         0.00000000
  ---------------------------------------------------
  free energy    TOTEN  =       -92.56430464 eV

  energy without entropy =      -92.56430464  energy(sigma->0) =      -92.56430464


--------------------------------------------------------------------------------------------------------




--------------------------------------- Iteration      1(  24)  ---------------------------------------


    POTLOK:  cpu time    2.7478: real time    2.7655
    SETDIJ:  cpu time    0.1083: real time    0.1086
     EDDAV:  cpu time    2.5381: real time    2.5441
 BZINTS: Fermi energy: -0.582614;144.000000 electrons
         Band energy:***********;  BLOECHL correction:  0.000000
       DOS:  cpu time    0.0027: real time    0.0027
    CHARGE:  cpu time    0.1819: real time    0.1824
    MIXING:  cpu time    0.0069: real time    0.0070
    --------------------------------------------
      LOOP:  cpu time    5.5857: real time    5.6102

 eigenvalue-minimisations  :  2264
 total energy-change (2. order) : 0.2383815E-04  (-0.2082139E-05)
 number of electron     143.9999989 magnetization 
 augmentation part      -17.7874476 magnetization 

 Broyden mixing:
  rms(total) = 0.22573E-04    rms(broyden)= 0.22569E-04
  rms(prec ) = 0.32063E-04
  weight for this iteration     100.00

 eigenvalues of (default mixing * dielectric matrix)
  average eigenvalue GAMMA=   2.3099
  8.6119  7.3098  3.5407  3.5407  2.7669  2.2032  2.2032  1.8884  0.8842  0.8842
  1.2563  1.2563  1.2096  1.2096  0.9866  0.9866  1.0026  1.0737  1.0737

 Free energy of the ion-electron system (eV)
  ---------------------------------------------------
[...]
      7     -28.1580      2.00000
      8     -28.1577      2.00000
      9     -15.0385      2.00000
     10     -15.0383      2.00000
     11     -14.9753      2.00000
     12     -14.9753      2.00000
     13     -14.9088      2.00000
     14     -14.9088      2.00000
     15     -14.1725      2.00000
     16     -14.1720      2.00000
     17     -14.0738      2.00000
     18     -14.0639      2.00000
     19     -14.0230      2.00000
     20     -14.0173      2.00000
     21     -14.0122      2.00000
     22     -14.0076      2.00000
     23     -14.0017      2.00000
     24     -14.0002      2.00000
     25     -13.9471      2.00000
     26     -13.9391      2.00000
     27     -13.4851      2.00000
     28     -13.4771      2.00000
     29     -13.4353      2.00000
     30     -13.4276      2.00000
     31     -13.4097      2.00000
     32     -13.4077      2.00000
     33     -11.0744      2.00000
     34     -11.0627      2.00000
     35     -10.7049      2.00000
     36     -10.6900      2.00000
     37      -6.5676      2.00000
     38      -6.5510      2.00000
     39      -6.3136      2.00000
     40      -6.3052      2.00000
     41      -6.2337      2.00000
     42      -6.2218      2.00000
     43      -6.0101      2.00000
     44      -5.9969      2.00000
     45      -5.9443      2.00000
     46      -5.9001      2.00000
     47      -5.8582      2.00000
     48      -5.7458      2.00000
     49      -2.8878      2.00000
     50      -2.7988      2.00000
     51      -2.6538      2.00000
     52      -2.6003      2.00000
     53      -2.3196      2.00000
     54      -2.2284      2.00000
     55      -2.2112      2.00000
     56      -2.1873      2.00000
     57      -2.0340      2.00000
     58      -2.0102      2.00000
     59      -1.9222      2.00000
     60      -1.8383      2.00000
     61      -1.7577      2.00000
     62      -1.6813      2.00000
     63      -1.5866      2.00000
     64      -1.5236      2.00000
     65      -1.3851      2.00000
     66      -1.3202      2.00000
     67      -1.2712      2.00000
     68      -1.1510      2.00000
     69      -1.0313      2.00000
     70      -0.9544      2.00000
     71      -0.9323      2.00000
     72      -0.8698      2.00000
     73       0.1894      0.00000
     74       0.2312      0.00000
     75       0.3856      0.00000
     76       0.4301      0.00000
     77       0.5277      0.00000
     78       0.6210      0.00000
     79       0.7538      0.00000
     80       0.7685      0.00000
     81       0.8101      0.00000
     82       0.8727      0.00000
     83       1.0317      0.00000
     84       1.0669      0.00000
     85       1.1764      0.00000
     86       1.3354      0.00000
     87       1.4230      0.00000
     88       1.5426      0.00000

 k-point    15 :       0.0000    0.5000    0.4000
  band No.  band energies     occupation 
      1     -29.7489      2.00000
      2     -29.7489      2.00000
      3     -28.7919      2.00000
      4     -28.7919      2.00000
      5     -28.7400      2.00000
      6     -28.7400      2.00000
      7     -28.1579      2.00000
      8     -28.1579      2.00000
      9     -15.0379      2.00000
     10     -15.0379      2.00000
     11     -14.9761      2.00000
     12     -14.9761      2.00000
     13     -14.9107      2.00000
     14     -14.9107      2.00000
     15     -14.1716      2.00000
     16     -14.1716      2.00000
     17     -14.0705      2.00000
     18     -14.0705      2.00000
     19     -14.0233      2.00000
     20     -14.0233      2.00000
     21     -14.0120      2.00000
     22     -14.0120      2.00000
     23     -14.0008      2.00000
     24     -14.0008      2.00000
     25     -13.9426      2.00000
     26     -13.9426      2.00000
     27     -13.4808      2.00000
     28     -13.4808      2.00000
     29     -13.4318      2.00000
     30     -13.4318      2.00000
     31     -13.4080      2.00000
     32     -13.4080      2.00000
     33     -11.0626      2.00000
     34     -11.0626      2.00000
     35     -10.6882      2.00000
     36     -10.6882      2.00000
     37      -6.5886      2.00000
     38      -6.5886      2.00000
     39      -6.2879      2.00000
     40      -6.2879      2.00000
     41      -6.2230      2.00000
     42      -6.2230      2.00000
     43      -5.9793      2.00000
     44      -5.9793      2.00000
     45      -5.9349      2.00000
     46      -5.9349      2.00000
     47      -5.7962      2.00000
     48      -5.7962      2.00000
     49      -2.7975      2.00000
     50      -2.7975      2.00000
     51      -2.6460      2.00000
     52      -2.6460      2.00000
     53      -2.2670      2.00000
     54      -2.2670      2.00000
     55      -2.2151      2.00000
     56      -2.2151      2.00000
     57      -2.0265      2.00000
     58      -2.0265      2.00000
     59      -1.8307      2.00000
     60      -1.8307      2.00000
     61      -1.6206      2.00000
     62      -1.6206      2.00000
     63      -1.6078      2.00000
     64      -1.6078      2.00000
     65      -1.3693      2.00000
     66      -1.3693      2.00000
     67      -1.2119      2.00000
     68      -1.2119      2.00000
     69      -1.0211      2.00000
     70      -1.0211      2.00000
     71      -0.9044      2.00000
     72      -0.9044      2.00000
     73       0.1318      0.00000
     74       0.1318      0.00000
     75       0.3744      0.00000
     76       0.3744      0.00000
     77       0.5773      0.00000
     78       0.5773      0.00000
     79       0.7258      0.00000
     80       0.7258      0.00000
     81       0.7806      0.00000
     82       0.7806      0.00000
     83       1.0692      0.00000
     84       1.0692      0.00000
     85       1.2622      0.00000
     86       1.2623      0.00000
     87       1.4004      0.00000
     88       1.4005      0.00000


--------------------------------------------------------------------------------------------------------


 soft charge-density along one line, spin component           1
         0         1         2         3         4         5         6         7         8         9
 total charge-density along one line
 
 pseudopotential strength for first ion, spin component:           1
  4.891  -5.542  -0.000  -0.005  -0.021  -0.000  -0.005  -0.024
 -5.542  -2.772   0.000   0.001   0.002  -0.000  -0.001  -0.004
 -0.000   0.000  -6.748  -0.000  -0.000   1.899  -0.000  -0.000
 -0.005   0.001  -0.000  -6.743  -0.001  -0.000   1.910  -0.003
 -0.021   0.002  -0.000  -0.001  -6.744  -0.000  -0.003   1.910
 -0.000  -0.000   1.899  -0.000  -0.000   7.249  -0.000  -0.000
 -0.005  -0.001  -0.000   1.910  -0.003  -0.000   7.250  -0.000
 -0.024  -0.004  -0.000  -0.003   1.910  -0.000  -0.000   7.250
 -0.000   0.000  -0.013  -0.000  -0.000  -0.010  -0.000  -0.000
 -0.000   0.000  -0.000  -0.000  -0.000  -0.000  -0.000  -0.000
  0.002  -0.001   0.000  -0.005   0.007   0.000  -0.003   0.005
 -0.002   0.001  -0.000  -0.012  -0.002  -0.000  -0.009  -0.002
  0.003  -0.001   0.000  -0.001  -0.011   0.000  -0.001  -0.009
  0.000   0.000   0.001   0.000   0.000   0.000   0.000   0.000
  0.000   0.000   0.000   0.000   0.000  -0.000   0.000   0.000
 -0.000  -0.000  -0.000   0.000  -0.000  -0.000   0.000  -0.000
  0.000   0.000   0.000   0.001   0.000   0.000   0.000   0.000
 -0.000  -0.000  -0.000   0.000   0.001  -0.000   0.000   0.000
 total augmentation occupancy for first ion, spin component:           1
  2.113  -0.264   0.000   0.012   0.051   0.000  -0.005  -0.019   0.000   0.000   0.014  -0.007   0.031  -0.000   0.000  -0.008
 -0.264   0.637   0.000  -0.031  -0.133   0.000   0.011   0.032   0.000   0.000  -0.023   0.006  -0.061   0.000   0.000   0.034
  0.000   0.000   2.013   0.000   0.000  -0.016  -0.000   0.000  -0.079   0.022  -0.000   0.000   0.000   0.069  -0.044  -0.000
  0.012  -0.031   0.000   2.000   0.003   0.000  -0.007  -0.002   0.000   0.000  -0.044  -0.064  -0.014  -0.000   0.000   0.045
  0.051  -0.133   0.000   0.003   1.996  -0.000  -0.002  -0.005   0.000   0.000   0.033  -0.006  -0.050   0.000   0.000  -0.028
  0.000   0.000  -0.016   0.000   0.000   0.008  -0.000   0.000   0.022  -0.009   0.000   0.000  -0.000  -0.029   0.014   0.000
 -0.005   0.011   0.000  -0.007  -0.002   0.000   0.005   0.000   0.000   0.000   0.016   0.015   0.005   0.000   0.000  -0.022
 -0.019   0.032  -0.000  -0.002  -0.005   0.000   0.000   0.004  -0.000   0.000  -0.007  -0.000   0.009   0.000   0.000   0.009
  0.000   0.000  -0.079   0.000  -0.000   0.022   0.000   0.000   0.147  -0.015   0.000   0.000   0.000  -0.184   0.021   0.000
 -0.000  -0.000   0.022   0.000   0.000  -0.009   0.000   0.000  -0.015   0.068   0.000   0.000   0.000   0.019  -0.085  -0.000
  0.014  -0.023   0.000  -0.044   0.033   0.000   0.016  -0.007   0.000   0.000   0.121   0.050   0.019   0.000   0.000  -0.148
 -0.007   0.006   0.000  -0.064  -0.006   0.000   0.015  -0.000   0.000   0.000   0.050   0.087   0.008   0.000   0.000  -0.069
  0.031  -0.061   0.000  -0.014  -0.050  -0.000   0.005   0.009   0.000   0.000   0.019   0.008   0.092   0.000   0.000  -0.025
  0.000  -0.000   0.069  -0.000   0.000  -0.029   0.000   0.000  -0.184   0.019   0.000   0.000  -0.000   0.261  -0.035   0.000
  0.000   0.000  -0.044   0.000   0.000   0.014   0.000   0.000   0.021  -0.085   0.000   0.000   0.000  -0.035   0.115   0.000
 -0.008   0.034   0.000   0.045  -0.028   0.000  -0.022   0.009   0.000   0.000  -0.148  -0.069  -0.025   0.000   0.000   0.203
  0.005  -0.023  -0.000   0.055  -0.001  -0.000  -0.022  -0.000   0.000   0.000  -0.067  -0.111  -0.011   0.000  -0.000   0.104
 -0.023   0.072   0.000   0.023   0.043   0.000  -0.008  -0.012   0.000   0.000  -0.027  -0.013  -0.121   0.000   0.000   0.041


------------------------ aborting loop because EDIFF is reached ----------------------------------------


    CHARGE:  cpu time    0.1615: real time    0.1618
    FORLOC:  cpu time    0.0101: real time    0.0101
    FORNL :  cpu time    0.5495: real time    0.5508
    STRESS:  cpu time    1.5642: real time    1.5878
    FORCOR:  cpu time    2.5787: real time    2.5848
    FORHAR:  cpu time    0.0256: real time    0.0256
    MIXING:  cpu time    0.1688: real time    0.1969
    OFIELD:  cpu time    0.0000: real time    0.0000

  FORCE on cell =-STRESS in cart. coord.  units (eV):
  Direction    XX          YY          ZZ          XY          YZ          ZX
  --------------------------------------------------------------------------------------
  Alpha Z   170.45751   170.45751   170.45751
  Ewald  -19575.44266 15957.27848 15423.43859    -0.00002     0.00000   134.88761
  Hartree-16500.40995 17569.41957 17154.70494     0.00000    -0.00000   102.17648
  E(xc)    -466.53063  -467.76556  -467.83663     0.00000    -0.00000     0.07847
  Local   34658.26794-34963.31926-34006.59206     0.00001    -0.00000  -234.45577
  n-local   340.71255   340.70532   341.39416     0.06029    -0.20847    -1.64531
  augment  -167.42214  -167.78026  -167.63679    -0.00000    -0.00000     0.33812
  Kinetic  1531.48900  1549.81533  1541.14112    -0.03148    -0.83374    -1.15239
  Fock        0.00000     0.00000     0.00000     0.00000     0.00000     0.00000
  -------------------------------------------------------------------------------------
  Total      -8.87837   -11.18887   -10.92917     0.00000     0.00000     0.22721
  in kB      -7.53410    -9.49476    -9.27439     0.00000     0.00000     0.19281
  external pressure =       -8.77 kB  Pullay stress =        0.00 kB


 VOLUME and BASIS-vectors are now :
 -----------------------------------------------------------------------------
  energy-cutoff  :      500.00
  volume of cell :     1888.05
      direct lattice vectors                 reciprocal lattice vectors
    24.009468079  0.000000000  0.000000000     0.041650236  0.000000000  0.000000000
     0.000000000  6.777849674  0.000000000     0.000000000  0.147539419  0.000000000
     0.000000000  0.000000000 11.602143288     0.000000000  0.000000000  0.086190971

  length of vectors
    24.009468079  6.777849674 11.602143288     0.041650236  0.147539419  0.086190971


 FORCES acting on ions
    electron-ion (+dipol)            ewald-force                    non-local-force                 convergence-correction
 -----------------------------------------------------------------------------------------------
   0.780E+03 0.101E-04 0.426E+02   -.776E+03 0.980E-05 -.418E+02   -.400E+01 -.127E-18 -.789E+00   -.852E-04 -.853E-09 0.144E-04
   -.780E+03 -.633E-04 -.426E+02   0.776E+03 -.127E-04 0.418E+02   0.400E+01 0.153E-18 0.789E+00   0.853E-04 0.957E-09 -.144E-04
   0.820E+02 -.607E-04 -.341E+02   -.818E+02 -.183E-04 0.329E+02   -.616E-01 0.237E-18 0.120E+01   0.895E-04 0.139E-08 -.677E-04
   -.820E+02 0.113E-04 0.341E+02   0.818E+02 0.129E-04 -.329E+02   0.616E-01 0.306E-18 -.120E+01   -.895E-04 -.127E-08 0.677E-04
   0.626E+03 -.612E-04 -.488E+02   -.624E+03 -.166E-04 0.493E+02   -.176E+01 0.211E-17 -.519E+00   0.486E-04 0.115E-08 -.460E-04
   -.626E+03 0.903E-05 0.488E+02   0.624E+03 0.144E-04 -.493E+02   0.176E+01 0.194E-17 0.519E+00   -.486E-04 -.107E-08 0.459E-04
   0.362E+03 0.118E-04 -.593E+01   -.361E+03 0.133E-04 0.527E+01   -.756E+00 -.150E-17 0.666E+00   0.114E-03 -.124E-08 0.395E-04
   -.362E+03 -.618E-04 0.593E+01   0.361E+03 -.135E-04 -.527E+01   0.756E+00 0.150E-17 -.666E+00   -.114E-03 0.125E-08 -.395E-04
   0.274E+03 0.350E+02 -.454E+02   -.274E+03 -.370E+02 0.464E+02   -.153E+00 0.201E+01 -.107E+01   0.688E-04 0.480E-04 -.504E-04
   -.274E+03 -.350E+02 0.454E+02   0.274E+03 0.370E+02 -.464E+02   0.153E+00 -.201E+01 0.107E+01   -.688E-04 -.480E-04 0.504E-04
   0.123E+03 -.306E+02 0.207E+01   -.122E+03 0.323E+02 -.784E+00   -.387E+00 -.165E+01 -.129E+01   0.208E-04 -.232E-04 -.461E-05
   -.123E+03 0.306E+02 -.207E+01   0.122E+03 -.323E+02 0.784E+00   0.387E+00 0.165E+01 0.129E+01   -.208E-04 0.232E-04 0.461E-05
   -.274E+03 0.350E+02 0.454E+02   0.274E+03 -.370E+02 -.464E+02   0.153E+00 0.201E+01 0.107E+01   -.688E-04 0.480E-04 0.504E-04
   0.274E+03 -.350E+02 -.454E+02   -.274E+03 0.370E+02 0.464E+02   -.153E+00 -.201E+01 -.107E+01   0.688E-04 -.480E-04 -.504E-04
   -.123E+03 -.306E+02 -.207E+01   0.122E+03 0.323E+02 0.784E+00   0.387E+00 -.165E+01 0.129E+01   -.208E-04 -.232E-04 0.461E-05
   0.123E+03 0.306E+02 0.207E+01   -.122E+03 -.323E+02 -.784E+00   -.387E+00 0.165E+01 -.129E+01   0.208E-04 0.232E-04 -.461E-05
   0.330E+03 -.372E-05 0.454E+02   -.332E+03 -.607E-05 -.459E+02   0.162E+01 -.489E-18 0.483E+00   0.185E-04 0.363E-09 0.227E-04
   -.330E+03 0.555E-05 -.454E+02   0.332E+03 0.628E-05 0.459E+02   -.162E+01 -.520E-18 -.483E+00   -.185E-04 -.381E-09 -.227E-04
   0.334E+02 0.954E-05 -.102E+02   -.313E+02 0.757E-05 0.958E+01   -.171E+01 -.147E-18 0.629E+00   -.227E-04 -.522E-09 -.249E-04
   -.334E+02 -.226E-05 0.102E+02   0.313E+02 -.726E-05 -.958E+01   0.171E+01 -.120E-18 -.629E+00   0.227E-04 0.481E-09 0.249E-04
   0.241E+03 0.423E-05 0.101E+02   -.241E+03 0.807E-05 -.119E+02   -.381E+00 0.534E-19 0.183E+01   0.687E-04 -.458E-09 0.369E-04
   -.241E+03 -.557E-05 -.101E+02   0.241E+03 -.813E-05 0.119E+02   0.381E+00 -.995E-19 -.183E+01   -.687E-04 0.423E-09 -.369E-04
   0.158E+03 -.643E-05 0.581E+02   -.157E+03 -.765E-05 -.603E+02   -.878E+00 -.907E-17 0.220E+01   0.293E-04 0.466E-09 0.467E-04
   -.158E+03 0.400E-05 -.581E+02   0.157E+03 0.746E-05 0.603E+02   0.878E+00 -.988E-17 -.220E+01   -.293E-04 -.473E-09 -.467E-04
 -----------------------------------------------------------------------------------------------
   0.167E-04 -.210E-03 0.826E-04   -.142E-12 0.321E-13 0.000E+00   0.666E-15 0.424E-15 0.000E+00   0.130E-08 0.161E-09 -.827E-08
 
 
 POSITION                                       TOTAL-FORCE (eV/Angst)
 -----------------------------------------------------------------------------------
      0.13670      1.69446      8.18036         0.742840     -0.000000     -0.000158
      9.12277      5.08339      3.42178        -0.742840     -0.000000      0.000158
      4.36803      5.08339      2.16781         0.164140     -0.000000      0.000475
      4.89143      1.69446      9.43433        -0.164140     -0.000000     -0.000475
      1.43529      5.08339     10.63908         0.706698      0.000000     -0.002353
      7.82418      1.69446      0.96307        -0.706698     -0.000000      0.002353
      3.06944      1.69446      4.62766         0.446264     -0.000000      0.000812
      6.19002      5.08339      6.97448        -0.446264      0.000000     -0.000812
      1.75027      0.48656      1.68199        -0.167044      0.001765     -0.000950
      7.50920      6.29129      9.92015         0.167044     -0.001765      0.000950
      2.75446      6.29988      7.64403         0.217578      0.000237      0.001767
      6.50500      0.47797      3.95811        -0.217578     -0.000237     -0.001767
      7.50920      3.87549      9.92015         0.167044      0.001765      0.000950
      1.75027      2.90236      1.68199        -0.167044     -0.001765     -0.000950
      6.50500      2.91096      3.95811        -0.217578      0.000237     -0.001767
      2.75446      3.86689      7.64403         0.217578     -0.000237      0.001767
      0.74693      5.08339      6.94940        -0.326790      0.000000      0.002018
      8.51254      1.69446      4.65274         0.326790      0.000000     -0.002018
      3.75780      1.69446      0.96964         0.349164      0.000000      0.000191
      5.50166      5.08339     10.63250        -0.349164     -0.000000     -0.000191
      1.78112      1.69446     11.15611        -0.228663     -0.000000      0.005391
      7.47835      5.08339      0.44603         0.228663      0.000000     -0.005391
      2.72362      5.08339      5.52004        -0.141595      0.000000     -0.000312
      6.53585      1.69446      6.08210         0.141595      0.000000      0.000312
 -----------------------------------------------------------------------------------
    total drift:                                0.000017     -0.000210      0.000083


--------------------------------------------------------------------------------------------------------



  FREE ENERGIE OF THE ION-ELECTRON SYSTEM (eV)
  ---------------------------------------------------
  free  energy   TOTEN  =       -92.56427145 eV

  energy  without entropy=      -92.56427145  energy(sigma->0) =      -92.56427145
 


--------------------------------------------------------------------------------------------------------


    POTLOK:  cpu time    2.8668: real time    2.8738


--------------------------------------------------------------------------------------------------------


 writing wavefunctions
     LOOP+:  cpu time13971.4654: real time14006.3525
    4ORBIT:  cpu time    0.0000: real time    0.0000
 BZINTS: Fermi energy: -0.603683;144.000000 electrons
         Band energy:***********;  BLOECHL correction:  0.000000

 total amount of memory used by VASP MPI-rank0    79354. kBytes
=======================================================================

   base      :      30000. kBytes
   nonlr-proj:       2648. kBytes
   fftplans  :       5898. kBytes
   grid      :       8824. kBytes
   one-center:         93. kBytes
   wavefun   :      31891. kBytes
 
  
  
 General timing and accounting informations for this job:
 ========================================================
  
                  Total CPU time used (sec):    13979.775
                            User time (sec):    13967.548
                          System time (sec):       12.227
                         Elapsed time (sec):    14018.802
  
                   Maximum memory used (kb):      305844.
                   Average memory used (kb):           0.
  
                          Minor page faults:       125960
                          Major page faults:          257
                 Voluntary context switches:        14126
