 vasp.5.4.4.18Apr17-6-g9f103f2a35 (build Nov 21 2017 15:30:27) complex          
  
 executed on             LinuxIFC date 2020.09.16  13:55:59
 running on   64 total cores
 distrk:  each k-point on   32 cores,    2 groups
 distr:  one band on NCORES_PER_BAND=   4 cores,    8 groups


--------------------------------------------------------------------------------------------------------


 INCAR:
 POTCAR:   PAW_PBE Ba_sv 06Sep2000                
 POTCAR:   PAW_PBE Si 05Jan2001                   

 ----------------------------------------------------------------------------- 
|                                                                             |
|           W    W    AA    RRRRR   N    N  II  N    N   GGGG   !!!           |
|           W    W   A  A   R    R  NN   N  II  NN   N  G    G  !!!           |
|           W    W  A    A  R    R  N N  N  II  N N  N  G       !!!           |
|           W WW W  AAAAAA  RRRRR   N  N N  II  N  N N  G  GGG   !            |
|           WW  WW  A    A  R   R   N   NN  II  N   NN  G    G                |
|           W    W  A    A  R    R  N    N  II  N    N   GGGG   !!!           |
|                                                                             |
|      You have enabled k-point parallelism (KPAR>1).                         |
|      This developmental code was originally  written by Paul Kent at ORNL,  |
|      and carefully double checked in Vienna.                                |
|      GW as well as linear response parallelism added by Martijn Marsman     |
|      and Georg Kresse.                                                      |
|      Carefully verify results versus KPAR=1.                                |
|      Report problems to Paul Kent and Vienna.                               |
|                                                                             |
 ----------------------------------------------------------------------------- 


 ----------------------------------------------------------------------------- 
|                                                                             |
|  ADVICE TO THIS USER RUNNING 'VASP/VAMP'   (HEAR YOUR MASTER'S VOICE ...):  |
|                                                                             |
|      You have switched on vdW-DFT.                                          |
|      This routine was written and supplied by Jiri Klimes.                  |
|      We recommed that you carefully read and cite the following             |
|      publication                                                            |
|      J. Klimes, D.R. Bowler, A. Michelides                                  |
|        J. Phys.: Cond Matt. 22 022201 (2010)                                |
|      J. Klimes, D.R. Bowler, A. Michelides                                  |
|        Phys. Rev. B. 83, 195131 (2011)                                      |
|      and references therein.                                                |
|                                                                             |
 ----------------------------------------------------------------------------- 

 POTCAR:   PAW_PBE Ba_sv 06Sep2000                
   VRHFIN =Ba: 5s5p6s                                                           
   LEXCH  = PE                                                                  
   EATOM  =   700.2255 eV,   51.4651 Ry                                         
                                                                                
   TITEL  = PAW_PBE Ba_sv 06Sep2000                                             
   LULTRA =        F    use ultrasoft PP ?                                      
   IUNSCR =        1    unscreen: 0-lin 1-nonlin 2-no                           
   RPACOR =    2.400    partial core radius                                     
   POMASS =  137.327; ZVAL   =   10.000    mass and valenz                      
   RCORE  =    2.800    outmost cutoff radius                                   
   RWIGS  =    3.740; RWIGS  =    1.979    wigner-seitz radius (au A)           
   ENMAX  =  187.210; ENMIN  =  140.408 eV                                      
   RCLOC  =    2.516    cutoff for local pot                                    
   LCOR   =        T    correct aug charges                                     
   LPAW   =        T    paw PP                                                  
   EAUG   =  351.165                                                            
   DEXC   =     .000                                                            
   RMAX   =    3.370    core radius for proj-oper                               
   RAUG   =    1.300    factor for augmentation sphere                          
   RDEP   =    2.976    radius for radial grids                                 
   QCUT   =   -3.709; QGAM   =    7.419    optimization parameters              
                                                                                
   Description                                                                  
     l     E      TYP  RCUT    TYP  RCUT                                        
     0   .000     23  2.800                                                     
     0   .000     23  2.800                                                     
     1   .000     23  2.700                                                     
     1  2.000     23  2.700                                                     
     2   .000     23  2.700                                                     
     2   .000     23  2.700                                                     
  local pseudopotential read in
  partial core-charges read in
  atomic valenz-charges read in
  non local Contribution for L=           0  read in
    real space projection operators read in
  non local Contribution for L=           0  read in
    real space projection operators read in
  non local Contribution for L=           1  read in
    real space projection operators read in
  non local Contribution for L=           1  read in
    real space projection operators read in
  non local Contribution for L=           2  read in
    real space projection operators read in
  non local Contribution for L=           2  read in
    real space projection operators read in
    PAW grid and wavefunctions read in
 
   number of l-projection  operators is LMAX  =           6
   number of lm-projection operators is LMMAX =          18
 
 POTCAR:   PAW_PBE Si 05Jan2001                   
   VRHFIN =Si: s2p2                                                             
   LEXCH  = PE                                                                  
   EATOM  =   103.0669 eV,    7.5752 Ry                                         
                                                                                
   TITEL  = PAW_PBE Si 05Jan2001                                                
   LULTRA =        F    use ultrasoft PP ?                                      
   IUNSCR =        1    unscreen: 0-lin 1-nonlin 2-no                           
   RPACOR =    1.500    partial core radius                                     
   POMASS =   28.085; ZVAL   =    4.000    mass and valenz                      
   RCORE  =    1.900    outmost cutoff radius                                   
   RWIGS  =    2.480; RWIGS  =    1.312    wigner-seitz radius (au A)           
   ENMAX  =  245.345; ENMIN  =  184.009 eV                                      
   ICORE  =        2    local potential                                         
   LCOR   =        T    correct aug charges                                     
   LPAW   =        T    paw PP                                                  
   EAUG   =  322.069                                                            
   DEXC   =    -.007                                                            
   RMAX   =    2.944    core radius for proj-oper                               
   RAUG   =    1.300    factor for augmentation sphere                          
   RDEP   =    1.993    radius for radial grids                                 
   QCUT   =   -4.246; QGAM   =    8.493    optimization parameters              
                                                                                
   Description                                                                  
     l     E      TYP  RCUT    TYP  RCUT                                        
     0   .000     23  1.900                                                     
     0   .000     23  1.900                                                     
     1   .000     23  1.900                                                     
     1   .000     23  1.900                                                     
     2   .000      7  1.900                                                     
  local pseudopotential read in
  partial core-charges read in
  atomic valenz-charges read in
  non local Contribution for L=           0  read in
    real space projection operators read in
  non local Contribution for L=           0  read in
    real space projection operators read in
  non local Contribution for L=           1  read in
    real space projection operators read in
  non local Contribution for L=           1  read in
    real space projection operators read in
    PAW grid and wavefunctions read in
 
   number of l-projection  operators is LMAX  =           4
   number of lm-projection operators is LMMAX =           8
 
 Optimization of the real space projectors (new method)

 maximal supplied QI-value         = 13.42
 optimisation between [QCUT,QGAM] = [ 11.40, 22.81] = [ 36.42,145.68] Ry 
 Optimized for a Real-space Cutoff    1.56 Angstroem

   l    n(q)    QCUT    max X(q) W(low)/X(q) W(high)/X(q)  e(spline) 
   0     11    11.404     7.198    0.14E-04    0.26E-04    0.99E-07
   0     11    11.404    15.603    0.29E-04    0.72E-04    0.44E-06
   1     10    11.404     3.746    0.20E-04    0.24E-04    0.43E-07
   1     10    11.404     4.362    0.22E-03    0.97E-04    0.22E-06
   2     10    11.404     5.782    0.83E-04    0.62E-05    0.27E-06
   2     10    11.404    65.505    0.42E-03    0.31E-04    0.12E-05
 Optimization of the real space projectors (new method)

 maximal supplied QI-value         = 19.84
 optimisation between [QCUT,QGAM] = [ 11.31, 22.82] = [ 35.82,145.81] Ry 
 Optimized for a Real-space Cutoff    1.16 Angstroem

   l    n(q)    QCUT    max X(q) W(low)/X(q) W(high)/X(q)  e(spline) 
   0      8    11.310     8.708    0.14E-04    0.11E-04    0.43E-08
   0      8    11.310   106.241    0.27E-03    0.30E-03    0.38E-07
   1      7    11.310     5.901    0.82E-05    0.48E-04    0.19E-07
   1      7    11.310    73.241    0.27E-03    0.27E-03    0.74E-07

 ----------------------------------------------------------------------------- 
|                                                                             |
|  ADVICE TO THIS USER RUNNING 'VASP/VAMP'   (HEAR YOUR MASTER'S VOICE ...):  |
|                                                                             |
|      You enforced a specific xc-type in the INCAR file,                     |
|      a different type was found on the POTCAR file                          |
|          I HOPE YOU KNOW, WHAT YOU ARE  DOING                               |
|                                                                             |
 ----------------------------------------------------------------------------- 

 PAW_PBE Ba_sv 06Sep2000                :
 energy of atom  1       EATOM= -700.2255
 kinetic energy error for atom=    0.0005 (will be added to EATOM!!)
 PAW_PBE Si 05Jan2001                   :
 energy of atom  2       EATOM= -103.0669
 kinetic energy error for atom=    0.0006 (will be added to EATOM!!)
 
 
 POSCAR: ba8 si16                                
  positions in direct lattice
  velocities in cartesian coordinates
 exchange correlation table for  LEXCH =       42
   RHO(1)=    0.500       N(1)  =     2000
   RHO(2)=  100.500       N(2)  =     4000
 


--------------------------------------------------------------------------------------------------------


 ion  position               nearest neighbor table
   1  0.006  0.250  0.705-  21 3.39  16 3.44  11 3.44  17 3.65  17 3.65   5 4.38   5 4.38   7 4.61

   2  0.382  0.750  0.295-  22 3.39  12 3.44  15 3.44  18 3.65  18 3.65   6 4.38   6 4.38   8 4.61

   3  0.182  0.750  0.187-  20 3.34   9 3.44  14 3.44  12 3.56  15 3.56  22 3.59  19 3.65  19 3.65
                            23 3.74   5 4.29   7 4.38   7 4.38
   4  0.206  0.250  0.813-  19 3.34  13 3.44  10 3.44  16 3.56  11 3.56  21 3.59  20 3.65  20 3.65
                            24 3.74   6 4.29   8 4.38   8 4.38
   5  0.060  0.750  0.916-   9 3.44  14 3.44  21 3.45  21 3.45  11 3.49  16 3.49  17 3.74   3 4.29
                             1 4.38   1 4.38
   6  0.328  0.250  0.084-  13 3.44  10 3.44  22 3.45  22 3.45  15 3.49  12 3.49  18 3.74   4 4.29
                             2 4.38   2 4.38
   7  0.128  0.250  0.398-  14 3.45   9 3.45  23 3.52  23 3.52  19 3.73  16 3.74  11 3.74  15 3.75
                            12 3.75  24 3.81   3 4.38   3 4.38   1 4.61
   8  0.260  0.750  0.602-  10 3.45  13 3.45  24 3.52  24 3.52  20 3.73  12 3.74  15 3.74  11 3.75
                            16 3.75  23 3.81   4 4.38   4 4.38   2 4.61
   9  0.073  0.072  0.144-  14 2.42  21 2.45  19 2.45   5 3.44   3 3.44   7 3.45
  10  0.315  0.928  0.856-  13 2.42  22 2.45  20 2.45   6 3.44   4 3.44   8 3.45
  11  0.115  0.930  0.659-  16 2.44  17 2.45  23 2.45   1 3.44   5 3.49   4 3.56   7 3.74   8 3.75

  12  0.273  0.070  0.341-  15 2.44  18 2.45  24 2.45   2 3.44   6 3.49   3 3.56   8 3.74   7 3.75

  13  0.315  0.572  0.856-  10 2.42  22 2.45  20 2.45   6 3.44   4 3.44   8 3.45
  14  0.073  0.428  0.144-   9 2.42  21 2.45  19 2.45   5 3.44   3 3.44   7 3.45
  15  0.273  0.430  0.341-  12 2.44  18 2.45  24 2.45   2 3.44   6 3.49   3 3.56   8 3.74   7 3.75

  16  0.115  0.570  0.659-  11 2.44  17 2.45  23 2.45   1 3.44   5 3.49   4 3.56   7 3.74   8 3.75

  17  0.031  0.750  0.599-  23 2.44  11 2.45  16 2.45   1 3.65   1 3.65   5 3.74
  18  0.357  0.250  0.401-  24 2.44  15 2.45  12 2.45   2 3.65   2 3.65   6 3.74
  19  0.157  0.250  0.082-  21 2.43  14 2.45   9 2.45   4 3.34   3 3.65   3 3.65   7 3.73
  20  0.231  0.750  0.918-  22 2.43  10 2.45  13 2.45   3 3.34   4 3.65   4 3.65   8 3.73
  21  0.074  0.250  0.961-  19 2.43  14 2.45   9 2.45   1 3.39   5 3.45   5 3.45   4 3.59
  22  0.314  0.750  0.039-  20 2.43  10 2.45  13 2.45   2 3.39   6 3.45   6 3.45   3 3.59
  23  0.113  0.750  0.476-  17 2.44  11 2.45  16 2.45   7 3.52   7 3.52   3 3.74   8 3.81
  24  0.274  0.250  0.524-  18 2.44  15 2.45  12 2.45   8 3.52   8 3.52   4 3.74   7 3.81
 
  LATTYP: Found a simple orthorhombic cell.
 ALAT       =     6.7778496742
 B/A-ratio  =     1.7117734747
 C/A-ratio  =     3.5423429602
  
  Lattice vectors:
  
 A1 = (   0.0000000000,   6.7778496742,   0.0000000000)
 A2 = (   0.0000000000,   0.0000000000, -11.6021432877)
 A3 = ( -24.0094680786,   0.0000000000,   0.0000000000)


Analysis of symmetry for initial positions (statically):
=====================================================================
 Subroutine PRICEL returns:
 Original cell was already a primitive cell.
 

 Routine SETGRP: Setting up the symmetry group for a 
 simple orthorhombic supercell.


 Subroutine GETGRP returns: Found  4 space group operations
 (whereof  1 operations were pure point group operations)
 out of a pool of  8 trial point group operations.


The static configuration has the point symmetry C_1 .
 The point group associated with its full space group is C_2h.


Analysis of symmetry for dynamics (positions and initial velocities):
=====================================================================
 Subroutine PRICEL returns:
 Original cell was already a primitive cell.
 

 Routine SETGRP: Setting up the symmetry group for a 
 simple orthorhombic supercell.


 Subroutine GETGRP returns: Found  4 space group operations
 (whereof  1 operations were pure point group operations)
 out of a pool of  8 trial point group operations.


The dynamic configuration has the point symmetry C_1 .
 The point group associated with its full space group is C_2h.


Analysis of constrained symmetry for selective dynamics:
=====================================================================
 Subroutine PRICEL returns:
 Original cell was already a primitive cell.
 

 Routine SETGRP: Setting up the symmetry group for a 
 simple orthorhombic supercell.


 Subroutine GETGRP returns: Found  4 space group operations
 (whereof  1 operations were pure point group operations)
 out of a pool of  8 trial point group operations.


The constrained configuration has the point symmetry C_1 .
 The point group associated with its full space group is C_2h.


 Subroutine INISYM returns: Found  4 space group operations
 (whereof  1 operations are pure point group operations),
 and found     1 'primitive' translations

 
 
 KPOINTS: k-density: 8.0                          

Automatic generation of k-mesh.
Space group operators:
 irot       det(A)        alpha          n_x          n_y          n_z        tau_x        tau_y        tau_z
    1     1.000000     0.000000     1.000000     0.000000     0.000000     0.000000     0.000000     0.000000
    2    -1.000000     0.000000     1.000000     0.000000     0.000000    -0.612258     0.000000     0.000000
    3     1.000000   180.000000     0.000000     1.000000     0.000000    -0.612258     0.500000     0.000000
    4    -1.000000   180.000000     0.000000     1.000000     0.000000     0.000000     0.500000     0.000000
 
 Subroutine IBZKPT returns following result:
 ===========================================
 
 Found     15 irreducible k-points:
 
 Following reciprocal coordinates:
            Coordinates               Weight
  0.000000  0.000000  0.000000      1.000000
  0.000000  0.125000  0.000000      2.000000
  0.000000  0.250000  0.000000      2.000000
  0.000000  0.375000  0.000000      2.000000
  0.000000  0.500000  0.000000      1.000000
  0.000000  0.000000  0.200000      2.000000
  0.000000  0.125000  0.200000      4.000000
  0.000000  0.250000  0.200000      4.000000
  0.000000  0.375000  0.200000      4.000000
  0.000000  0.500000  0.200000      2.000000
  0.000000  0.000000  0.400000      2.000000
  0.000000  0.125000  0.400000      4.000000
  0.000000  0.250000  0.400000      4.000000
  0.000000  0.375000  0.400000      4.000000
  0.000000  0.500000  0.400000      2.000000
 
 Following cartesian coordinates:
            Coordinates               Weight
  0.000000  0.000000  0.000000      1.000000
  0.000000  0.018442  0.000000      2.000000
  0.000000  0.036885  0.000000      2.000000
  0.000000  0.055327  0.000000      2.000000
  0.000000  0.073770  0.000000      1.000000
  0.000000  0.000000  0.017238      2.000000
  0.000000  0.018442  0.017238      4.000000
  0.000000  0.036885  0.017238      4.000000
  0.000000  0.055327  0.017238      4.000000
  0.000000  0.073770  0.017238      2.000000
  0.000000  0.000000  0.034476      2.000000
  0.000000  0.018442  0.034476      4.000000
  0.000000  0.036885  0.034476      4.000000
  0.000000  0.055327  0.034476      4.000000
  0.000000  0.073770  0.034476      2.000000
 
 TETIRR: Found    108 inequivalent tetrahedra from      240


--------------------------------------------------------------------------------------------------------




 Dimension of arrays:
   k-points           NKPTS =     15   k-points in BZ     NKDIM =     15   number of bands    NBANDS=     88
   number of dos      NEDOS =    301   number of ions     NIONS =     24
   non local maximal  LDIM  =      6   non local SUM 2l+1 LMDIM =     18
   total plane-waves  NPLWV = 358400
   max r-space proj   IRMAX =   3093   max aug-charges    IRDMAX=  12081
   dimension x,y,z NGX =   140 NGY =   40 NGZ =   64
   dimension x,y,z NGXF=   280 NGYF=   80 NGZF=  128
   support grid    NGXF=   280 NGYF=   80 NGZF=  128
   ions per type =               8  16
   NGX,Y,Z   is equivalent  to a cutoff of   9.69,  9.81,  9.17 a.u.
   NGXF,Y,Z  is equivalent  to a cutoff of  19.39, 19.62, 18.34 a.u.

 SYSTEM =  unknown system                          
 POSCAR =  ba8 si16                                

 Startparameter for this run:
   NWRITE =      2    write-flag & timer
   PREC   = normal    normal or accurate (medium, high low for compatibility)
   ISTART =      0    job   : 0-new  1-cont  2-samecut
   ICHARG =      2    charge: 1-file 2-atom 10-const
   ISPIN  =      1    spin polarized calculation?
   LNONCOLLINEAR =      F non collinear calculations
   LSORBIT =      F    spin-orbit coupling
   INIWAV =      1    electr: 0-lowe 1-rand  2-diag
   LASPH  =      T    aspherical Exc in radial PAW
   METAGGA=      F    non-selfconsistent MetaGGA calc.

 Electronic Relaxation 1
   ENCUT  =  500.0 eV  36.75 Ry    6.06 a.u.  43.77 12.36 21.15*2*pi/ulx,y,z
   ENINI  =  500.0     initial cutoff
   ENAUG  =  351.2 eV  augmentation charge cutoff
   NELM   =    100;   NELMIN=  2; NELMDL= -5     # of ELM steps 
   EDIFF  = 0.1E-05   stopping-criterion for ELM
   LREAL  =      T    real-space projection
   NLSPLINE    = F    spline interpolate recip. space projectors
   LCOMPAT=      F    compatible to vasp.4.4
   GGA_COMPAT  = T    GGA compatible to vasp.4.4-vasp.4.6
   LMAXPAW     = -100 max onsite density
   LMAXMIX     =    2 max onsite mixed and CHGCAR
   VOSKOWN=      0    Vosko Wilk Nusair interpolation
   ROPT   =   -0.00050  -0.00050
 Ionic relaxation
   EDIFFG = -.1E-02   stopping-criterion for IOM
   NSW    =      0    number of steps for IOM
   NBLOCK =      1;   KBLOCK =      1    inner block; outer block 
   IBRION =     -1    ionic relax: 0-MD 1-quasi-New 2-CG
   NFREE  =      0    steps in history (QN), initial steepest desc. (CG)
   ISIF   =      2    stress and relaxation
   IWAVPR =     10    prediction:  0-non 1-charg 2-wave 3-comb
   ISYM   =      2    0-nonsym 1-usesym 2-fastsym
   LCORR  =      T    Harris-Foulkes like correction to forces

   POTIM  = 0.3000    time-step for ionic-motion
   TEIN   =    0.0    initial temperature
   TEBEG  =    0.0;   TEEND  =   0.0 temperature during run
   SMASS  =  -3.00    Nose mass-parameter (am)
   estimated Nose-frequenzy (Omega)   =  0.10E-29 period in steps =****** mass=  -0.132E-25a.u.
   SCALEE = 1.0000    scale energy and forces
   NPACO  =    256;   APACO  = 16.0  distance and # of slots for P.C.
   PSTRESS=    0.0 pullay stress

  Mass of Ions in am
   POMASS = 137.33 28.09
  Ionic Valenz
   ZVAL   =  10.00  4.00
  Atomic Wigner-Seitz radii
   RWIGS  =  -1.00 -1.00
  virtual crystal weights 
   VCA    =   1.00  1.00
   NELECT =     144.0000    total number of electrons
   NUPDOWN=      -1.0000    fix difference up-down

 DOS related values:
   EMIN   =  10.00;   EMAX   =-10.00  energy-range for DOS
   EFERMI =   0.00
   ISMEAR =    -5;   SIGMA  =   0.01  broadening in eV -4-tet -1-fermi 0-gaus

 Electronic relaxation 2 (details)
   IALGO  =     38    algorithm
   LDIAG  =      T    sub-space diagonalisation (order eigenvalues)
   LSUBROT=      F    optimize rotation matrix (better conditioning)
   TURBO    =      0    0=normal 1=particle mesh
   IRESTART =      0    0=no restart 2=restart with 2 vectors
   NREBOOT  =      0    no. of reboots
   NMIN     =      0    reboot dimension
   EREF     =   0.00    reference energy to select bands
   IMIX   =      4    mixing-type and parameters
     AMIX     =   0.40;   BMIX     =  1.00
     AMIX_MAG =   1.60;   BMIX_MAG =  1.00
     AMIN     =   0.10
     WC   =   100.;   INIMIX=   1;  MIXPRE=   1;  MAXMIX= -45

 Intra band minimization:
   WEIMIN = 0.0000     energy-eigenvalue tresh-hold
   EBREAK =  0.28E-08  absolut break condition
   DEPER  =   0.30     relativ break condition  

   TIME   =   0.40     timestep for ELM

  volume/ion in A,a.u.               =      78.67       530.88
  Fermi-wavevector in a.u.,A,eV,Ry     =   0.694264  1.311969  6.558046  0.482003
  Thomas-Fermi vector in A             =   1.776709
 
 Write flags
   LWAVE        =      T    write WAVECAR
   LDOWNSAMPLE  =      F    k-point downsampling of WAVECAR
   LCHARG       =      T    write CHGCAR
   LVTOT        =      F    write LOCPOT, total local potential
   LVHAR        =      F    write LOCPOT, Hartree potential only
   LELF         =      F    write electronic localiz. function (ELF)
   LORBIT       =      0    0 simple, 1 ext, 2 COOP (PROOUT), +10 PAW based schemes


 Dipole corrections
   LMONO  =      F    monopole corrections only (constant potential shift)
   LDIPOL =      F    correct potential (dipole corrections)
   IDIPOL =      0    1-x, 2-y, 3-z, 4-all directions 
   EPSILON=  1.0000000 bulk dielectric constant

 Exchange correlation treatment:
   GGA     =    BO    GGA type
   LEXCH   =    42    internal setting for exchange type
   VOSKOWN=      0    Vosko Wilk Nusair interpolation
   LHFCALC =     F    Hartree Fock is set to
   LHFONE  =     F    Hartree Fock one center treatment
   AEXX    =    0.0000 exact exchange contribution

 vdW DFT:
   LUSE_VDW   =     T    switch on vdW DFT
   Zab_VDW    =-.8491    correlation parameter
   PARAM1     =0.1833
   PARAM2     =0.2200
   PARAM3     =0.0000
   -- rVV10 --
   BPARAM     = 6.3000
   CPARAM     = 0.0093

 Linear response parameters
   LEPSILON=     F    determine dielectric tensor
   LRPA    =     F    only Hartree local field effects (RPA)
   LNABLA  =     F    use nabla operator in PAW spheres
   LVEL    =     F    velocity operator in full k-point grid
   LINTERFAST=   F  fast interpolation
   KINTER  =     0    interpolate to denser k-point grid
   CSHIFT  =0.1000    complex shift for real part using Kramers Kronig
   OMEGAMAX=  -1.0    maximum frequency
   DEG_THRESHOLD= 0.2000000E-02 threshold for treating states as degnerate
   RTIME   =   -0.100 relaxation time in fs
  (WPLASMAI=    0.000 imaginary part of plasma frequency in eV, 0.658/RTIME)
   DFIELD  = 0.0000000 0.0000000 0.0000000 field for delta impulse in time
 
 Orbital magnetization related:
   ORBITALMAG=     F  switch on orbital magnetization
   LCHIMAG   =     F  perturbation theory with respect to B field
   DQ        =  0.001000  dq finite difference perturbation B field
   LLRAUG    =     F  two centre corrections for induced B field



--------------------------------------------------------------------------------------------------------


 Static calculation
 charge density and potential will be updated during run
 non-spin polarized calculation
 Variant of blocked Davidson
 Davidson routine will perform the subspace rotation
 perform sub-space diagonalisation
    after iterative eigenvector-optimisation
 modified Broyden-mixing scheme, WC =      100.0
 initial mixing is a Kerker type mixing with AMIX =  0.4000 and BMIX =      1.0000
 Hartree-type preconditioning will be used
 using additional bands           16
 real space projection scheme for non local part
 use partial core corrections
 calculate Harris-corrections to forces 
   (improved forces if not selfconsistent)
 use gradient corrections 
 use of overlap-Matrix (Vanderbilt PP)
 Fermi weights with tetrahedron method with Bloechl corrections


--------------------------------------------------------------------------------------------------------


  energy-cutoff  :      500.00
  volume of cell :     1888.05
      direct lattice vectors                 reciprocal lattice vectors
    24.009468079  0.000000000  0.000000000     0.041650236  0.000000000  0.000000000
     0.000000000  6.777849674  0.000000000     0.000000000  0.147539419  0.000000000
     0.000000000  0.000000000 11.602143288     0.000000000  0.000000000  0.086190971

  length of vectors
    24.009468079  6.777849674 11.602143288     0.041650236  0.147539419  0.086190971


 
 k-points in units of 2pi/SCALE and weight: k-density: 8.0                          
   0.00000000  0.00000000  0.00000000       0.025
   0.00000000  0.01844243  0.00000000       0.050
   0.00000000  0.03688485  0.00000000       0.050
   0.00000000  0.05532728  0.00000000       0.050
   0.00000000  0.07376971  0.00000000       0.025
   0.00000000  0.00000000  0.01723819       0.050
   0.00000000  0.01844243  0.01723819       0.100
   0.00000000  0.03688485  0.01723819       0.100
   0.00000000  0.05532728  0.01723819       0.100
   0.00000000  0.07376971  0.01723819       0.050
   0.00000000  0.00000000  0.03447639       0.050
   0.00000000  0.01844243  0.03447639       0.100
   0.00000000  0.03688485  0.03447639       0.100
   0.00000000  0.05532728  0.03447639       0.100
   0.00000000  0.07376971  0.03447639       0.050
 
 k-points in reciprocal lattice and weights: k-density: 8.0                          
   0.00000000  0.00000000  0.00000000       0.025
   0.00000000  0.12500000  0.00000000       0.050
   0.00000000  0.25000000  0.00000000       0.050
   0.00000000  0.37500000  0.00000000       0.050
   0.00000000  0.50000000  0.00000000       0.025
   0.00000000  0.00000000  0.20000000       0.050
   0.00000000  0.12500000  0.20000000       0.100
   0.00000000  0.25000000  0.20000000       0.100
   0.00000000  0.37500000  0.20000000       0.100
   0.00000000  0.50000000  0.20000000       0.050
   0.00000000  0.00000000  0.40000000       0.050
   0.00000000  0.12500000  0.40000000       0.100
   0.00000000  0.25000000  0.40000000       0.100
   0.00000000  0.37500000  0.40000000       0.100
   0.00000000  0.50000000  0.40000000       0.050
 
 position of ions in fractional coordinates (direct lattice) 
   0.00569361  0.25000000  0.70467294
   0.38204792  0.75000002  0.29532706
   0.18192962  0.75000002  0.18669745
   0.20581192  0.25000000  0.81330253
   0.05978014  0.75000002  0.91638636
   0.32796140  0.25000000  0.08361362
   0.12784309  0.25000000  0.39820360
   0.25989845  0.75000002  0.60179644
   0.07289913  0.07178123  0.14401962
   0.31484240  0.92821876  0.85598035
   0.11472410  0.92965487  0.65892267
   0.27301744  0.07034512  0.34107733
   0.31484240  0.57178124  0.85598035
   0.07289913  0.42821876  0.14401962
   0.27301744  0.42965487  0.34107733
   0.11472410  0.57034513  0.65892267
   0.03110981  0.75000002  0.59922191
   0.35663172  0.25000000  0.40077809
   0.15651343  0.25000000  0.08232984
   0.23122812  0.75000002  0.91767014
   0.07418398  0.25000000  0.96064454
   0.31355756  0.75000002  0.03935548
   0.11343925  0.75000002  0.47576599
   0.27430228  0.25000000  0.52423393
 
 position of ions in cartesian coordinates  (Angst):
   0.13670066  1.69446242  8.17571638
   9.17276745  5.08338737  3.42642691
   4.36803341  5.08338737  2.16609059
   4.94143467  1.69446242  9.43605246
   1.43528938  5.08338737 10.63204581
   7.87417870  1.69446242  0.97009724
   3.06944466  1.69446242  4.62001521
   6.24002342  5.08338737  6.98212855
   1.75026941  0.48652236  1.67093632
   7.55919867  6.29132725  9.93120673
   2.75446463  6.30106094  7.64491519
   6.55500345  0.47678867  3.95722810
   7.55919867  3.87544726  9.93120673
   1.75026941  2.90240241  1.67093632
   6.55500345  2.91213610  3.95722810
   2.75446463  3.86571357  7.64491519
   0.74692994  5.08338737  6.95225844
   8.56253796  1.69446242  4.64988485
   3.75780416  1.69446242  0.95520261
   5.55166416  5.08338737 10.64694044
   1.78111780  1.69446242 11.14553555
   7.52835016  5.08338737  0.45660791
   2.72361612  5.08338737  5.51990520
   6.58585195  1.69446242  6.08223714
 


--------------------------------------------------------------------------------------------------------


 k-point  1 :   0.0000 0.0000 0.0000  plane waves:   47989
 k-point  2 :   0.0000 0.1250 0.0000  plane waves:   47929
 k-point  3 :   0.0000 0.2500 0.0000  plane waves:   47901
 k-point  4 :   0.0000 0.3750 0.0000  plane waves:   47910
 k-point  5 :   0.0000 0.5000 0.0000  plane waves:   47868
 k-point  6 :   0.0000 0.0000 0.2000  plane waves:   48006
 k-point  7 :   0.0000 0.1250 0.2000  plane waves:   47967
 k-point  8 :   0.0000 0.2500 0.2000  plane waves:   47907
 k-point  9 :   0.0000 0.3750 0.2000  plane waves:   47884
 k-point 10 :   0.0000 0.5000 0.2000  plane waves:   47884
 k-point 11 :   0.0000 0.0000 0.4000  plane waves:   47922
 k-point 12 :   0.0000 0.1250 0.4000  plane waves:   47954
 k-point 13 :   0.0000 0.2500 0.4000  plane waves:   47967
 k-point 14 :   0.0000 0.3750 0.4000  plane waves:   47928
 k-point 15 :   0.0000 0.5000 0.4000  plane waves:   47890

 maximum and minimum number of plane-waves per node :     12077    11868

 maximum number of plane-waves:     48006
 maximum index in each direction: 
   IXMAX=   43   IYMAX=   12   IZMAX=   21
   IXMIN=  -43   IYMIN=  -12   IZMIN=  -21


 real space projection operators:
  total allocation   :       4531.19 KBytes
  max/ min on nodes  :       1138.48       1127.09


 parallel 3D FFT for wavefunctions:
    minimum data exchange during FFTs selected (reduces bandwidth)
 parallel 3D FFT for charge:
    minimum data exchange during FFTs selected (reduces bandwidth)


 total amount of memory used by VASP MPI-rank0    79351. kBytes
=======================================================================

   base      :      30000. kBytes
   nonlr-proj:       2645. kBytes
   fftplans  :       5898. kBytes
   grid      :       8824. kBytes
   one-center:         93. kBytes
   wavefun   :      31891. kBytes
 
     INWAV:  cpu time    0.0000: real time    0.0000
 Broyden mixing: mesh for mixing (old mesh)
   NGX = 87   NGY = 25   NGZ = 43
  (NGX  =280   NGY  = 80   NGZ  =128)
  gives a total of  93525 points

 initial charge density was supplied:
 charge density of overlapping atoms calculated
 number of electron     144.0000000 magnetization 
 keeping initial charge density in first step


--------------------------------------------------------------------------------------------------------


 Maximum index for non-local projection operator          742
 Maximum index for augmentation-charges          603 (set IRDMAX)


--------------------------------------------------------------------------------------------------------


 First call to EWALD:  gamma=   0.143
 Maximum number of real-space cells 2x 5x 3
 Maximum number of reciprocal cells 5x 2x 3

    FEWALD:  cpu time    0.0167: real time    0.0167


--------------------------------------- Iteration      1(   1)  ---------------------------------------


    POTLOK:  cpu time13417.8855: real time13449.5736
    SETDIJ:  cpu time  707.5310: real time  709.2090
     EDDAV:  cpu time    2.6618: real time    2.9102
 BZINTS: Fermi energy:  6.784693;144.000000 electrons
         Band energy:-481.341104;  BLOECHL correction: -0.030640
       DOS:  cpu time    0.0124: real time    0.0243
    --------------------------------------------
      LOOP:  cpu time14128.0906: real time14161.7172

 eigenvalue-minimisations  :  2768
 total energy-change (2. order) : 0.1194127E+04  (-0.4770637E+04)
 number of electron     144.0000000 magnetization 
 augmentation part      144.0000000 magnetization 

 Free energy of the ion-electron system (eV)
  ---------------------------------------------------
  alpha Z        PSCENC =       170.45750602
  Ewald energy   TEWEN  =     11638.67556054
  -Hartree energ DENC   =    -17757.61955805
  -exchange      EXHF   =         0.00000000
  -V(xc)+E(xc)   XCENC  =        29.16428137
  PAW double counting   =      3700.71972520    -3383.50420208
  entropy T*S    EENTRO =         0.00000000
  eigenvalues    EBANDS =      -481.34110365
  atomic energy  EATOM  =      7277.57480299
  Solvation  Ediel_sol  =         0.00000000
  ---------------------------------------------------
  free energy    TOTEN  =      1194.12701233 eV

  energy without entropy =     1194.12701233  energy(sigma->0) =     1194.12701233


--------------------------------------------------------------------------------------------------------




--------------------------------------- Iteration      1(   2)  ---------------------------------------


     EDDAV:  cpu time    3.5180: real time    3.5589
 BZINTS: Fermi energy: -2.017016;144.000000 electrons
         Band energy:***********;  BLOECHL correction:  0.000000
       DOS:  cpu time    0.0024: real time    0.0024
    --------------------------------------------
      LOOP:  cpu time    3.5204: real time    3.5613

 eigenvalue-minimisations  :  3864
 total energy-change (2. order) :-0.1121815E+04  (-0.1093684E+04)
 number of electron     144.0000000 magnetization 
 augmentation part      144.0000000 magnetization 

 Free energy of the ion-electron system (eV)
  ---------------------------------------------------
  alpha Z        PSCENC =       170.45750602
  Ewald energy   TEWEN  =     11638.67556054
  -Hartree energ DENC   =    -17757.61955805
  -exchange      EXHF   =         0.00000000
  -V(xc)+E(xc)   XCENC  =        29.16428137
  PAW double counting   =      3700.71972520    -3383.50420208
  entropy T*S    EENTRO =         0.00000000
  eigenvalues    EBANDS =     -1603.15595982
  atomic energy  EATOM  =      7277.57480299
  Solvation  Ediel_sol  =         0.00000000
  ---------------------------------------------------
  free energy    TOTEN  =        72.31215617 eV

  energy without entropy =       72.31215617  energy(sigma->0) =       72.31215617


--------------------------------------------------------------------------------------------------------




--------------------------------------- Iteration      1(   3)  ---------------------------------------


     EDDAV:  cpu time    3.0469: real time    3.1769
 BZINTS: Fermi energy: -3.352638;144.000000 electrons
         Band energy:***********;  BLOECHL correction:  0.000000
       DOS:  cpu time    0.0029: real time    0.0029
    --------------------------------------------
      LOOP:  cpu time    3.0498: real time    3.1799

 eigenvalue-minimisations  :  3216
 total energy-change (2. order) :-0.1686491E+03  (-0.1679785E+03)
 number of electron     144.0000000 magnetization 
 augmentation part      144.0000000 magnetization 

 Free energy of the ion-electron system (eV)
  ---------------------------------------------------
  alpha Z        PSCENC =       170.45750602
  Ewald energy   TEWEN  =     11638.67556054
  -Hartree energ DENC   =    -17757.61955805
  -exchange      EXHF   =         0.00000000
  -V(xc)+E(xc)   XCENC  =        29.16428137
  PAW double counting   =      3700.71972520    -3383.50420208
  entropy T*S    EENTRO =         0.00000000
  eigenvalues    EBANDS =     -1771.80503392
  atomic energy  EATOM  =      7277.57480299
  Solvation  Ediel_sol  =         0.00000000
  ---------------------------------------------------
  free energy    TOTEN  =       -96.33691793 eV

  energy without entropy =      -96.33691793  energy(sigma->0) =      -96.33691793


--------------------------------------------------------------------------------------------------------




--------------------------------------- Iteration      1(   4)  ---------------------------------------


     EDDAV:  cpu time    3.3854: real time    3.4052
 BZINTS: Fermi energy: -3.424602;144.000000 electrons
         Band energy:***********;  BLOECHL correction:  0.000000
       DOS:  cpu time    0.0020: real time    0.0020
    --------------------------------------------
      LOOP:  cpu time    3.3874: real time    3.4073

 eigenvalue-minimisations  :  3768
 total energy-change (2. order) :-0.6005434E+01  (-0.5988848E+01)
 number of electron     144.0000000 magnetization 
 augmentation part      144.0000000 magnetization 

 Free energy of the ion-electron system (eV)
  ---------------------------------------------------
  alpha Z        PSCENC =       170.45750602
  Ewald energy   TEWEN  =     11638.67556054
  -Hartree energ DENC   =    -17757.61955805
  -exchange      EXHF   =         0.00000000
  -V(xc)+E(xc)   XCENC  =        29.16428137
  PAW double counting   =      3700.71972520    -3383.50420208
  entropy T*S    EENTRO =         0.00000000
  eigenvalues    EBANDS =     -1777.81046792
  atomic energy  EATOM  =      7277.57480299
  Solvation  Ediel_sol  =         0.00000000
  ---------------------------------------------------
  free energy    TOTEN  =      -102.34235194 eV

  energy without entropy =     -102.34235194  energy(sigma->0) =     -102.34235194


--------------------------------------------------------------------------------------------------------




--------------------------------------- Iteration      1(   5)  ---------------------------------------


     EDDAV:  cpu time    3.5862: real time    3.6064
 BZINTS: Fermi energy: -3.406458;144.000000 electrons
         Band energy:***********;  BLOECHL correction:  0.000000
       DOS:  cpu time    0.0023: real time    0.0023
    CHARGE:  cpu time    0.1631: real time    0.1828
    MIXING:  cpu time    0.0068: real time    0.0085
    --------------------------------------------
      LOOP:  cpu time    3.7584: real time    3.8000

 eigenvalue-minimisations  :  4176
 total energy-change (2. order) :-0.2679343E+00  (-0.2678521E+00)
 number of electron     143.9999986 magnetization 
 augmentation part      -17.7634586 magnetization 

 Broyden mixing:
  rms(total) = 0.92560E+00    rms(broyden)= 0.92559E+00
  rms(prec ) = 0.12016E+01
  weight for this iteration     100.00

 Free energy of the ion-electron system (eV)
  ---------------------------------------------------
  alpha Z        PSCENC =       170.45750602
  Ewald energy   TEWEN  =     11638.67556054
  -Hartree energ DENC   =    -17757.61955805
  -exchange      EXHF   =         0.00000000
  -V(xc)+E(xc)   XCENC  =        29.16428137
  PAW double counting   =      3700.71972520    -3383.50420208
  entropy T*S    EENTRO =         0.00000000
  eigenvalues    EBANDS =     -1778.07840227
  atomic energy  EATOM  =      7277.57480299
  Solvation  Ediel_sol  =         0.00000000
  ---------------------------------------------------
  free energy    TOTEN  =      -102.61028628 eV

  energy without entropy =     -102.61028628  energy(sigma->0) =     -102.61028628


--------------------------------------------------------------------------------------------------------




--------------------------------------- Iteration      1(   6)  ---------------------------------------


    POTLOK:  cpu time    2.4069: real time    2.4237
    SETDIJ:  cpu time    0.2693: real time    0.2699
     EDDAV:  cpu time    2.8082: real time    2.8148
 BZINTS: Fermi energy: -2.293352;144.000000 electrons
         Band energy:***********;  BLOECHL correction:  0.000000
       DOS:  cpu time    0.0030: real time    0.0030
    CHARGE:  cpu time    0.1409: real time    0.1412
    MIXING:  cpu time    0.0096: real time    0.0097
    --------------------------------------------
      LOOP:  cpu time    5.6379: real time    5.6623

 eigenvalue-minimisations  :  3024
 total energy-change (2. order) : 0.8342091E+01  (-0.2103724E+01)
 number of electron     143.9999986 magnetization 
 augmentation part      -17.6289878 magnetization 

 Broyden mixing:
  rms(total) = 0.47188E+00    rms(broyden)= 0.47188E+00
  rms(prec ) = 0.59002E+00
  weight for this iteration     100.00

 eigenvalues of (default mixing * dielectric matrix)
  average eigenvalue GAMMA=   1.5424
  1.5424

 Free energy of the ion-electron system (eV)
  ---------------------------------------------------
  alpha Z        PSCENC =       170.45750602
  Ewald energy   TEWEN  =     11638.67556054
  -Hartree energ DENC   =    -17851.60908535
  -exchange      EXHF   =         0.00000000
  -V(xc)+E(xc)   XCENC  =        32.02824268
  PAW double counting   =      3735.89401214    -3425.84901699
  entropy T*S    EENTRO =         0.00000000
  eigenvalues    EBANDS =     -1671.44021705
  atomic energy  EATOM  =      7277.57480299
  Solvation  Ediel_sol  =         0.00000000
  ---------------------------------------------------
  free energy    TOTEN  =       -94.26819501 eV

  energy without entropy =      -94.26819501  energy(sigma->0) =      -94.26819501


--------------------------------------------------------------------------------------------------------




--------------------------------------- Iteration      1(   7)  ---------------------------------------


    POTLOK:  cpu time    2.3994: real time    2.4157
    SETDIJ:  cpu time    0.3086: real time    0.3094
     EDDAV:  cpu time    3.1046: real time    3.1120
 BZINTS: Fermi energy: -1.446855;144.000000 electrons
         Band energy:***********;  BLOECHL correction:  0.000000
       DOS:  cpu time    0.0022: real time    0.0022
    CHARGE:  cpu time    0.1629: real time    0.1633
    MIXING:  cpu time    0.0075: real time    0.0078
    --------------------------------------------
      LOOP:  cpu time    5.9852: real time    6.0102

 eigenvalue-minimisations  :  3480
 total energy-change (2. order) : 0.1239501E+01  (-0.1025930E+01)
 number of electron     143.9999985 magnetization 
 augmentation part      -17.6853921 magnetization 

 Broyden mixing:
  rms(total) = 0.25085E+00    rms(broyden)= 0.25085E+00
  rms(prec ) = 0.29905E+00
  weight for this iteration     100.00

 eigenvalues of (default mixing * dielectric matrix)
  average eigenvalue GAMMA=   1.8617
  1.8617  1.8617

 Free energy of the ion-electron system (eV)
  ---------------------------------------------------
  alpha Z        PSCENC =       170.45750602
  Ewald energy   TEWEN  =     11638.67556054
  -Hartree energ DENC   =    -17929.37266272
  -exchange      EXHF   =         0.00000000
  -V(xc)+E(xc)   XCENC  =        34.39684621
  PAW double counting   =      3781.82377263    -3477.57306148
  entropy T*S    EENTRO =         0.00000000
  eigenvalues    EBANDS =     -1589.01145863
  atomic energy  EATOM  =      7277.57480299
  Solvation  Ediel_sol  =         0.00000000
  ---------------------------------------------------
  free energy    TOTEN  =       -93.02869443 eV

  energy without entropy =      -93.02869443  energy(sigma->0) =      -93.02869443


--------------------------------------------------------------------------------------------------------




--------------------------------------- Iteration      1(   8)  ---------------------------------------


    POTLOK:  cpu time    2.3884: real time    2.4055
    SETDIJ:  cpu time    0.2634: real time    0.2640
     EDDAV:  cpu time    2.8013: real time    2.8081
 BZINTS: Fermi energy: -1.335007;144.000000 electrons
         Band energy:***********;  BLOECHL correction:  0.000000
       DOS:  cpu time    0.0030: real time    0.0030
    CHARGE:  cpu time    0.1527: real time    0.1531
    MIXING:  cpu time    0.0060: real time    0.0064
    --------------------------------------------
      LOOP:  cpu time    5.6148: real time    5.6401

 eigenvalue-minimisations  :  3120
 total energy-change (2. order) : 0.2336891E+00  (-0.3740199E+00)
 number of electron     143.9999985 magnetization 
 augmentation part      -17.8034834 magnetization 

 Broyden mixing:
  rms(total) = 0.12091E+00    rms(broyden)= 0.12091E+00
  rms(prec ) = 0.19286E+00
  weight for this iteration     100.00

 eigenvalues of (default mixing * dielectric matrix)
  average eigenvalue GAMMA=   1.6898
  2.6634  1.2030  1.2030

 Free energy of the ion-electron system (eV)
  ---------------------------------------------------
  alpha Z        PSCENC =       170.45750602
  Ewald energy   TEWEN  =     11638.67556054
  -Hartree energ DENC   =    -17961.83844392
  -exchange      EXHF   =         0.00000000
  -V(xc)+E(xc)   XCENC  =        35.39539898
  PAW double counting   =      3831.89711017    -3529.40561360
  entropy T*S    EENTRO =         0.00000000
  eigenvalues    EBANDS =     -1555.55132649
  atomic energy  EATOM  =      7277.57480299
  Solvation  Ediel_sol  =         0.00000000
  ---------------------------------------------------
  free energy    TOTEN  =       -92.79500531 eV

  energy without entropy =      -92.79500531  energy(sigma->0) =      -92.79500531


--------------------------------------------------------------------------------------------------------




--------------------------------------- Iteration      1(   9)  ---------------------------------------


    POTLOK:  cpu time    2.3855: real time    2.4040
    SETDIJ:  cpu time    0.2369: real time    0.2375
     EDDAV:  cpu time    2.8798: real time    2.8867
 BZINTS: Fermi energy: -0.900596;144.000000 electrons
         Band energy:***********;  BLOECHL correction:  0.000000
       DOS:  cpu time    0.0035: real time    0.0036
    CHARGE:  cpu time    0.1521: real time    0.1525
    MIXING:  cpu time    0.0066: real time    0.0067
    --------------------------------------------
      LOOP:  cpu time    5.6645: real time    5.6909

 eigenvalue-minimisations  :  3104
 total energy-change (2. order) : 0.2891601E+00  (-0.1165841E+00)
 number of electron     143.9999985 magnetization 
 augmentation part      -17.7664717 magnetization 

 Broyden mixing:
  rms(total) = 0.55169E-01    rms(broyden)= 0.55169E-01
  rms(prec ) = 0.78047E-01
  weight for this iteration     100.00

 eigenvalues of (default mixing * dielectric matrix)
  average eigenvalue GAMMA=   1.4094
  2.6030  1.2138  1.2138  0.6069

 Free energy of the ion-electron system (eV)
  ---------------------------------------------------
  alpha Z        PSCENC =       170.45750602
  Ewald energy   TEWEN  =     11638.67556054
  -Hartree energ DENC   =    -18002.05656412
  -exchange      EXHF   =         0.00000000
  -V(xc)+E(xc)   XCENC  =        36.36649313
  PAW double counting   =      3843.65650385    -3542.54670303
  entropy T*S    EENTRO =         0.00000000
  eigenvalues    EBANDS =     -1514.63344457
  atomic energy  EATOM  =      7277.57480299
  Solvation  Ediel_sol  =         0.00000000
  ---------------------------------------------------
  free energy    TOTEN  =       -92.50584520 eV

  energy without entropy =      -92.50584520  energy(sigma->0) =      -92.50584520


--------------------------------------------------------------------------------------------------------




--------------------------------------- Iteration      1(  10)  ---------------------------------------


    POTLOK:  cpu time    2.4094: real time    2.4255
    SETDIJ:  cpu time    0.3167: real time    0.3174
     EDDAV:  cpu time    3.1577: real time    3.1652
 BZINTS: Fermi energy: -0.855504;144.000000 electrons
         Band energy:***********;  BLOECHL correction:  0.000000
       DOS:  cpu time    0.0025: real time    0.0025
    CHARGE:  cpu time    0.1449: real time    0.1452
    MIXING:  cpu time    0.0059: real time    0.0060
    --------------------------------------------
      LOOP:  cpu time    6.0371: real time    6.0619

 eigenvalue-minimisations  :  3608
 total energy-change (2. order) : 0.1155284E-01  (-0.2579311E-01)
 number of electron     143.9999985 magnetization 
 augmentation part      -17.7786105 magnetization 

 Broyden mixing:
  rms(total) = 0.41383E-01    rms(broyden)= 0.41383E-01
  rms(prec ) = 0.61184E-01
  weight for this iteration     100.00

 eigenvalues of (default mixing * dielectric matrix)
  average eigenvalue GAMMA=   1.5599
  2.5826  2.1672  1.1811  0.9344  0.9344

 Free energy of the ion-electron system (eV)
  ---------------------------------------------------
  alpha Z        PSCENC =       170.45750602
  Ewald energy   TEWEN  =     11638.67556054
  -Hartree energ DENC   =    -18010.72546747
  -exchange      EXHF   =         0.00000000
  -V(xc)+E(xc)   XCENC  =        36.38723580
  PAW double counting   =      3838.55400746    -3537.15636595
  entropy T*S    EENTRO =         0.00000000
  eigenvalues    EBANDS =     -1506.26157175
  atomic energy  EATOM  =      7277.57480299
  Solvation  Ediel_sol  =         0.00000000
  ---------------------------------------------------
  free energy    TOTEN  =       -92.49429235 eV

  energy without entropy =      -92.49429235  energy(sigma->0) =      -92.49429235


--------------------------------------------------------------------------------------------------------




--------------------------------------- Iteration      1(  11)  ---------------------------------------


    POTLOK:  cpu time    2.3861: real time    2.4024
    SETDIJ:  cpu time    0.2967: real time    0.2974
     EDDAV:  cpu time    2.8894: real time    2.8963
 BZINTS: Fermi energy: -0.837096;144.000000 electrons
         Band energy:***********;  BLOECHL correction:  0.000000
       DOS:  cpu time    0.0021: real time    0.0021
    CHARGE:  cpu time    0.1670: real time    0.1674
    MIXING:  cpu time    0.0059: real time    0.0059
    --------------------------------------------
      LOOP:  cpu time    5.7471: real time    5.7715

 eigenvalue-minimisations  :  3240
 total energy-change (2. order) : 0.3000150E-01  (-0.6501499E-02)
 number of electron     143.9999985 magnetization 
 augmentation part      -17.7858552 magnetization 

 Broyden mixing:
  rms(total) = 0.16088E-01    rms(broyden)= 0.16088E-01
  rms(prec ) = 0.31723E-01
  weight for this iteration     100.00

 eigenvalues of (default mixing * dielectric matrix)
  average eigenvalue GAMMA=   1.6003
  2.7887  2.7887  1.1661  1.0086  0.9250  0.9250

 Free energy of the ion-electron system (eV)
  ---------------------------------------------------
  alpha Z        PSCENC =       170.45750602
  Ewald energy   TEWEN  =     11638.67556054
  -Hartree energ DENC   =    -18026.11882573
  -exchange      EXHF   =         0.00000000
  -V(xc)+E(xc)   XCENC  =        36.53791531
  PAW double counting   =      3839.39053269    -3537.71727764
  entropy T*S    EENTRO =         0.00000000
  eigenvalues    EBANDS =     -1491.26450504
  atomic energy  EATOM  =      7277.57480299
  Solvation  Ediel_sol  =         0.00000000
  ---------------------------------------------------
  free energy    TOTEN  =       -92.46429086 eV

  energy without entropy =      -92.46429086  energy(sigma->0) =      -92.46429086


--------------------------------------------------------------------------------------------------------




--------------------------------------- Iteration      1(  12)  ---------------------------------------


    POTLOK:  cpu time    2.4005: real time    2.4164
    SETDIJ:  cpu time    0.1659: real time    0.1663
     EDDAV:  cpu time    3.0346: real time    3.0419
 BZINTS: Fermi energy: -0.757645;144.000000 electrons
         Band energy:***********;  BLOECHL correction:  0.000000
       DOS:  cpu time    0.0021: real time    0.0021
    CHARGE:  cpu time    0.1420: real time    0.1424
    MIXING:  cpu time    0.0052: real time    0.0052
    --------------------------------------------
      LOOP:  cpu time    5.7503: real time    5.7743

 eigenvalue-minimisations  :  3336
 total energy-change (2. order) :-0.1607439E-01  (-0.1515476E-02)
 number of electron     143.9999985 magnetization 
 augmentation part      -17.7814229 magnetization 

 Broyden mixing:
  rms(total) = 0.11819E-01    rms(broyden)= 0.11819E-01
  rms(prec ) = 0.20527E-01
  weight for this iteration     100.00

 eigenvalues of (default mixing * dielectric matrix)
  average eigenvalue GAMMA=   1.7143
  3.4363  2.6056  1.9531  1.1247  1.1247  0.8779  0.8779

 Free energy of the ion-electron system (eV)
  ---------------------------------------------------
  alpha Z        PSCENC =       170.45750602
  Ewald energy   TEWEN  =     11638.67556054
  -Hartree energ DENC   =    -18038.27419568
  -exchange      EXHF   =         0.00000000
  -V(xc)+E(xc)   XCENC  =        36.56687061
  PAW double counting   =      3836.70586778    -3534.83107917
  entropy T*S    EENTRO =         0.00000000
  eigenvalues    EBANDS =     -1479.35569834
  atomic energy  EATOM  =      7277.57480299
  Solvation  Ediel_sol  =         0.00000000
  ---------------------------------------------------
  free energy    TOTEN  =       -92.48036525 eV

  energy without entropy =      -92.48036525  energy(sigma->0) =      -92.48036525


--------------------------------------------------------------------------------------------------------




--------------------------------------- Iteration      1(  13)  ---------------------------------------


    POTLOK:  cpu time    2.3972: real time    2.4138
    SETDIJ:  cpu time    0.3093: real time    0.3101
     EDDAV:  cpu time    2.9872: real time    2.9943
 BZINTS: Fermi energy: -0.611205;144.000000 electrons
         Band energy:***********;  BLOECHL correction:  0.000000
       DOS:  cpu time    0.0025: real time    0.0025
    CHARGE:  cpu time    0.1573: real time    0.1577
    MIXING:  cpu time    0.0116: real time    0.0117
    --------------------------------------------
      LOOP:  cpu time    5.8652: real time    5.8900

 eigenvalue-minimisations  :  3256
 total energy-change (2. order) : 0.8912009E-02  (-0.8242507E-03)
 number of electron     143.9999985 magnetization 
 augmentation part      -17.7817377 magnetization 

 Broyden mixing:
  rms(total) = 0.61511E-02    rms(broyden)= 0.61511E-02
  rms(prec ) = 0.10673E-01
  weight for this iteration     100.00

 eigenvalues of (default mixing * dielectric matrix)
  average eigenvalue GAMMA=   1.7834
  4.0344  2.7905  2.3956  1.2135  1.2135  0.8880  0.8658  0.8658

 Free energy of the ion-electron system (eV)
  ---------------------------------------------------
  alpha Z        PSCENC =       170.45750602
  Ewald energy   TEWEN  =     11638.67556054
  -Hartree energ DENC   =    -18047.84419312
  -exchange      EXHF   =         0.00000000
  -V(xc)+E(xc)   XCENC  =        36.63448346
  PAW double counting   =      3835.37888308    -3533.60676832
  entropy T*S    EENTRO =         0.00000000
  eigenvalues    EBANDS =     -1469.74172789
  atomic energy  EATOM  =      7277.57480299
  Solvation  Ediel_sol  =         0.00000000
  ---------------------------------------------------
  free energy    TOTEN  =       -92.47145324 eV

  energy without entropy =      -92.47145324  energy(sigma->0) =      -92.47145324


--------------------------------------------------------------------------------------------------------




--------------------------------------- Iteration      1(  14)  ---------------------------------------


    POTLOK:  cpu time    2.3974: real time    2.4137
    SETDIJ:  cpu time    0.3195: real time    0.3202
     EDDAV:  cpu time    2.8004: real time    2.8071
 BZINTS: Fermi energy: -0.590055;144.000000 electrons
         Band energy:***********;  BLOECHL correction:  0.000000
       DOS:  cpu time    0.0024: real time    0.0024
    CHARGE:  cpu time    0.1663: real time    0.1667
    MIXING:  cpu time    0.0077: real time    0.0078
    --------------------------------------------
      LOOP:  cpu time    5.6937: real time    5.7178

 eigenvalue-minimisations  :  3072
 total energy-change (2. order) : 0.5441348E-02  (-0.2740372E-03)
 number of electron     143.9999985 magnetization 
 augmentation part      -17.7826767 magnetization 

 Broyden mixing:
  rms(total) = 0.52108E-02    rms(broyden)= 0.52108E-02
  rms(prec ) = 0.83711E-02
  weight for this iteration     100.00

 eigenvalues of (default mixing * dielectric matrix)
  average eigenvalue GAMMA=   1.8247
  4.4901  3.0659  2.0353  0.8854  0.8854  1.4848  1.4375  1.0687  1.0687

 Free energy of the ion-electron system (eV)
  ---------------------------------------------------
  alpha Z        PSCENC =       170.45750602
  Ewald energy   TEWEN  =     11638.67556054
  -Hartree energ DENC   =    -18051.42840345
  -exchange      EXHF   =         0.00000000
  -V(xc)+E(xc)   XCENC  =        36.65132160
  PAW double counting   =      3834.71177718    -3532.95517978
  entropy T*S    EENTRO =         0.00000000
  eigenvalues    EBANDS =     -1466.15339700
  atomic energy  EATOM  =      7277.57480299
  Solvation  Ediel_sol  =         0.00000000
  ---------------------------------------------------
  free energy    TOTEN  =       -92.46601189 eV

  energy without entropy =      -92.46601189  energy(sigma->0) =      -92.46601189


--------------------------------------------------------------------------------------------------------




--------------------------------------- Iteration      1(  15)  ---------------------------------------


    POTLOK:  cpu time    2.3952: real time    2.4137
    SETDIJ:  cpu time    0.2289: real time    0.2295
     EDDAV:  cpu time    2.6942: real time    2.7006
 BZINTS: Fermi energy: -0.581921;144.000000 electrons
         Band energy:***********;  BLOECHL correction:  0.000000
       DOS:  cpu time    0.0022: real time    0.0022
    CHARGE:  cpu time    0.1604: real time    0.1608
    MIXING:  cpu time    0.0101: real time    0.0102
    --------------------------------------------
      LOOP:  cpu time    5.4909: real time    5.5169

 eigenvalue-minimisations  :  2896
 total energy-change (2. order) :-0.1115216E-02  (-0.2221362E-03)
 number of electron     143.9999985 magnetization 
 augmentation part      -17.7841324 magnetization 

 Broyden mixing:
  rms(total) = 0.19232E-02    rms(broyden)= 0.19232E-02
  rms(prec ) = 0.37527E-02
  weight for this iteration     100.00

 eigenvalues of (default mixing * dielectric matrix)
  average eigenvalue GAMMA=   1.9276
  5.3595  3.3041  2.5745  1.6301  0.8837  0.8837  1.2673  1.2673  1.0011  1.1050

 Free energy of the ion-electron system (eV)
  ---------------------------------------------------
  alpha Z        PSCENC =       170.45750602
  Ewald energy   TEWEN  =     11638.67556054
  -Hartree energ DENC   =    -18052.84153159
  -exchange      EXHF   =         0.00000000
  -V(xc)+E(xc)   XCENC  =        36.64175880
  PAW double counting   =      3835.07679192    -3533.29254451
  entropy T*S    EENTRO =         0.00000000
  eigenvalues    EBANDS =     -1464.75947128
  atomic energy  EATOM  =      7277.57480299
  Solvation  Ediel_sol  =         0.00000000
  ---------------------------------------------------
  free energy    TOTEN  =       -92.46712711 eV

  energy without entropy =      -92.46712711  energy(sigma->0) =      -92.46712711


--------------------------------------------------------------------------------------------------------




--------------------------------------- Iteration      1(  16)  ---------------------------------------


    POTLOK:  cpu time    2.3994: real time    2.4165
    SETDIJ:  cpu time    0.2259: real time    0.2264
     EDDAV:  cpu time    2.8064: real time    2.8131
 BZINTS: Fermi energy: -0.573016;144.000000 electrons
         Band energy:***********;  BLOECHL correction:  0.000000
       DOS:  cpu time    0.0024: real time    0.0024
    CHARGE:  cpu time    0.1568: real time    0.1572
    MIXING:  cpu time    0.0063: real time    0.0064
    --------------------------------------------
      LOOP:  cpu time    5.5972: real time    5.6220

 eigenvalue-minimisations  :  3088
 total energy-change (2. order) : 0.7123773E-03  (-0.1439750E-03)
 number of electron     143.9999985 magnetization 
 augmentation part      -17.7839218 magnetization 

 Broyden mixing:
  rms(total) = 0.14517E-02    rms(broyden)= 0.14517E-02
  rms(prec ) = 0.25920E-02
  weight for this iteration     100.00

 eigenvalues of (default mixing * dielectric matrix)
  average eigenvalue GAMMA=   1.9931
  5.6739  3.7445  2.5633  1.8055  1.8055  0.8857  0.8857  1.2569  1.2569  1.0228
  1.0228

 Free energy of the ion-electron system (eV)
  ---------------------------------------------------
  alpha Z        PSCENC =       170.45750602
  Ewald energy   TEWEN  =     11638.67556054
  -Hartree energ DENC   =    -18054.41296965
  -exchange      EXHF   =         0.00000000
  -V(xc)+E(xc)   XCENC  =        36.64637835
  PAW double counting   =      3835.33527072    -3533.56611408
  entropy T*S    EENTRO =         0.00000000
  eigenvalues    EBANDS =     -1463.17684962
  atomic energy  EATOM  =      7277.57480299
  Solvation  Ediel_sol  =         0.00000000
  ---------------------------------------------------
  free energy    TOTEN  =       -92.46641473 eV

  energy without entropy =      -92.46641473  energy(sigma->0) =      -92.46641473


--------------------------------------------------------------------------------------------------------




--------------------------------------- Iteration      1(  17)  ---------------------------------------


    POTLOK:  cpu time    2.4240: real time    2.4429
    SETDIJ:  cpu time    0.2778: real time    0.2785
     EDDAV:  cpu time    2.8140: real time    2.8207
 BZINTS: Fermi energy: -0.567230;144.000000 electrons
         Band energy:***********;  BLOECHL correction:  0.000000
       DOS:  cpu time    0.0026: real time    0.0026
    CHARGE:  cpu time    0.1565: real time    0.1569
    MIXING:  cpu time    0.0098: real time    0.0099
    --------------------------------------------
      LOOP:  cpu time    5.6847: real time    5.7114

 eigenvalue-minimisations  :  2984
 total energy-change (2. order) : 0.5508561E-03  (-0.9971949E-04)
 number of electron     143.9999985 magnetization 
 augmentation part      -17.7839089 magnetization 

 Broyden mixing:
  rms(total) = 0.90885E-03    rms(broyden)= 0.90885E-03
  rms(prec ) = 0.16903E-02
  weight for this iteration     100.00

 eigenvalues of (default mixing * dielectric matrix)
  average eigenvalue GAMMA=   2.0049
  6.0123  3.9267  2.7762  2.1827  0.8848  0.8848  1.4518  1.4518  1.3690  1.0661
  1.0661  0.9869

 Free energy of the ion-electron system (eV)
  ---------------------------------------------------
  alpha Z        PSCENC =       170.45750602
  Ewald energy   TEWEN  =     11638.67556054
  -Hartree energ DENC   =    -18055.48391750
  -exchange      EXHF   =         0.00000000
  -V(xc)+E(xc)   XCENC  =        36.64811069
  PAW double counting   =      3835.29939651    -3533.52624894
  entropy T*S    EENTRO =         0.00000000
  eigenvalues    EBANDS =     -1462.11107419
  atomic energy  EATOM  =      7277.57480299
  Solvation  Ediel_sol  =         0.00000000
  ---------------------------------------------------
  free energy    TOTEN  =       -92.46586387 eV

  energy without entropy =      -92.46586387  energy(sigma->0) =      -92.46586387


--------------------------------------------------------------------------------------------------------




--------------------------------------- Iteration      1(  18)  ---------------------------------------


    POTLOK:  cpu time    2.4248: real time    2.4420
    SETDIJ:  cpu time    0.1946: real time    0.1950
     EDDAV:  cpu time    2.6424: real time    2.6487
 BZINTS: Fermi energy: -0.565490;144.000000 electrons
         Band energy:***********;  BLOECHL correction:  0.000000
       DOS:  cpu time    0.0024: real time    0.0024
    CHARGE:  cpu time    0.1423: real time    0.1426
    MIXING:  cpu time    0.0066: real time    0.0066
    --------------------------------------------
      LOOP:  cpu time    5.4131: real time    5.4375

 eigenvalue-minimisations  :  2752
 total energy-change (2. order) :-0.6516371E-03  (-0.3287689E-04)
 number of electron     143.9999985 magnetization 
 augmentation part      -17.7838299 magnetization 

 Broyden mixing:
  rms(total) = 0.57114E-03    rms(broyden)= 0.57114E-03
  rms(prec ) = 0.99581E-03
  weight for this iteration     100.00

 eigenvalues of (default mixing * dielectric matrix)
  average eigenvalue GAMMA=   2.0762
  6.3738  4.5199  2.6976  2.6976  1.8420  0.8845  0.8845  1.3762  1.3762  1.1881
  1.1881  0.9811  0.9811

 Free energy of the ion-electron system (eV)
  ---------------------------------------------------
  alpha Z        PSCENC =       170.45750602
  Ewald energy   TEWEN  =     11638.67556054
  -Hartree energ DENC   =    -18056.11071480
  -exchange      EXHF   =         0.00000000
  -V(xc)+E(xc)   XCENC  =        36.65066992
  PAW double counting   =      3835.26637368    -3533.49058893
  entropy T*S    EENTRO =         0.00000000
  eigenvalues    EBANDS =     -1461.49012493
  atomic energy  EATOM  =      7277.57480299
  Solvation  Ediel_sol  =         0.00000000
  ---------------------------------------------------
  free energy    TOTEN  =       -92.46651551 eV

  energy without entropy =      -92.46651551  energy(sigma->0) =      -92.46651551


--------------------------------------------------------------------------------------------------------




--------------------------------------- Iteration      1(  19)  ---------------------------------------


    POTLOK:  cpu time    2.3957: real time    2.4120
    SETDIJ:  cpu time    0.2392: real time    0.2397
     EDDAV:  cpu time    2.4744: real time    2.4803
 BZINTS: Fermi energy: -0.565909;144.000000 electrons
         Band energy:***********;  BLOECHL correction:  0.000000
       DOS:  cpu time    0.0022: real time    0.0022
    CHARGE:  cpu time    0.1455: real time    0.1458
    MIXING:  cpu time    0.0090: real time    0.0091
    --------------------------------------------
      LOOP:  cpu time    5.2660: real time    5.2892

 eigenvalue-minimisations  :  2600
 total energy-change (2. order) :-0.7330782E-03  (-0.2956016E-04)
 number of electron     143.9999985 magnetization 
 augmentation part      -17.7840278 magnetization 

 Broyden mixing:
  rms(total) = 0.46169E-03    rms(broyden)= 0.46169E-03
  rms(prec ) = 0.68620E-03
  weight for this iteration     100.00

 eigenvalues of (default mixing * dielectric matrix)
  average eigenvalue GAMMA=   2.1697
  6.8665  5.1325  3.1177  2.7765  1.9623  1.6313  1.6313  0.8846  0.8846  1.2562
  1.2562  0.9527  1.0117  1.0117

 Free energy of the ion-electron system (eV)
  ---------------------------------------------------
  alpha Z        PSCENC =       170.45750602
  Ewald energy   TEWEN  =     11638.67556054
  -Hartree energ DENC   =    -18056.34070440
  -exchange      EXHF   =         0.00000000
  -V(xc)+E(xc)   XCENC  =        36.64876673
  PAW double counting   =      3835.19246454    -3533.41433971
  entropy T*S    EENTRO =         0.00000000
  eigenvalues    EBANDS =     -1461.26130530
  atomic energy  EATOM  =      7277.57480299
  Solvation  Ediel_sol  =         0.00000000
  ---------------------------------------------------
  free energy    TOTEN  =       -92.46724859 eV

  energy without entropy =      -92.46724859  energy(sigma->0) =      -92.46724859


--------------------------------------------------------------------------------------------------------




--------------------------------------- Iteration      1(  20)  ---------------------------------------


    POTLOK:  cpu time    2.4048: real time    2.4215
    SETDIJ:  cpu time    0.2582: real time    0.2588
     EDDAV:  cpu time    2.4752: real time    2.4811
 BZINTS: Fermi energy: -0.567226;144.000000 electrons
         Band energy:***********;  BLOECHL correction:  0.000000
       DOS:  cpu time    0.0026: real time    0.0026
    CHARGE:  cpu time    0.1591: real time    0.1595
    MIXING:  cpu time    0.0074: real time    0.0074
    --------------------------------------------
      LOOP:  cpu time    5.3072: real time    5.3308

 eigenvalue-minimisations  :  2616
 total energy-change (2. order) :-0.5111943E-03  (-0.2068454E-04)
 number of electron     143.9999985 magnetization 
 augmentation part      -17.7841157 magnetization 

 Broyden mixing:
  rms(total) = 0.24037E-03    rms(broyden)= 0.24037E-03
  rms(prec ) = 0.36231E-03
  weight for this iteration     100.00

 eigenvalues of (default mixing * dielectric matrix)
  average eigenvalue GAMMA=   2.2722
  7.3258  6.2615  3.1342  3.1342  2.4984  1.6046  1.6046  0.8846  0.8846  1.3062
  1.3062  1.1080  1.1080  0.9609  0.9609

 Free energy of the ion-electron system (eV)
  ---------------------------------------------------
  alpha Z        PSCENC =       170.45750602
  Ewald energy   TEWEN  =     11638.67556054
  -Hartree energ DENC   =    -18056.46156906
  -exchange      EXHF   =         0.00000000
  -V(xc)+E(xc)   XCENC  =        36.64907512
  PAW double counting   =      3835.20900755    -3533.43049983
  entropy T*S    EENTRO =         0.00000000
  eigenvalues    EBANDS =     -1461.14164312
  atomic energy  EATOM  =      7277.57480299
  Solvation  Ediel_sol  =         0.00000000
  ---------------------------------------------------
  free energy    TOTEN  =       -92.46775978 eV

  energy without entropy =      -92.46775978  energy(sigma->0) =      -92.46775978


--------------------------------------------------------------------------------------------------------




--------------------------------------- Iteration      1(  21)  ---------------------------------------


    POTLOK:  cpu time    2.3951: real time    2.4123
    SETDIJ:  cpu time    0.2237: real time    0.2243
     EDDAV:  cpu time    2.4301: real time    2.4358
 BZINTS: Fermi energy: -0.571500;144.000000 electrons
         Band energy:***********;  BLOECHL correction:  0.000000
       DOS:  cpu time    0.0030: real time    0.0030
    CHARGE:  cpu time    0.1541: real time    0.1544
    MIXING:  cpu time    0.0107: real time    0.0108
    --------------------------------------------
      LOOP:  cpu time    5.2167: real time    5.2406

 eigenvalue-minimisations  :  2448
 total energy-change (2. order) :-0.3790349E-03  (-0.1758344E-04)
 number of electron     143.9999985 magnetization 
 augmentation part      -17.7841151 magnetization 

 Broyden mixing:
  rms(total) = 0.12613E-03    rms(broyden)= 0.12613E-03
  rms(prec ) = 0.14995E-03
  weight for this iteration     100.00

 eigenvalues of (default mixing * dielectric matrix)
  average eigenvalue GAMMA=   2.3212
  8.3419  6.4314  3.2688  3.2316  2.4338  1.8766  1.8766  0.8846  0.8846  1.3123
  1.3123  1.1450  1.1450  0.9922  0.9922  1.0100

 Free energy of the ion-electron system (eV)
  ---------------------------------------------------
  alpha Z        PSCENC =       170.45750602
  Ewald energy   TEWEN  =     11638.67556054
  -Hartree energ DENC   =    -18056.35105930
  -exchange      EXHF   =         0.00000000
  -V(xc)+E(xc)   XCENC  =        36.64824311
  PAW double counting   =      3835.23353136    -3533.45629736
  entropy T*S    EENTRO =         0.00000000
  eigenvalues    EBANDS =     -1461.25042619
  atomic energy  EATOM  =      7277.57480299
  Solvation  Ediel_sol  =         0.00000000
  ---------------------------------------------------
  free energy    TOTEN  =       -92.46813882 eV

  energy without entropy =      -92.46813882  energy(sigma->0) =      -92.46813882


--------------------------------------------------------------------------------------------------------




--------------------------------------- Iteration      1(  22)  ---------------------------------------


    POTLOK:  cpu time    2.4357: real time    2.4519
    SETDIJ:  cpu time    0.2677: real time    0.2684
     EDDAV:  cpu time    2.1415: real time    2.1466
 BZINTS: Fermi energy: -0.574069;144.000000 electrons
         Band energy:***********;  BLOECHL correction:  0.000000
       DOS:  cpu time    0.0023: real time    0.0023
    CHARGE:  cpu time    0.1485: real time    0.1489
    MIXING:  cpu time    0.0066: real time    0.0067
    --------------------------------------------
      LOOP:  cpu time    5.0024: real time    5.0247

 eigenvalue-minimisations  :  2088
 total energy-change (2. order) :-0.1841718E-04  (-0.5850128E-05)
 number of electron     143.9999985 magnetization 
 augmentation part      -17.7840861 magnetization 

 Broyden mixing:
  rms(total) = 0.72808E-04    rms(broyden)= 0.72808E-04
  rms(prec ) = 0.91725E-04
  weight for this iteration     100.00

 eigenvalues of (default mixing * dielectric matrix)
  average eigenvalue GAMMA=   2.3175
  8.5085  7.0078  3.3290  3.3290  2.5420  1.9293  1.9293  0.8846  0.8846  1.2326
  1.2326  1.3164  0.9642  0.9642  1.1386  1.1023  1.1023

 Free energy of the ion-electron system (eV)
  ---------------------------------------------------
  alpha Z        PSCENC =       170.45750602
  Ewald energy   TEWEN  =     11638.67556054
  -Hartree energ DENC   =    -18056.34899219
  -exchange      EXHF   =         0.00000000
  -V(xc)+E(xc)   XCENC  =        36.64791680
  PAW double counting   =      3835.21275969    -3533.43532868
  entropy T*S    EENTRO =         0.00000000
  eigenvalues    EBANDS =     -1461.25238239
  atomic energy  EATOM  =      7277.57480299
  Solvation  Ediel_sol  =         0.00000000
  ---------------------------------------------------
  free energy    TOTEN  =       -92.46815723 eV

  energy without entropy =      -92.46815723  energy(sigma->0) =      -92.46815723


--------------------------------------------------------------------------------------------------------




--------------------------------------- Iteration      1(  23)  ---------------------------------------


    POTLOK:  cpu time    2.4208: real time    2.4378
    SETDIJ:  cpu time    0.2630: real time    0.2636
     EDDAV:  cpu time    2.1758: real time    2.1809
 BZINTS: Fermi energy: -0.577559;144.000000 electrons
         Band energy:***********;  BLOECHL correction:  0.000000
       DOS:  cpu time    0.0023: real time    0.0023
    CHARGE:  cpu time    0.1436: real time    0.1439
    MIXING:  cpu time    0.0076: real time    0.0076
    --------------------------------------------
      LOOP:  cpu time    5.0130: real time    5.0361

 eigenvalue-minimisations  :  2128
 total energy-change (2. order) : 0.2347897E-04  (-0.2854862E-05)
 number of electron     143.9999985 magnetization 
 augmentation part      -17.7840738 magnetization 

 Broyden mixing:
  rms(total) = 0.39076E-04    rms(broyden)= 0.39076E-04
  rms(prec ) = 0.52125E-04
  weight for this iteration     100.00

 eigenvalues of (default mixing * dielectric matrix)
  average eigenvalue GAMMA=   2.3136
  8.6167  7.1524  3.4402  3.4402  2.6544  1.9220  1.9220  1.7500  0.8846  0.8846
  1.2786  1.2786  1.2974  1.1146  1.1146  0.9680  0.9680  0.9568

 Free energy of the ion-electron system (eV)
  ---------------------------------------------------
  alpha Z        PSCENC =       170.45750602
  Ewald energy   TEWEN  =     11638.67556054
  -Hartree energ DENC   =    -18056.33415584
  -exchange      EXHF   =         0.00000000
  -V(xc)+E(xc)   XCENC  =        36.64780222
  PAW double counting   =      3835.21041341    -3533.43302565
  entropy T*S    EENTRO =         0.00000000
  eigenvalues    EBANDS =     -1461.26703744
  atomic energy  EATOM  =      7277.57480299
  Solvation  Ediel_sol  =         0.00000000
  ---------------------------------------------------
  free energy    TOTEN  =       -92.46813375 eV

  energy without entropy =      -92.46813375  energy(sigma->0) =      -92.46813375


--------------------------------------------------------------------------------------------------------




--------------------------------------- Iteration      1(  24)  ---------------------------------------


    POTLOK:  cpu time    2.4007: real time    2.4173
    SETDIJ:  cpu time    0.2593: real time    0.2599
     EDDAV:  cpu time    2.3320: real time    2.3375
 BZINTS: Fermi energy: -0.588266;144.000000 electrons
         Band energy:***********;  BLOECHL correction:  0.000000
       DOS:  cpu time    0.0026: real time    0.0026
    CHARGE:  cpu time    0.1521: real time    0.1525
    MIXING:  cpu time    0.0119: real time    0.0119
    --------------------------------------------
      LOOP:  cpu time    5.1586: real time    5.1818

 eigenvalue-minimisations  :  2384
 total energy-change (2. order) : 0.2399460E-04  (-0.1556506E-05)
 number of electron     143.9999985 magnetization 
 augmentation part      -17.7840673 magnetization 

 Broyden mixing:
  rms(total) = 0.23093E-04    rms(broyden)= 0.23089E-04
  rms(prec ) = 0.32251E-04
  weight for this iteration     100.00

 eigenvalues of (default mixing * dielectric matrix)
  average eigenvalue GAMMA=   2.3108
  8.5452  7.3598  3.5699  3.5699  2.7674  2.2020  2.2020  1.8907  0.8846  0.8846
  1.2585  1.2585  1.1838  1.1838  0.9700  0.9700  1.0650  1.0694  1.0694

 Free energy of the ion-electron system (eV)
  ---------------------------------------------------
[...]
      7     -28.1966      2.00000
      8     -28.1962      2.00000
      9     -15.0306      2.00000
     10     -15.0304      2.00000
     11     -14.9670      2.00000
     12     -14.9670      2.00000
     13     -14.9001      2.00000
     14     -14.9001      2.00000
     15     -14.1754      2.00000
     16     -14.1749      2.00000
     17     -14.1021      2.00000
     18     -14.0932      2.00000
     19     -14.0444      2.00000
     20     -14.0436      2.00000
     21     -14.0184      2.00000
     22     -14.0161      2.00000
     23     -14.0058      2.00000
     24     -14.0038      2.00000
     25     -13.9763      2.00000
     26     -13.9695      2.00000
     27     -13.5171      2.00000
     28     -13.5093      2.00000
     29     -13.4661      2.00000
     30     -13.4584      2.00000
     31     -13.4423      2.00000
     32     -13.4400      2.00000
     33     -11.0612      2.00000
     34     -11.0503      2.00000
     35     -10.7088      2.00000
     36     -10.6943      2.00000
     37      -6.5578      2.00000
     38      -6.5425      2.00000
     39      -6.3043      2.00000
     40      -6.2965      2.00000
     41      -6.2200      2.00000
     42      -6.2138      2.00000
     43      -6.0076      2.00000
     44      -5.9944      2.00000
     45      -5.9441      2.00000
     46      -5.9012      2.00000
     47      -5.8608      2.00000
     48      -5.7485      2.00000
     49      -2.8761      2.00000
     50      -2.7887      2.00000
     51      -2.6486      2.00000
     52      -2.5975      2.00000
     53      -2.3060      2.00000
     54      -2.2194      2.00000
     55      -2.2032      2.00000
     56      -2.1777      2.00000
     57      -2.0319      2.00000
     58      -2.0088      2.00000
     59      -1.9142      2.00000
     60      -1.8316      2.00000
     61      -1.7574      2.00000
     62      -1.6745      2.00000
     63      -1.5787      2.00000
     64      -1.5237      2.00000
     65      -1.3808      2.00000
     66      -1.3176      2.00000
     67      -1.2693      2.00000
     68      -1.1439      2.00000
     69      -1.0293      2.00000
     70      -0.9628      2.00000
     71      -0.9308      2.00000
     72      -0.8731      2.00000
     73       0.1931      0.00000
     74       0.2341      0.00000
     75       0.3889      0.00000
     76       0.4337      0.00000
     77       0.5343      0.00000
     78       0.6206      0.00000
     79       0.7562      0.00000
     80       0.7716      0.00000
     81       0.8166      0.00000
     82       0.8729      0.00000
     83       1.0310      0.00000
     84       1.0663      0.00000
     85       1.1764      0.00000
     86       1.3283      0.00000
     87       1.4208      0.00000
     88       1.5368      0.00000

 k-point    15 :       0.0000    0.5000    0.4000
  band No.  band energies     occupation 
      1     -29.7399      2.00000
      2     -29.7399      2.00000
      3     -28.7923      2.00000
      4     -28.7923      2.00000
      5     -28.7770      2.00000
      6     -28.7770      2.00000
      7     -28.1964      2.00000
      8     -28.1964      2.00000
      9     -15.0301      2.00000
     10     -15.0301      2.00000
     11     -14.9678      2.00000
     12     -14.9678      2.00000
     13     -14.9020      2.00000
     14     -14.9020      2.00000
     15     -14.1744      2.00000
     16     -14.1744      2.00000
     17     -14.0990      2.00000
     18     -14.0990      2.00000
     19     -14.0463      2.00000
     20     -14.0463      2.00000
     21     -14.0211      2.00000
     22     -14.0211      2.00000
     23     -14.0038      2.00000
     24     -14.0038      2.00000
     25     -13.9725      2.00000
     26     -13.9725      2.00000
     27     -13.5129      2.00000
     28     -13.5129      2.00000
     29     -13.4628      2.00000
     30     -13.4628      2.00000
     31     -13.4403      2.00000
     32     -13.4403      2.00000
     33     -11.0498      2.00000
     34     -11.0498      2.00000
     35     -10.6923      2.00000
     36     -10.6923      2.00000
     37      -6.5796      2.00000
     38      -6.5796      2.00000
     39      -6.2796      2.00000
     40      -6.2795      2.00000
     41      -6.2123      2.00000
     42      -6.2122      2.00000
     43      -5.9770      2.00000
     44      -5.9769      2.00000
     45      -5.9350      2.00000
     46      -5.9349      2.00000
     47      -5.7983      2.00000
     48      -5.7983      2.00000
     49      -2.7858      2.00000
     50      -2.7858      2.00000
     51      -2.6423      2.00000
     52      -2.6422      2.00000
     53      -2.2551      2.00000
     54      -2.2551      2.00000
     55      -2.2065      2.00000
     56      -2.2065      2.00000
     57      -2.0262      2.00000
     58      -2.0262      2.00000
     59      -1.8231      2.00000
     60      -1.8231      2.00000
     61      -1.6124      2.00000
     62      -1.6124      2.00000
     63      -1.6102      2.00000
     64      -1.6102      2.00000
     65      -1.3652      2.00000
     66      -1.3652      2.00000
     67      -1.2087      2.00000
     68      -1.2087      2.00000
     69      -1.0187      2.00000
     70      -1.0187      2.00000
     71      -0.9075      2.00000
     72      -0.9075      2.00000
     73       0.1367      0.00000
     74       0.1367      0.00000
     75       0.3770      0.00000
     76       0.3770      0.00000
     77       0.5845      0.00000
     78       0.5845      0.00000
     79       0.7224      0.00000
     80       0.7225      0.00000
     81       0.7855      0.00000
     82       0.7856      0.00000
     83       1.0683      0.00000
     84       1.0685      0.00000
     85       1.2590      0.00000
     86       1.2595      0.00000
     87       1.3975      0.00000
     88       1.3983      0.00000


--------------------------------------------------------------------------------------------------------


 soft charge-density along one line, spin component           1
         0         1         2         3         4         5         6         7         8         9
 total charge-density along one line
 
 pseudopotential strength for first ion, spin component:           1
  4.887  -5.540  -0.000  -0.005  -0.021  -0.000  -0.005  -0.024
 -5.540  -2.772   0.000   0.001   0.002  -0.000  -0.001  -0.004
 -0.000   0.000  -6.749  -0.000  -0.000   1.898  -0.000  -0.000
 -0.005   0.001  -0.000  -6.744  -0.001  -0.000   1.909  -0.003
 -0.021   0.002  -0.000  -0.001  -6.744  -0.000  -0.003   1.908
 -0.000  -0.000   1.898  -0.000  -0.000   7.249  -0.000  -0.000
 -0.005  -0.001  -0.000   1.909  -0.003  -0.000   7.250  -0.000
 -0.024  -0.004  -0.000  -0.003   1.908  -0.000  -0.000   7.251
 -0.000   0.000  -0.013  -0.000  -0.000  -0.010  -0.000  -0.000
 -0.000   0.000  -0.000  -0.000  -0.000  -0.000  -0.000  -0.000
  0.002  -0.001   0.000  -0.005   0.007   0.000  -0.003   0.005
 -0.002   0.001  -0.000  -0.012  -0.002  -0.000  -0.009  -0.002
  0.003  -0.001   0.000  -0.001  -0.011   0.000  -0.001  -0.009
  0.000   0.000   0.001   0.000   0.000   0.000   0.000   0.000
  0.000   0.000   0.000   0.000   0.000  -0.000   0.000   0.000
 -0.000  -0.000  -0.000   0.000  -0.000  -0.000   0.000  -0.000
  0.000   0.000   0.000   0.001   0.000   0.000   0.000   0.000
 -0.000  -0.000  -0.000   0.000   0.001  -0.000   0.000   0.000
 total augmentation occupancy for first ion, spin component:           1
  2.113  -0.264   0.000   0.012   0.051   0.000  -0.005  -0.019   0.000   0.000   0.014  -0.007   0.032   0.000   0.000  -0.008
 -0.264   0.637   0.000  -0.031  -0.133   0.000   0.012   0.032   0.000   0.000  -0.023   0.007  -0.061  -0.000   0.000   0.034
  0.000   0.000   2.014   0.000   0.000  -0.016   0.000   0.000  -0.080   0.022  -0.000  -0.000   0.000   0.070  -0.043   0.000
  0.012  -0.031   0.000   2.000   0.003   0.000  -0.007  -0.002   0.000  -0.000  -0.044  -0.064  -0.014   0.000   0.000   0.045
  0.051  -0.133   0.000   0.003   1.996   0.000  -0.002  -0.005   0.000   0.000   0.033  -0.006  -0.050   0.000   0.000  -0.028
  0.000   0.000  -0.016   0.000   0.000   0.008   0.000   0.000   0.022  -0.009   0.000   0.000   0.000  -0.029   0.014   0.000
 -0.005   0.012  -0.000  -0.007  -0.002   0.000   0.005   0.000   0.000   0.000   0.016   0.015   0.005   0.000   0.000  -0.022
 -0.019   0.032  -0.000  -0.002  -0.005   0.000   0.000   0.004  -0.000   0.000  -0.007  -0.000   0.009   0.000   0.000   0.008
 -0.000   0.000  -0.080   0.000   0.000   0.022   0.000   0.000   0.147  -0.015   0.000  -0.000   0.000  -0.185   0.021   0.000
  0.000   0.000   0.022   0.000   0.000  -0.009   0.000   0.000  -0.015   0.068   0.000   0.000   0.000   0.019  -0.085  -0.000
  0.014  -0.023   0.000  -0.044   0.033   0.000   0.016  -0.007   0.000   0.000   0.121   0.050   0.019   0.000   0.000  -0.149
 -0.007   0.007  -0.000  -0.064  -0.006   0.000   0.015  -0.000   0.000   0.000   0.050   0.088   0.008   0.000   0.000  -0.070
  0.032  -0.061   0.000  -0.014  -0.050   0.000   0.005   0.009   0.000   0.000   0.019   0.008   0.092   0.000   0.000  -0.026
  0.000   0.000   0.070  -0.000   0.000  -0.029   0.000   0.000  -0.185   0.019   0.000   0.000  -0.000   0.262  -0.034   0.000
  0.000   0.000  -0.043   0.000   0.000   0.014   0.000   0.000   0.021  -0.085   0.000   0.000   0.000  -0.034   0.115   0.000
 -0.008   0.034  -0.000   0.045  -0.028   0.000  -0.022   0.008  -0.000   0.000  -0.149  -0.070  -0.026  -0.000   0.000   0.204
  0.005  -0.024   0.000   0.056  -0.000   0.000  -0.022  -0.000   0.000   0.000  -0.068  -0.111  -0.011   0.000  -0.000   0.106
 -0.023   0.073   0.000   0.023   0.043   0.000  -0.008  -0.012  -0.000   0.000  -0.027  -0.013  -0.121   0.000   0.000   0.042


------------------------ aborting loop because EDIFF is reached ----------------------------------------


    CHARGE:  cpu time    0.1491: real time    0.1495
    FORLOC:  cpu time    0.0090: real time    0.0090
    FORNL :  cpu time    0.5319: real time    0.5332
    STRESS:  cpu time    1.6373: real time    1.6530
    FORCOR:  cpu time    2.3930: real time    2.3988
    FORHAR:  cpu time    0.0227: real time    0.0227
    MIXING:  cpu time    0.1136: real time    0.1139
    OFIELD:  cpu time    0.0000: real time    0.0000

  FORCE on cell =-STRESS in cart. coord.  units (eV):
  Direction    XX          YY          ZZ          XY          YZ          ZX
  --------------------------------------------------------------------------------------
  Alpha Z   170.45751   170.45751   170.45751
  Ewald  -19401.82015 15788.30043 15252.18181    -0.00002     0.00000   135.66028
  Hartree-16330.00243 17401.48581 16984.83163     0.00000    -0.00000   103.31338
  E(xc)    -466.42150  -467.62776  -467.70396     0.00000     0.00000     0.06859
  Local   34314.62199-34626.36023-33665.57190     0.00001    -0.00000  -236.59801
  n-local   340.66690   340.56726   341.42495     0.06035    -0.20996    -1.52491
  augment  -167.39015  -167.76491  -167.64740     0.00000    -0.00000     0.31316
  Kinetic  1530.38119  1549.39316  1540.76786    -0.03640    -0.83368    -1.03582
  Fock        0.00000     0.00000     0.00000     0.00000     0.00000     0.00000
  -------------------------------------------------------------------------------------
  Total      -9.50663   -11.54873   -11.25950     0.00000     0.00000     0.19667
  in kB      -8.06723    -9.80013    -9.55470     0.00000     0.00000     0.16689
  external pressure =       -9.14 kB  Pullay stress =        0.00 kB


 VOLUME and BASIS-vectors are now :
 -----------------------------------------------------------------------------
  energy-cutoff  :      500.00
  volume of cell :     1888.05
      direct lattice vectors                 reciprocal lattice vectors
    24.009468079  0.000000000  0.000000000     0.041650236  0.000000000  0.000000000
     0.000000000  6.777849674  0.000000000     0.000000000  0.147539419  0.000000000
     0.000000000  0.000000000 11.602143288     0.000000000  0.000000000  0.086190971

  length of vectors
    24.009468079  6.777849674 11.602143288     0.041650236  0.147539419  0.086190971


 FORCES acting on ions
    electron-ion (+dipol)            ewald-force                    non-local-force                 convergence-correction
 -----------------------------------------------------------------------------------------------
   0.777E+03 0.101E-04 0.429E+02   -.772E+03 0.982E-05 -.421E+02   -.401E+01 0.138E-18 -.791E+00   0.245E-04 -.152E-09 -.962E-05
   -.777E+03 -.634E-04 -.429E+02   0.772E+03 -.127E-04 0.421E+02   0.401E+01 -.200E-18 0.791E+00   -.245E-04 0.866E-10 0.962E-05
   0.837E+02 -.610E-04 -.351E+02   -.835E+02 -.181E-04 0.338E+02   -.397E-03 -.912E-19 0.122E+01   0.246E-04 0.153E-09 -.217E-04
   -.837E+02 0.113E-04 0.351E+02   0.835E+02 0.128E-04 -.338E+02   0.397E-03 0.773E-19 -.122E+01   -.246E-04 -.225E-09 0.217E-04
   0.623E+03 -.613E-04 -.486E+02   -.620E+03 -.165E-04 0.491E+02   -.173E+01 0.332E-18 -.489E+00   0.999E-04 0.113E-09 -.290E-04
   -.623E+03 0.905E-05 0.486E+02   0.620E+03 0.144E-04 -.491E+02   0.173E+01 0.319E-18 0.489E+00   -.999E-04 -.179E-09 0.290E-04
   0.359E+03 0.119E-04 -.674E+01   -.358E+03 0.133E-04 0.609E+01   -.655E+00 -.118E-18 0.652E+00   0.830E-04 -.223E-09 -.436E-05
   -.359E+03 -.618E-04 0.674E+01   0.358E+03 -.135E-04 -.609E+01   0.655E+00 0.714E-18 -.652E+00   -.830E-04 0.173E-09 0.436E-05
   0.273E+03 0.349E+02 -.456E+02   -.273E+03 -.369E+02 0.466E+02   -.138E+00 0.201E+01 -.106E+01   0.691E-04 0.154E-04 -.137E-04
   -.273E+03 -.349E+02 0.456E+02   0.273E+03 0.369E+02 -.466E+02   0.138E+00 -.201E+01 0.106E+01   -.691E-04 -.154E-04 0.137E-04
   0.121E+03 -.308E+02 0.217E+01   -.121E+03 0.324E+02 -.870E+00   -.294E+00 -.165E+01 -.130E+01   0.311E-04 -.380E-05 0.244E-05
   -.121E+03 0.308E+02 -.217E+01   0.121E+03 -.324E+02 0.870E+00   0.294E+00 0.165E+01 0.130E+01   -.311E-04 0.380E-05 -.244E-05
   -.273E+03 0.349E+02 0.456E+02   0.273E+03 -.369E+02 -.466E+02   0.138E+00 0.201E+01 0.106E+01   -.691E-04 0.154E-04 0.137E-04
   0.273E+03 -.349E+02 -.456E+02   -.273E+03 0.369E+02 0.466E+02   -.138E+00 -.201E+01 -.106E+01   0.691E-04 -.154E-04 -.137E-04
   -.121E+03 -.308E+02 -.217E+01   0.121E+03 0.324E+02 0.870E+00   0.294E+00 -.165E+01 0.130E+01   -.311E-04 -.380E-05 -.244E-05
   0.121E+03 0.308E+02 0.217E+01   -.121E+03 -.324E+02 -.870E+00   -.294E+00 0.165E+01 -.130E+01   0.311E-04 0.380E-05 0.244E-05
   0.328E+03 -.239E-05 0.455E+02   -.330E+03 -.608E-05 -.460E+02   0.163E+01 -.384E-18 0.465E+00   0.244E-04 0.726E-10 0.109E-04
   -.328E+03 0.568E-05 -.455E+02   0.330E+03 0.628E-05 0.460E+02   -.163E+01 0.417E-18 -.465E+00   -.244E-04 -.513E-10 -.109E-04
   0.335E+02 0.907E-05 -.103E+02   -.315E+02 0.752E-05 0.969E+01   -.174E+01 -.159E-18 0.635E+00   0.135E-04 -.705E-10 -.313E-05
   -.335E+02 -.444E-05 0.103E+02   0.315E+02 -.721E-05 -.969E+01   0.174E+01 -.139E-18 -.635E+00   -.135E-04 0.833E-10 0.312E-05
   0.239E+03 0.408E-05 0.107E+02   -.239E+03 0.806E-05 -.125E+02   -.290E+00 0.302E-19 0.181E+01   0.590E-04 -.597E-10 0.123E-04
   -.239E+03 -.583E-05 -.107E+02   0.239E+03 -.812E-05 0.125E+02   0.290E+00 -.311E-18 -.181E+01   -.590E-04 0.757E-10 -.123E-04
   0.156E+03 -.785E-05 0.576E+02   -.156E+03 -.760E-05 -.598E+02   -.854E+00 -.237E-17 0.223E+01   0.342E-04 0.886E-10 0.921E-05
   -.156E+03 0.530E-05 -.576E+02   0.156E+03 0.742E-05 0.598E+02   0.854E+00 0.225E-17 -.223E+01   -.342E-04 -.734E-10 -.920E-05
 -----------------------------------------------------------------------------------------------
   -.377E-03 -.213E-03 0.856E-04   0.711E-12 -.508E-14 -.142E-13   0.000E+00 0.665E-15 0.444E-15   0.406E-07 -.157E-09 -.268E-08
 
 
 POSITION                                       TOTAL-FORCE (eV/Angst)
 -----------------------------------------------------------------------------------
      0.13670      1.69446      8.17572         0.744456     -0.000000      0.000258
      9.17277      5.08339      3.42643        -0.744456     -0.000000     -0.000258
      4.36803      5.08339      2.16609         0.228281     -0.000000     -0.000009
      4.94143      1.69446      9.43605        -0.228281      0.000000      0.000009
      1.43529      5.08339     10.63205         0.693222     -0.000000     -0.000190
      7.87418      1.69446      0.97010        -0.693222      0.000000      0.000190
      3.06944      1.69446      4.62002         0.469052     -0.000000      0.000722
      6.24002      5.08339      6.98213        -0.469052      0.000000     -0.000722
      1.75027      0.48652      1.67094        -0.161464     -0.000381      0.000326
      7.55920      6.29133      9.93121         0.161464      0.000381     -0.000326
      2.75446      6.30106      7.64492         0.255588      0.000698     -0.000158
      6.55500      0.47679      3.95723        -0.255588     -0.000698      0.000158
      7.55920      3.87545      9.93121         0.161464     -0.000381     -0.000326
      1.75027      2.90240      1.67094        -0.161464      0.000381      0.000326
      6.55500      2.91214      3.95723        -0.255588      0.000698      0.000158
      2.75446      3.86571      7.64492         0.255588     -0.000698     -0.000158
      0.74693      5.08339      6.95226        -0.321910      0.000000      0.000373
      8.56254      1.69446      4.64988         0.321910     -0.000000     -0.000373
      3.75780      1.69446      0.95520         0.356833      0.000000      0.000462
      5.55166      5.08339     10.64694        -0.356833     -0.000000     -0.000462
      1.78112      1.69446     11.14554        -0.214273      0.000000      0.000396
      7.52835      5.08339      0.45661         0.214273     -0.000000     -0.000396
      2.72362      5.08339      5.51991        -0.137891     -0.000000      0.000495
      6.58585      1.69446      6.08224         0.137891      0.000000     -0.000495
 -----------------------------------------------------------------------------------
    total drift:                               -0.000377     -0.000213      0.000086


--------------------------------------------------------------------------------------------------------



  FREE ENERGIE OF THE ION-ELECTRON SYSTEM (eV)
  ---------------------------------------------------
  free  energy   TOTEN  =       -92.46810114 eV

  energy  without entropy=      -92.46810114  energy(sigma->0) =      -92.46810114
 


--------------------------------------------------------------------------------------------------------


    POTLOK:  cpu time    2.6900: real time    2.6964


--------------------------------------------------------------------------------------------------------


 writing wavefunctions
     LOOP+:  cpu time14280.3892: real time14320.4167
    4ORBIT:  cpu time    0.0000: real time    0.0000
 BZINTS: Fermi energy: -0.610208;144.000000 electrons
         Band energy:***********;  BLOECHL correction:  0.000000

 total amount of memory used by VASP MPI-rank0    79351. kBytes
=======================================================================

   base      :      30000. kBytes
   nonlr-proj:       2645. kBytes
   fftplans  :       5898. kBytes
   grid      :       8824. kBytes
   one-center:         93. kBytes
   wavefun   :      31891. kBytes
 
  
  
 General timing and accounting informations for this job:
 ========================================================
  
                  Total CPU time used (sec):    14288.597
                            User time (sec):    14261.251
                          System time (sec):       27.346
                         Elapsed time (sec):    14336.172
  
                   Maximum memory used (kb):      306092.
                   Average memory used (kb):           0.
  
                          Minor page faults:       135579
                          Major page faults:          208
                 Voluntary context switches:        13707
