 vasp.5.4.4.18Apr17-6-g9f103f2a35 (build Nov 21 2017 15:30:27) complex          
  
 executed on             LinuxIFC date 2020.09.15  15:58:03
 running on   64 total cores
 distrk:  each k-point on   32 cores,    2 groups
 distr:  one band on NCORES_PER_BAND=   4 cores,    8 groups


--------------------------------------------------------------------------------------------------------


 INCAR:
 POTCAR:   PAW_PBE Ba_sv 06Sep2000                
 POTCAR:   PAW_PBE Si 05Jan2001                   

 ----------------------------------------------------------------------------- 
|                                                                             |
|           W    W    AA    RRRRR   N    N  II  N    N   GGGG   !!!           |
|           W    W   A  A   R    R  NN   N  II  NN   N  G    G  !!!           |
|           W    W  A    A  R    R  N N  N  II  N N  N  G       !!!           |
|           W WW W  AAAAAA  RRRRR   N  N N  II  N  N N  G  GGG   !            |
|           WW  WW  A    A  R   R   N   NN  II  N   NN  G    G                |
|           W    W  A    A  R    R  N    N  II  N    N   GGGG   !!!           |
|                                                                             |
|      You have enabled k-point parallelism (KPAR>1).                         |
|      This developmental code was originally  written by Paul Kent at ORNL,  |
|      and carefully double checked in Vienna.                                |
|      GW as well as linear response parallelism added by Martijn Marsman     |
|      and Georg Kresse.                                                      |
|      Carefully verify results versus KPAR=1.                                |
|      Report problems to Paul Kent and Vienna.                               |
|                                                                             |
 ----------------------------------------------------------------------------- 


 ----------------------------------------------------------------------------- 
|                                                                             |
|  ADVICE TO THIS USER RUNNING 'VASP/VAMP'   (HEAR YOUR MASTER'S VOICE ...):  |
|                                                                             |
|      You have switched on vdW-DFT.                                          |
|      This routine was written and supplied by Jiri Klimes.                  |
|      We recommed that you carefully read and cite the following             |
|      publication                                                            |
|      J. Klimes, D.R. Bowler, A. Michelides                                  |
|        J. Phys.: Cond Matt. 22 022201 (2010)                                |
|      J. Klimes, D.R. Bowler, A. Michelides                                  |
|        Phys. Rev. B. 83, 195131 (2011)                                      |
|      and references therein.                                                |
|                                                                             |
 ----------------------------------------------------------------------------- 

 POTCAR:   PAW_PBE Ba_sv 06Sep2000                
   VRHFIN =Ba: 5s5p6s                                                           
   LEXCH  = PE                                                                  
   EATOM  =   700.2255 eV,   51.4651 Ry                                         
                                                                                
   TITEL  = PAW_PBE Ba_sv 06Sep2000                                             
   LULTRA =        F    use ultrasoft PP ?                                      
   IUNSCR =        1    unscreen: 0-lin 1-nonlin 2-no                           
   RPACOR =    2.400    partial core radius                                     
   POMASS =  137.327; ZVAL   =   10.000    mass and valenz                      
   RCORE  =    2.800    outmost cutoff radius                                   
   RWIGS  =    3.740; RWIGS  =    1.979    wigner-seitz radius (au A)           
   ENMAX  =  187.210; ENMIN  =  140.408 eV                                      
   RCLOC  =    2.516    cutoff for local pot                                    
   LCOR   =        T    correct aug charges                                     
   LPAW   =        T    paw PP                                                  
   EAUG   =  351.165                                                            
   DEXC   =     .000                                                            
   RMAX   =    3.370    core radius for proj-oper                               
   RAUG   =    1.300    factor for augmentation sphere                          
   RDEP   =    2.976    radius for radial grids                                 
   QCUT   =   -3.709; QGAM   =    7.419    optimization parameters              
                                                                                
   Description                                                                  
     l     E      TYP  RCUT    TYP  RCUT                                        
     0   .000     23  2.800                                                     
     0   .000     23  2.800                                                     
     1   .000     23  2.700                                                     
     1  2.000     23  2.700                                                     
     2   .000     23  2.700                                                     
     2   .000     23  2.700                                                     
  local pseudopotential read in
  partial core-charges read in
  atomic valenz-charges read in
  non local Contribution for L=           0  read in
    real space projection operators read in
  non local Contribution for L=           0  read in
    real space projection operators read in
  non local Contribution for L=           1  read in
    real space projection operators read in
  non local Contribution for L=           1  read in
    real space projection operators read in
  non local Contribution for L=           2  read in
    real space projection operators read in
  non local Contribution for L=           2  read in
    real space projection operators read in
    PAW grid and wavefunctions read in
 
   number of l-projection  operators is LMAX  =           6
   number of lm-projection operators is LMMAX =          18
 
 POTCAR:   PAW_PBE Si 05Jan2001                   
   VRHFIN =Si: s2p2                                                             
   LEXCH  = PE                                                                  
   EATOM  =   103.0669 eV,    7.5752 Ry                                         
                                                                                
   TITEL  = PAW_PBE Si 05Jan2001                                                
   LULTRA =        F    use ultrasoft PP ?                                      
   IUNSCR =        1    unscreen: 0-lin 1-nonlin 2-no                           
   RPACOR =    1.500    partial core radius                                     
   POMASS =   28.085; ZVAL   =    4.000    mass and valenz                      
   RCORE  =    1.900    outmost cutoff radius                                   
   RWIGS  =    2.480; RWIGS  =    1.312    wigner-seitz radius (au A)           
   ENMAX  =  245.345; ENMIN  =  184.009 eV                                      
   ICORE  =        2    local potential                                         
   LCOR   =        T    correct aug charges                                     
   LPAW   =        T    paw PP                                                  
   EAUG   =  322.069                                                            
   DEXC   =    -.007                                                            
   RMAX   =    2.944    core radius for proj-oper                               
   RAUG   =    1.300    factor for augmentation sphere                          
   RDEP   =    1.993    radius for radial grids                                 
   QCUT   =   -4.246; QGAM   =    8.493    optimization parameters              
                                                                                
   Description                                                                  
     l     E      TYP  RCUT    TYP  RCUT                                        
     0   .000     23  1.900                                                     
     0   .000     23  1.900                                                     
     1   .000     23  1.900                                                     
     1   .000     23  1.900                                                     
     2   .000      7  1.900                                                     
  local pseudopotential read in
  partial core-charges read in
  atomic valenz-charges read in
  non local Contribution for L=           0  read in
    real space projection operators read in
  non local Contribution for L=           0  read in
    real space projection operators read in
  non local Contribution for L=           1  read in
    real space projection operators read in
  non local Contribution for L=           1  read in
    real space projection operators read in
    PAW grid and wavefunctions read in
 
   number of l-projection  operators is LMAX  =           4
   number of lm-projection operators is LMMAX =           8
 
 Optimization of the real space projectors (new method)

 maximal supplied QI-value         = 13.42
 optimisation between [QCUT,QGAM] = [ 11.40, 22.81] = [ 36.42,145.68] Ry 
 Optimized for a Real-space Cutoff    1.56 Angstroem

   l    n(q)    QCUT    max X(q) W(low)/X(q) W(high)/X(q)  e(spline) 
   0     11    11.404     7.198    0.14E-04    0.26E-04    0.99E-07
   0     11    11.404    15.603    0.29E-04    0.72E-04    0.44E-06
   1     10    11.404     3.746    0.20E-04    0.24E-04    0.43E-07
   1     10    11.404     4.362    0.22E-03    0.97E-04    0.22E-06
   2     10    11.404     5.782    0.83E-04    0.62E-05    0.27E-06
   2     10    11.404    65.505    0.42E-03    0.31E-04    0.12E-05
 Optimization of the real space projectors (new method)

 maximal supplied QI-value         = 19.84
 optimisation between [QCUT,QGAM] = [ 11.31, 22.82] = [ 35.82,145.81] Ry 
 Optimized for a Real-space Cutoff    1.16 Angstroem

   l    n(q)    QCUT    max X(q) W(low)/X(q) W(high)/X(q)  e(spline) 
   0      8    11.310     8.708    0.14E-04    0.11E-04    0.43E-08
   0      8    11.310   106.241    0.27E-03    0.30E-03    0.38E-07
   1      7    11.310     5.901    0.82E-05    0.48E-04    0.19E-07
   1      7    11.310    73.241    0.27E-03    0.27E-03    0.74E-07

 ----------------------------------------------------------------------------- 
|                                                                             |
|  ADVICE TO THIS USER RUNNING 'VASP/VAMP'   (HEAR YOUR MASTER'S VOICE ...):  |
|                                                                             |
|      You enforced a specific xc-type in the INCAR file,                     |
|      a different type was found on the POTCAR file                          |
|          I HOPE YOU KNOW, WHAT YOU ARE  DOING                               |
|                                                                             |
 ----------------------------------------------------------------------------- 

 PAW_PBE Ba_sv 06Sep2000                :
 energy of atom  1       EATOM= -700.2255
 kinetic energy error for atom=    0.0005 (will be added to EATOM!!)
 PAW_PBE Si 05Jan2001                   :
 energy of atom  2       EATOM= -103.0669
 kinetic energy error for atom=    0.0006 (will be added to EATOM!!)
 
 
 POSCAR: ba8 si16                                
  positions in direct lattice
  velocities in cartesian coordinates
 exchange correlation table for  LEXCH =       42
   RHO(1)=    0.500       N(1)  =     2000
   RHO(2)=  100.500       N(2)  =     4000
 


--------------------------------------------------------------------------------------------------------


 ion  position               nearest neighbor table
   1  0.006  0.250  0.705-  21 3.42  16 3.45  11 3.45  17 3.66  17 3.66   5 4.39   5 4.39   7 4.60
                             4 4.72
   2  0.372  0.750  0.295-  22 3.42  12 3.45  15 3.45  18 3.66  18 3.66   6 4.39   6 4.39   8 4.60
                             3 4.72
   3  0.182  0.750  0.188-  20 3.31  22 3.40  12 3.42  15 3.42   9 3.44  14 3.44  19 3.64  19 3.64
                            23 3.71   5 4.29   7 4.39   7 4.39   2 4.72
   4  0.195  0.250  0.812-  19 3.31  21 3.40  16 3.42  11 3.42  13 3.44  10 3.44  20 3.64  20 3.64
                            24 3.71   6 4.29   8 4.39   8 4.39   1 4.72
   5  0.060  0.750  0.918-   9 3.44  14 3.44  21 3.45  21 3.45  11 3.52  16 3.52  17 3.78  20 3.87
                             3 4.29   1 4.39   1 4.39
   6  0.318  0.250  0.082-  13 3.44  10 3.44  22 3.45  22 3.45  15 3.52  12 3.52  18 3.78  19 3.87
                             4 4.29   2 4.39   2 4.39
   7  0.128  0.250  0.400-  14 3.44   9 3.44  23 3.52  23 3.52  15 3.52  12 3.52  24 3.58  19 3.71
                            16 3.71  11 3.71   3 4.39   3 4.39   1 4.60
   8  0.249  0.750  0.600-  10 3.44  13 3.44  24 3.52  24 3.52  11 3.52  16 3.52  23 3.58  20 3.71
                            12 3.71  15 3.71   4 4.39   4 4.39   2 4.60
   9  0.073  0.072  0.147-  14 2.42  21 2.44  19 2.45   3 3.44   7 3.44   5 3.44
  10  0.304  0.928  0.853-  13 2.42  22 2.44  20 2.45   4 3.44   8 3.44   6 3.44
  11  0.115  0.929  0.657-  16 2.42  23 2.44  17 2.45   4 3.42   1 3.45   5 3.52   8 3.52   7 3.71

  12  0.263  0.071  0.343-  15 2.42  24 2.44  18 2.45   3 3.42   2 3.45   6 3.52   7 3.52   8 3.71

  13  0.304  0.572  0.853-  10 2.42  22 2.44  20 2.45   4 3.44   8 3.44   6 3.44
  14  0.073  0.428  0.147-   9 2.42  21 2.44  19 2.45   3 3.44   7 3.44   5 3.44
  15  0.263  0.429  0.343-  12 2.42  24 2.44  18 2.45   3 3.42   2 3.45   6 3.52   7 3.52   8 3.71

  16  0.115  0.571  0.657-  11 2.42  23 2.44  17 2.45   4 3.42   1 3.45   5 3.52   8 3.52   7 3.71

  17  0.031  0.750  0.598-  23 2.44  11 2.45  16 2.45   1 3.66   1 3.66   5 3.78
  18  0.346  0.250  0.402-  24 2.44  15 2.45  12 2.45   2 3.66   2 3.66   6 3.78
  19  0.157  0.250  0.086-  21 2.43  14 2.45   9 2.45   4 3.31   3 3.64   3 3.64   7 3.71   6 3.87

  20  0.221  0.750  0.914-  22 2.43  10 2.45  13 2.45   3 3.31   4 3.64   4 3.64   8 3.71   5 3.87

  21  0.074  0.250  0.964-  19 2.43  14 2.44   9 2.44   4 3.40   1 3.42   5 3.45   5 3.45
  22  0.303  0.750  0.036-  20 2.43  10 2.44  13 2.44   3 3.40   2 3.42   6 3.45   6 3.45
  23  0.113  0.750  0.475-  17 2.44  11 2.44  16 2.44   7 3.52   7 3.52   8 3.58   3 3.71
  24  0.264  0.250  0.525-  18 2.44  15 2.44  12 2.44   8 3.52   8 3.52   7 3.58   4 3.71
 
  LATTYP: Found a simple orthorhombic cell.
 ALAT       =     6.7778496742
 B/A-ratio  =     1.7117734747
 C/A-ratio  =     3.5423429602
  
  Lattice vectors:
  
 A1 = (   0.0000000000,   6.7778496742,   0.0000000000)
 A2 = (   0.0000000000,   0.0000000000, -11.6021432877)
 A3 = ( -24.0094680786,   0.0000000000,   0.0000000000)


Analysis of symmetry for initial positions (statically):
=====================================================================
 Subroutine PRICEL returns:
 Original cell was already a primitive cell.
 

 Routine SETGRP: Setting up the symmetry group for a 
 simple orthorhombic supercell.


 Subroutine GETGRP returns: Found  4 space group operations
 (whereof  1 operations were pure point group operations)
 out of a pool of  8 trial point group operations.


The static configuration has the point symmetry C_1 .
 The point group associated with its full space group is C_2h.


Analysis of symmetry for dynamics (positions and initial velocities):
=====================================================================
 Subroutine PRICEL returns:
 Original cell was already a primitive cell.
 

 Routine SETGRP: Setting up the symmetry group for a 
 simple orthorhombic supercell.


 Subroutine GETGRP returns: Found  4 space group operations
 (whereof  1 operations were pure point group operations)
 out of a pool of  8 trial point group operations.


The dynamic configuration has the point symmetry C_1 .
 The point group associated with its full space group is C_2h.


Analysis of constrained symmetry for selective dynamics:
=====================================================================
 Subroutine PRICEL returns:
 Original cell was already a primitive cell.
 

 Routine SETGRP: Setting up the symmetry group for a 
 simple orthorhombic supercell.


 Subroutine GETGRP returns: Found  4 space group operations
 (whereof  1 operations were pure point group operations)
 out of a pool of  8 trial point group operations.


The constrained configuration has the point symmetry C_1 .
 The point group associated with its full space group is C_2h.


 Subroutine INISYM returns: Found  4 space group operations
 (whereof  1 operations are pure point group operations),
 and found     1 'primitive' translations

 
 
 KPOINTS: k-density: 8.0                          

Automatic generation of k-mesh.
Space group operators:
 irot       det(A)        alpha          n_x          n_y          n_z        tau_x        tau_y        tau_z
    1     1.000000     0.000000     1.000000     0.000000     0.000000     0.000000     0.000000     0.000000
    2    -1.000000     0.000000     1.000000     0.000000     0.000000    -0.622671     0.000000     0.000000
    3     1.000000   180.000000     0.000000     1.000000     0.000000    -0.622671     0.500000     0.000000
    4    -1.000000   180.000000     0.000000     1.000000     0.000000     0.000000     0.500000     0.000000
 
 Subroutine IBZKPT returns following result:
 ===========================================
 
 Found     15 irreducible k-points:
 
 Following reciprocal coordinates:
            Coordinates               Weight
  0.000000  0.000000  0.000000      1.000000
  0.000000  0.125000  0.000000      2.000000
  0.000000  0.250000  0.000000      2.000000
  0.000000  0.375000  0.000000      2.000000
  0.000000  0.500000  0.000000      1.000000
  0.000000  0.000000  0.200000      2.000000
  0.000000  0.125000  0.200000      4.000000
  0.000000  0.250000  0.200000      4.000000
  0.000000  0.375000  0.200000      4.000000
  0.000000  0.500000  0.200000      2.000000
  0.000000  0.000000  0.400000      2.000000
  0.000000  0.125000  0.400000      4.000000
  0.000000  0.250000  0.400000      4.000000
  0.000000  0.375000  0.400000      4.000000
  0.000000  0.500000  0.400000      2.000000
 
 Following cartesian coordinates:
            Coordinates               Weight
  0.000000  0.000000  0.000000      1.000000
  0.000000  0.018442  0.000000      2.000000
  0.000000  0.036885  0.000000      2.000000
  0.000000  0.055327  0.000000      2.000000
  0.000000  0.073770  0.000000      1.000000
  0.000000  0.000000  0.017238      2.000000
  0.000000  0.018442  0.017238      4.000000
  0.000000  0.036885  0.017238      4.000000
  0.000000  0.055327  0.017238      4.000000
  0.000000  0.073770  0.017238      2.000000
  0.000000  0.000000  0.034476      2.000000
  0.000000  0.018442  0.034476      4.000000
  0.000000  0.036885  0.034476      4.000000
  0.000000  0.055327  0.034476      4.000000
  0.000000  0.073770  0.034476      2.000000
 
 TETIRR: Found    108 inequivalent tetrahedra from      240


--------------------------------------------------------------------------------------------------------




 Dimension of arrays:
   k-points           NKPTS =     15   k-points in BZ     NKDIM =     15   number of bands    NBANDS=     88
   number of dos      NEDOS =    301   number of ions     NIONS =     24
   non local maximal  LDIM  =      6   non local SUM 2l+1 LMDIM =     18
   total plane-waves  NPLWV = 358400
   max r-space proj   IRMAX =   3093   max aug-charges    IRDMAX=  12081
   dimension x,y,z NGX =   140 NGY =   40 NGZ =   64
   dimension x,y,z NGXF=   280 NGYF=   80 NGZF=  128
   support grid    NGXF=   280 NGYF=   80 NGZF=  128
   ions per type =               8  16
   NGX,Y,Z   is equivalent  to a cutoff of   9.69,  9.81,  9.17 a.u.
   NGXF,Y,Z  is equivalent  to a cutoff of  19.39, 19.62, 18.34 a.u.

 SYSTEM =  unknown system                          
 POSCAR =  ba8 si16                                

 Startparameter for this run:
   NWRITE =      2    write-flag & timer
   PREC   = normal    normal or accurate (medium, high low for compatibility)
   ISTART =      0    job   : 0-new  1-cont  2-samecut
   ICHARG =      2    charge: 1-file 2-atom 10-const
   ISPIN  =      1    spin polarized calculation?
   LNONCOLLINEAR =      F non collinear calculations
   LSORBIT =      F    spin-orbit coupling
   INIWAV =      1    electr: 0-lowe 1-rand  2-diag
   LASPH  =      T    aspherical Exc in radial PAW
   METAGGA=      F    non-selfconsistent MetaGGA calc.

 Electronic Relaxation 1
   ENCUT  =  500.0 eV  36.75 Ry    6.06 a.u.  43.77 12.36 21.15*2*pi/ulx,y,z
   ENINI  =  500.0     initial cutoff
   ENAUG  =  351.2 eV  augmentation charge cutoff
   NELM   =    100;   NELMIN=  2; NELMDL= -5     # of ELM steps 
   EDIFF  = 0.1E-05   stopping-criterion for ELM
   LREAL  =      T    real-space projection
   NLSPLINE    = F    spline interpolate recip. space projectors
   LCOMPAT=      F    compatible to vasp.4.4
   GGA_COMPAT  = T    GGA compatible to vasp.4.4-vasp.4.6
   LMAXPAW     = -100 max onsite density
   LMAXMIX     =    2 max onsite mixed and CHGCAR
   VOSKOWN=      0    Vosko Wilk Nusair interpolation
   ROPT   =   -0.00050  -0.00050
 Ionic relaxation
   EDIFFG = -.1E-02   stopping-criterion for IOM
   NSW    =      0    number of steps for IOM
   NBLOCK =      1;   KBLOCK =      1    inner block; outer block 
   IBRION =     -1    ionic relax: 0-MD 1-quasi-New 2-CG
   NFREE  =      0    steps in history (QN), initial steepest desc. (CG)
   ISIF   =      2    stress and relaxation
   IWAVPR =     10    prediction:  0-non 1-charg 2-wave 3-comb
   ISYM   =      2    0-nonsym 1-usesym 2-fastsym
   LCORR  =      T    Harris-Foulkes like correction to forces

   POTIM  = 0.3000    time-step for ionic-motion
   TEIN   =    0.0    initial temperature
   TEBEG  =    0.0;   TEEND  =   0.0 temperature during run
   SMASS  =  -3.00    Nose mass-parameter (am)
   estimated Nose-frequenzy (Omega)   =  0.10E-29 period in steps =****** mass=  -0.132E-25a.u.
   SCALEE = 1.0000    scale energy and forces
   NPACO  =    256;   APACO  = 16.0  distance and # of slots for P.C.
   PSTRESS=    0.0 pullay stress

  Mass of Ions in am
   POMASS = 137.33 28.09
  Ionic Valenz
   ZVAL   =  10.00  4.00
  Atomic Wigner-Seitz radii
   RWIGS  =  -1.00 -1.00
  virtual crystal weights 
   VCA    =   1.00  1.00
   NELECT =     144.0000    total number of electrons
   NUPDOWN=      -1.0000    fix difference up-down

 DOS related values:
   EMIN   =  10.00;   EMAX   =-10.00  energy-range for DOS
   EFERMI =   0.00
   ISMEAR =    -5;   SIGMA  =   0.01  broadening in eV -4-tet -1-fermi 0-gaus

 Electronic relaxation 2 (details)
   IALGO  =     38    algorithm
   LDIAG  =      T    sub-space diagonalisation (order eigenvalues)
   LSUBROT=      F    optimize rotation matrix (better conditioning)
   TURBO    =      0    0=normal 1=particle mesh
   IRESTART =      0    0=no restart 2=restart with 2 vectors
   NREBOOT  =      0    no. of reboots
   NMIN     =      0    reboot dimension
   EREF     =   0.00    reference energy to select bands
   IMIX   =      4    mixing-type and parameters
     AMIX     =   0.40;   BMIX     =  1.00
     AMIX_MAG =   1.60;   BMIX_MAG =  1.00
     AMIN     =   0.10
     WC   =   100.;   INIMIX=   1;  MIXPRE=   1;  MAXMIX= -45

 Intra band minimization:
   WEIMIN = 0.0000     energy-eigenvalue tresh-hold
   EBREAK =  0.28E-08  absolut break condition
   DEPER  =   0.30     relativ break condition  

   TIME   =   0.40     timestep for ELM

  volume/ion in A,a.u.               =      78.67       530.88
  Fermi-wavevector in a.u.,A,eV,Ry     =   0.694264  1.311969  6.558046  0.482003
  Thomas-Fermi vector in A             =   1.776709
 
 Write flags
   LWAVE        =      T    write WAVECAR
   LDOWNSAMPLE  =      F    k-point downsampling of WAVECAR
   LCHARG       =      T    write CHGCAR
   LVTOT        =      F    write LOCPOT, total local potential
   LVHAR        =      F    write LOCPOT, Hartree potential only
   LELF         =      F    write electronic localiz. function (ELF)
   LORBIT       =      0    0 simple, 1 ext, 2 COOP (PROOUT), +10 PAW based schemes


 Dipole corrections
   LMONO  =      F    monopole corrections only (constant potential shift)
   LDIPOL =      F    correct potential (dipole corrections)
   IDIPOL =      0    1-x, 2-y, 3-z, 4-all directions 
   EPSILON=  1.0000000 bulk dielectric constant

 Exchange correlation treatment:
   GGA     =    BO    GGA type
   LEXCH   =    42    internal setting for exchange type
   VOSKOWN=      0    Vosko Wilk Nusair interpolation
   LHFCALC =     F    Hartree Fock is set to
   LHFONE  =     F    Hartree Fock one center treatment
   AEXX    =    0.0000 exact exchange contribution

 vdW DFT:
   LUSE_VDW   =     T    switch on vdW DFT
   Zab_VDW    =-.8491    correlation parameter
   PARAM1     =0.1833
   PARAM2     =0.2200
   PARAM3     =0.0000
   -- rVV10 --
   BPARAM     = 6.3000
   CPARAM     = 0.0093

 Linear response parameters
   LEPSILON=     F    determine dielectric tensor
   LRPA    =     F    only Hartree local field effects (RPA)
   LNABLA  =     F    use nabla operator in PAW spheres
   LVEL    =     F    velocity operator in full k-point grid
   LINTERFAST=   F  fast interpolation
   KINTER  =     0    interpolate to denser k-point grid
   CSHIFT  =0.1000    complex shift for real part using Kramers Kronig
   OMEGAMAX=  -1.0    maximum frequency
   DEG_THRESHOLD= 0.2000000E-02 threshold for treating states as degnerate
   RTIME   =   -0.100 relaxation time in fs
  (WPLASMAI=    0.000 imaginary part of plasma frequency in eV, 0.658/RTIME)
   DFIELD  = 0.0000000 0.0000000 0.0000000 field for delta impulse in time
 
 Orbital magnetization related:
   ORBITALMAG=     F  switch on orbital magnetization
   LCHIMAG   =     F  perturbation theory with respect to B field
   DQ        =  0.001000  dq finite difference perturbation B field
   LLRAUG    =     F  two centre corrections for induced B field



--------------------------------------------------------------------------------------------------------


 Static calculation
 charge density and potential will be updated during run
 non-spin polarized calculation
 Variant of blocked Davidson
 Davidson routine will perform the subspace rotation
 perform sub-space diagonalisation
    after iterative eigenvector-optimisation
 modified Broyden-mixing scheme, WC =      100.0
 initial mixing is a Kerker type mixing with AMIX =  0.4000 and BMIX =      1.0000
 Hartree-type preconditioning will be used
 using additional bands           16
 real space projection scheme for non local part
 use partial core corrections
 calculate Harris-corrections to forces 
   (improved forces if not selfconsistent)
 use gradient corrections 
 use of overlap-Matrix (Vanderbilt PP)
 Fermi weights with tetrahedron method with Bloechl corrections


--------------------------------------------------------------------------------------------------------


  energy-cutoff  :      500.00
  volume of cell :     1888.05
      direct lattice vectors                 reciprocal lattice vectors
    24.009468079  0.000000000  0.000000000     0.041650236  0.000000000  0.000000000
     0.000000000  6.777849674  0.000000000     0.000000000  0.147539419  0.000000000
     0.000000000  0.000000000 11.602143288     0.000000000  0.000000000  0.086190971

  length of vectors
    24.009468079  6.777849674 11.602143288     0.041650236  0.147539419  0.086190971


 
 k-points in units of 2pi/SCALE and weight: k-density: 8.0                          
   0.00000000  0.00000000  0.00000000       0.025
   0.00000000  0.01844243  0.00000000       0.050
   0.00000000  0.03688485  0.00000000       0.050
   0.00000000  0.05532728  0.00000000       0.050
   0.00000000  0.07376971  0.00000000       0.025
   0.00000000  0.00000000  0.01723819       0.050
   0.00000000  0.01844243  0.01723819       0.100
   0.00000000  0.03688485  0.01723819       0.100
   0.00000000  0.05532728  0.01723819       0.100
   0.00000000  0.07376971  0.01723819       0.050
   0.00000000  0.00000000  0.03447639       0.050
   0.00000000  0.01844243  0.03447639       0.100
   0.00000000  0.03688485  0.03447639       0.100
   0.00000000  0.05532728  0.03447639       0.100
   0.00000000  0.07376971  0.03447639       0.050
 
 k-points in reciprocal lattice and weights: k-density: 8.0                          
   0.00000000  0.00000000  0.00000000       0.025
   0.00000000  0.12500000  0.00000000       0.050
   0.00000000  0.25000000  0.00000000       0.050
   0.00000000  0.37500000  0.00000000       0.050
   0.00000000  0.50000000  0.00000000       0.025
   0.00000000  0.00000000  0.20000000       0.050
   0.00000000  0.12500000  0.20000000       0.100
   0.00000000  0.25000000  0.20000000       0.100
   0.00000000  0.37500000  0.20000000       0.100
   0.00000000  0.50000000  0.20000000       0.050
   0.00000000  0.00000000  0.40000000       0.050
   0.00000000  0.12500000  0.40000000       0.100
   0.00000000  0.25000000  0.40000000       0.100
   0.00000000  0.37500000  0.40000000       0.100
   0.00000000  0.50000000  0.40000000       0.050
 
 position of ions in fractional coordinates (direct lattice) 
   0.00569361  0.25000000  0.70547855
   0.37163537  0.75000002  0.29452145
   0.18192962  0.75000002  0.18778115
   0.19539936  0.25000000  0.81221883
   0.05978014  0.75000002  0.91839702
   0.31754884  0.25000000  0.08160296
   0.12784309  0.25000000  0.39993347
   0.24948589  0.75000002  0.60006657
   0.07289913  0.07176512  0.14650557
   0.30442985  0.92823487  0.85349441
   0.11472410  0.92883118  0.65743620
   0.26260488  0.07116882  0.34256380
   0.30442985  0.57176513  0.85349441
   0.07289913  0.42823487  0.14650557
   0.26260488  0.42883118  0.34256380
   0.11472410  0.57116882  0.65743620
   0.03110981  0.75000002  0.59763798
   0.34621916  0.25000000  0.40236202
   0.15651343  0.25000000  0.08597604
   0.22081556  0.75000002  0.91402394
   0.07418398  0.25000000  0.96353634
   0.30314500  0.75000002  0.03646368
   0.11343925  0.75000002  0.47464271
   0.26388973  0.25000000  0.52535721
 
 position of ions in cartesian coordinates  (Angst):
   0.13670066  1.69446242  8.18506326
   8.92276745  5.08338737  3.41708003
   4.36803341  5.08338737  2.17866377
   4.69143467  1.69446242  9.42347928
   1.43528938  5.08338737 10.65537384
   7.62417870  1.69446242  0.94676921
   3.06944466  1.69446242  4.64008540
   5.99002342  5.08338737  6.96205837
   1.75026941  0.48641322  1.69977863
   7.30919867  6.29143640  9.90236442
   2.75446463  6.29547808  7.62766895
   6.30500345  0.48237153  3.97447434
   7.30919867  3.87533811  9.90236442
   1.75026941  2.90251156  1.69977863
   6.30500345  2.90655325  3.97447434
   2.75446463  3.87129643  7.62766895
   0.74692994  5.08338737  6.93388153
   8.31253796  1.69446242  4.66826175
   3.75780416  1.69446242  0.99750634
   5.30166416  5.08338737 10.60463671
   1.78111780  1.69446242 11.17908666
   7.27835016  5.08338737  0.42305680
   2.72361612  5.08338737  5.50687276
   6.33585195  1.69446242  6.09526958
 


--------------------------------------------------------------------------------------------------------


 k-point  1 :   0.0000 0.0000 0.0000  plane waves:   47989
 k-point  2 :   0.0000 0.1250 0.0000  plane waves:   47929
 k-point  3 :   0.0000 0.2500 0.0000  plane waves:   47901
 k-point  4 :   0.0000 0.3750 0.0000  plane waves:   47910
 k-point  5 :   0.0000 0.5000 0.0000  plane waves:   47868
 k-point  6 :   0.0000 0.0000 0.2000  plane waves:   48006
 k-point  7 :   0.0000 0.1250 0.2000  plane waves:   47967
 k-point  8 :   0.0000 0.2500 0.2000  plane waves:   47907
 k-point  9 :   0.0000 0.3750 0.2000  plane waves:   47884
 k-point 10 :   0.0000 0.5000 0.2000  plane waves:   47884
 k-point 11 :   0.0000 0.0000 0.4000  plane waves:   47922
 k-point 12 :   0.0000 0.1250 0.4000  plane waves:   47954
 k-point 13 :   0.0000 0.2500 0.4000  plane waves:   47967
 k-point 14 :   0.0000 0.3750 0.4000  plane waves:   47928
 k-point 15 :   0.0000 0.5000 0.4000  plane waves:   47890

 maximum and minimum number of plane-waves per node :     12077    11868

 maximum number of plane-waves:     48006
 maximum index in each direction: 
   IXMAX=   43   IYMAX=   12   IZMAX=   21
   IXMIN=  -43   IYMIN=  -12   IZMIN=  -21


 real space projection operators:
  total allocation   :       4534.08 KBytes
  max/ min on nodes  :       1134.56       1132.16


 parallel 3D FFT for wavefunctions:
    minimum data exchange during FFTs selected (reduces bandwidth)
 parallel 3D FFT for charge:
    minimum data exchange during FFTs selected (reduces bandwidth)


 total amount of memory used by VASP MPI-rank0    79352. kBytes
=======================================================================

   base      :      30000. kBytes
   nonlr-proj:       2646. kBytes
   fftplans  :       5898. kBytes
   grid      :       8824. kBytes
   one-center:         93. kBytes
   wavefun   :      31891. kBytes
 
     INWAV:  cpu time    0.0000: real time    0.0000
 Broyden mixing: mesh for mixing (old mesh)
   NGX = 87   NGY = 25   NGZ = 43
  (NGX  =280   NGY  = 80   NGZ  =128)
  gives a total of  93525 points

 initial charge density was supplied:
 charge density of overlapping atoms calculated
 number of electron     144.0000000 magnetization 
 keeping initial charge density in first step


--------------------------------------------------------------------------------------------------------


 Maximum index for non-local projection operator          745
 Maximum index for augmentation-charges          601 (set IRDMAX)


--------------------------------------------------------------------------------------------------------


 First call to EWALD:  gamma=   0.143
 Maximum number of real-space cells 2x 5x 3
 Maximum number of reciprocal cells 5x 2x 3

    FEWALD:  cpu time    0.0016: real time    0.0017


--------------------------------------- Iteration      1(   1)  ---------------------------------------


    POTLOK:  cpu time13752.1043: real time13785.5288
    SETDIJ:  cpu time  419.4588: real time  420.4779
     EDDAV:  cpu time    2.6458: real time    2.8171
 BZINTS: Fermi energy:  6.841142;144.000000 electrons
         Band energy:-482.204718;  BLOECHL correction: -0.026783
       DOS:  cpu time    0.0123: real time    0.0373
    --------------------------------------------
      LOOP:  cpu time14174.2212: real time14208.8611

 eigenvalue-minimisations  :  2768
 total energy-change (2. order) : 0.1203639E+04  (-0.4776545E+04)
 number of electron     144.0000000 magnetization 
 augmentation part      144.0000000 magnetization 

 Free energy of the ion-electron system (eV)
  ---------------------------------------------------
  alpha Z        PSCENC =       170.45750602
  Ewald energy   TEWEN  =     12483.35769597
  -Hartree energ DENC   =    -18592.85199955
  -exchange      EXHF   =         0.00000000
  -V(xc)+E(xc)   XCENC  =        30.09062048
  PAW double counting   =      3700.71972520    -3383.50420208
  entropy T*S    EENTRO =         0.00000000
  eigenvalues    EBANDS =      -482.20471840
  atomic energy  EATOM  =      7277.57480299
  Solvation  Ediel_sol  =         0.00000000
  ---------------------------------------------------
  free energy    TOTEN  =      1203.63943062 eV

  energy without entropy =     1203.63943062  energy(sigma->0) =     1203.63943062


--------------------------------------------------------------------------------------------------------




--------------------------------------- Iteration      1(   2)  ---------------------------------------


     EDDAV:  cpu time    3.2820: real time    3.3593
 BZINTS: Fermi energy: -2.105277;144.000000 electrons
         Band energy:***********;  BLOECHL correction:  0.000000
       DOS:  cpu time    0.0024: real time    0.0024
    --------------------------------------------
      LOOP:  cpu time    3.2844: real time    3.3617

 eigenvalue-minimisations  :  3808
 total energy-change (2. order) :-0.1128114E+04  (-0.1100683E+04)
 number of electron     144.0000000 magnetization 
 augmentation part      144.0000000 magnetization 

 Free energy of the ion-electron system (eV)
  ---------------------------------------------------
  alpha Z        PSCENC =       170.45750602
  Ewald energy   TEWEN  =     12483.35769597
  -Hartree energ DENC   =    -18592.85199955
  -exchange      EXHF   =         0.00000000
  -V(xc)+E(xc)   XCENC  =        30.09062048
  PAW double counting   =      3700.71972520    -3383.50420208
  entropy T*S    EENTRO =         0.00000000
  eigenvalues    EBANDS =     -1610.31909430
  atomic energy  EATOM  =      7277.57480299
  Solvation  Ediel_sol  =         0.00000000
  ---------------------------------------------------
  free energy    TOTEN  =        75.52505472 eV

  energy without entropy =       75.52505472  energy(sigma->0) =       75.52505472


--------------------------------------------------------------------------------------------------------




--------------------------------------- Iteration      1(   3)  ---------------------------------------


     EDDAV:  cpu time    3.1975: real time    3.2728
 BZINTS: Fermi energy: -3.453473;144.000000 electrons
         Band energy:***********;  BLOECHL correction:  0.000000
       DOS:  cpu time    0.0024: real time    0.0024
    --------------------------------------------
      LOOP:  cpu time    3.1999: real time    3.2752

 eigenvalue-minimisations  :  3224
 total energy-change (2. order) :-0.1724063E+03  (-0.1717145E+03)
 number of electron     144.0000000 magnetization 
 augmentation part      144.0000000 magnetization 

 Free energy of the ion-electron system (eV)
  ---------------------------------------------------
  alpha Z        PSCENC =       170.45750602
  Ewald energy   TEWEN  =     12483.35769597
  -Hartree energ DENC   =    -18592.85199955
  -exchange      EXHF   =         0.00000000
  -V(xc)+E(xc)   XCENC  =        30.09062048
  PAW double counting   =      3700.71972520    -3383.50420208
  entropy T*S    EENTRO =         0.00000000
  eigenvalues    EBANDS =     -1782.72541039
  atomic energy  EATOM  =      7277.57480299
  Solvation  Ediel_sol  =         0.00000000
  ---------------------------------------------------
  free energy    TOTEN  =       -96.88126137 eV

  energy without entropy =      -96.88126137  energy(sigma->0) =      -96.88126137


--------------------------------------------------------------------------------------------------------




--------------------------------------- Iteration      1(   4)  ---------------------------------------


     EDDAV:  cpu time    3.3849: real time    3.4277
 BZINTS: Fermi energy: -3.535041;144.000000 electrons
         Band energy:***********;  BLOECHL correction:  0.000000
       DOS:  cpu time    0.0021: real time    0.0021
    --------------------------------------------
      LOOP:  cpu time    3.3870: real time    3.4299

 eigenvalue-minimisations  :  3744
 total energy-change (2. order) :-0.5939415E+01  (-0.5923400E+01)
 number of electron     144.0000000 magnetization 
 augmentation part      144.0000000 magnetization 

 Free energy of the ion-electron system (eV)
  ---------------------------------------------------
  alpha Z        PSCENC =       170.45750602
  Ewald energy   TEWEN  =     12483.35769597
  -Hartree energ DENC   =    -18592.85199955
  -exchange      EXHF   =         0.00000000
  -V(xc)+E(xc)   XCENC  =        30.09062048
  PAW double counting   =      3700.71972520    -3383.50420208
  entropy T*S    EENTRO =         0.00000000
  eigenvalues    EBANDS =     -1788.66482561
  atomic energy  EATOM  =      7277.57480299
  Solvation  Ediel_sol  =         0.00000000
  ---------------------------------------------------
  free energy    TOTEN  =      -102.82067659 eV

  energy without entropy =     -102.82067659  energy(sigma->0) =     -102.82067659


--------------------------------------------------------------------------------------------------------




--------------------------------------- Iteration      1(   5)  ---------------------------------------


     EDDAV:  cpu time    3.5091: real time    3.5452
 BZINTS: Fermi energy: -3.519127;144.000000 electrons
         Band energy:***********;  BLOECHL correction:  0.000000
       DOS:  cpu time    0.0027: real time    0.0027
    CHARGE:  cpu time    0.1494: real time    0.1593
    MIXING:  cpu time    0.0074: real time    0.0396
    --------------------------------------------
      LOOP:  cpu time    3.6686: real time    3.7467

 eigenvalue-minimisations  :  4184
 total energy-change (2. order) :-0.2743619E+00  (-0.2742825E+00)
 number of electron     143.9999988 magnetization 
 augmentation part      -17.7935765 magnetization 

 Broyden mixing:
  rms(total) = 0.91997E+00    rms(broyden)= 0.91996E+00
  rms(prec ) = 0.12088E+01
  weight for this iteration     100.00

 Free energy of the ion-electron system (eV)
  ---------------------------------------------------
  alpha Z        PSCENC =       170.45750602
  Ewald energy   TEWEN  =     12483.35769597
  -Hartree energ DENC   =    -18592.85199955
  -exchange      EXHF   =         0.00000000
  -V(xc)+E(xc)   XCENC  =        30.09062048
  PAW double counting   =      3700.71972520    -3383.50420208
  entropy T*S    EENTRO =         0.00000000
  eigenvalues    EBANDS =     -1788.93918749
  atomic energy  EATOM  =      7277.57480299
  Solvation  Ediel_sol  =         0.00000000
  ---------------------------------------------------
  free energy    TOTEN  =      -103.09503847 eV

  energy without entropy =     -103.09503847  energy(sigma->0) =     -103.09503847


--------------------------------------------------------------------------------------------------------




--------------------------------------- Iteration      1(   6)  ---------------------------------------


    POTLOK:  cpu time    2.5196: real time    2.5371
    SETDIJ:  cpu time    0.0016: real time    0.0016
     EDDAV:  cpu time    2.7877: real time    2.7943
 BZINTS: Fermi energy: -2.285139;144.000000 electrons
         Band energy:***********;  BLOECHL correction:  0.000000
       DOS:  cpu time    0.0024: real time    0.0024
    CHARGE:  cpu time    0.1614: real time    0.1618
    MIXING:  cpu time    0.0071: real time    0.0072
    --------------------------------------------
      LOOP:  cpu time    5.4798: real time    5.5043

 eigenvalue-minimisations  :  3016
 total energy-change (2. order) : 0.8404075E+01  (-0.2105293E+01)
 number of electron     143.9999987 magnetization 
 augmentation part      -17.6600159 magnetization 

 Broyden mixing:
  rms(total) = 0.47133E+00    rms(broyden)= 0.47133E+00
  rms(prec ) = 0.59318E+00
  weight for this iteration     100.00

 eigenvalues of (default mixing * dielectric matrix)
  average eigenvalue GAMMA=   1.5340
  1.5340

 Free energy of the ion-electron system (eV)
  ---------------------------------------------------
  alpha Z        PSCENC =       170.45750602
  Ewald energy   TEWEN  =     12483.35769597
  -Hartree energ DENC   =    -18693.67801148
  -exchange      EXHF   =         0.00000000
  -V(xc)+E(xc)   XCENC  =        32.85832245
  PAW double counting   =      3741.06145279    -3431.02559429
  entropy T*S    EENTRO =         0.00000000
  eigenvalues    EBANDS =     -1675.29713788
  atomic energy  EATOM  =      7277.57480299
  Solvation  Ediel_sol  =         0.00000000
  ---------------------------------------------------
  free energy    TOTEN  =       -94.69096344 eV

  energy without entropy =      -94.69096344  energy(sigma->0) =      -94.69096344


--------------------------------------------------------------------------------------------------------




--------------------------------------- Iteration      1(   7)  ---------------------------------------


    POTLOK:  cpu time    2.4453: real time    2.4623
    SETDIJ:  cpu time    0.0016: real time    0.0016
     EDDAV:  cpu time    2.9295: real time    2.9365
 BZINTS: Fermi energy: -1.435077;144.000000 electrons
         Band energy:***********;  BLOECHL correction:  0.000000
       DOS:  cpu time    0.0020: real time    0.0020
    CHARGE:  cpu time    0.1408: real time    0.1412
    MIXING:  cpu time    0.0048: real time    0.0052
    --------------------------------------------
      LOOP:  cpu time    5.5241: real time    5.5488

 eigenvalue-minimisations  :  3480
 total energy-change (2. order) : 0.1289717E+01  (-0.1009482E+01)
 number of electron     143.9999986 magnetization 
 augmentation part      -17.7128554 magnetization 

 Broyden mixing:
  rms(total) = 0.25176E+00    rms(broyden)= 0.25176E+00
  rms(prec ) = 0.30075E+00
  weight for this iteration     100.00

 eigenvalues of (default mixing * dielectric matrix)
  average eigenvalue GAMMA=   1.8418
  1.8418  1.8418

 Free energy of the ion-electron system (eV)
  ---------------------------------------------------
  alpha Z        PSCENC =       170.45750602
  Ewald energy   TEWEN  =     12483.35769597
  -Hartree energ DENC   =    -18774.81882703
  -exchange      EXHF   =         0.00000000
  -V(xc)+E(xc)   XCENC  =        35.19291544
  PAW double counting   =      3791.32051664    -3487.11038328
  entropy T*S    EENTRO =         0.00000000
  eigenvalues    EBANDS =     -1589.37547350
  atomic energy  EATOM  =      7277.57480299
  Solvation  Ediel_sol  =         0.00000000
  ---------------------------------------------------
  free energy    TOTEN  =       -93.40124676 eV

  energy without entropy =      -93.40124676  energy(sigma->0) =      -93.40124676


--------------------------------------------------------------------------------------------------------




--------------------------------------- Iteration      1(   8)  ---------------------------------------


    POTLOK:  cpu time    2.5347: real time    2.5530
    SETDIJ:  cpu time    0.0019: real time    0.0019
     EDDAV:  cpu time    2.7843: real time    2.7912
 BZINTS: Fermi energy: -1.316616;144.000000 electrons
         Band energy:***********;  BLOECHL correction:  0.000000
       DOS:  cpu time    0.0031: real time    0.0031
    CHARGE:  cpu time    0.1441: real time    0.1445
    MIXING:  cpu time    0.0052: real time    0.0059
    --------------------------------------------
      LOOP:  cpu time    5.4732: real time    5.4995

 eigenvalue-minimisations  :  3112
 total energy-change (2. order) : 0.2506512E+00  (-0.3721013E+00)
 number of electron     143.9999987 magnetization 
 augmentation part      -17.8250194 magnetization 

 Broyden mixing:
  rms(total) = 0.12101E+00    rms(broyden)= 0.12101E+00
  rms(prec ) = 0.19643E+00
  weight for this iteration     100.00

 eigenvalues of (default mixing * dielectric matrix)
  average eigenvalue GAMMA=   1.6862
  2.6613  1.1987  1.1987

 Free energy of the ion-electron system (eV)
  ---------------------------------------------------
  alpha Z        PSCENC =       170.45750602
  Ewald energy   TEWEN  =     12483.35769597
  -Hartree energ DENC   =    -18807.76115223
  -exchange      EXHF   =         0.00000000
  -V(xc)+E(xc)   XCENC  =        36.21713839
  PAW double counting   =      3841.55235980    -3539.13911713
  entropy T*S    EENTRO =         0.00000000
  eigenvalues    EBANDS =     -1555.40982933
  atomic energy  EATOM  =      7277.57480299
  Solvation  Ediel_sol  =         0.00000000
  ---------------------------------------------------
  free energy    TOTEN  =       -93.15059552 eV

  energy without entropy =      -93.15059552  energy(sigma->0) =      -93.15059552


--------------------------------------------------------------------------------------------------------




--------------------------------------- Iteration      1(   9)  ---------------------------------------


    POTLOK:  cpu time    2.5318: real time    2.5488
    SETDIJ:  cpu time    0.0016: real time    0.0016
     EDDAV:  cpu time    3.0742: real time    3.0815
 BZINTS: Fermi energy: -0.875725;144.000000 electrons
         Band energy:***********;  BLOECHL correction:  0.000000
       DOS:  cpu time    0.0033: real time    0.0033
    CHARGE:  cpu time    0.1615: real time    0.1619
    MIXING:  cpu time    0.0046: real time    0.0046
    --------------------------------------------
      LOOP:  cpu time    5.7769: real time    5.8016

 eigenvalue-minimisations  :  3104
 total energy-change (2. order) : 0.2956396E+00  (-0.1268069E+00)
 number of electron     143.9999986 magnetization 
 augmentation part      -17.7909577 magnetization 

 Broyden mixing:
  rms(total) = 0.57021E-01    rms(broyden)= 0.57020E-01
  rms(prec ) = 0.78676E-01
  weight for this iteration     100.00

 eigenvalues of (default mixing * dielectric matrix)
  average eigenvalue GAMMA=   1.4056
  2.5929  1.2107  1.2107  0.6079

 Free energy of the ion-electron system (eV)
  ---------------------------------------------------
  alpha Z        PSCENC =       170.45750602
  Ewald energy   TEWEN  =     12483.35769597
  -Hartree energ DENC   =    -18851.18680985
  -exchange      EXHF   =         0.00000000
  -V(xc)+E(xc)   XCENC  =        37.20055019
  PAW double counting   =      3854.70424083    -3553.73162742
  entropy T*S    EENTRO =         0.00000000
  eigenvalues    EBANDS =     -1511.23131467
  atomic energy  EATOM  =      7277.57480299
  Solvation  Ediel_sol  =         0.00000000
  ---------------------------------------------------
  free energy    TOTEN  =       -92.85495594 eV

  energy without entropy =      -92.85495594  energy(sigma->0) =      -92.85495594


--------------------------------------------------------------------------------------------------------




--------------------------------------- Iteration      1(  10)  ---------------------------------------


    POTLOK:  cpu time    2.5092: real time    2.5264
    SETDIJ:  cpu time    0.0024: real time    0.0024
     EDDAV:  cpu time    2.9973: real time    3.0044
 BZINTS: Fermi energy: -0.838890;144.000000 electrons
         Band energy:***********;  BLOECHL correction:  0.000000
       DOS:  cpu time    0.0023: real time    0.0023
    CHARGE:  cpu time    0.1442: real time    0.1446
    MIXING:  cpu time    0.0069: real time    0.0069
    --------------------------------------------
      LOOP:  cpu time    5.6622: real time    5.6869

 eigenvalue-minimisations  :  3472
 total energy-change (2. order) : 0.1079059E-01  (-0.2441929E-01)
 number of electron     143.9999986 magnetization 
 augmentation part      -17.8069709 magnetization 

 Broyden mixing:
  rms(total) = 0.41403E-01    rms(broyden)= 0.41403E-01
  rms(prec ) = 0.61572E-01
  weight for this iteration     100.00

 eigenvalues of (default mixing * dielectric matrix)
  average eigenvalue GAMMA=   1.5459
  2.5522  2.1505  1.1565  0.9351  0.9351

 Free energy of the ion-electron system (eV)
  ---------------------------------------------------
  alpha Z        PSCENC =       170.45750602
  Ewald energy   TEWEN  =     12483.35769597
  -Hartree energ DENC   =    -18858.24847762
  -exchange      EXHF   =         0.00000000
  -V(xc)+E(xc)   XCENC  =        37.18240868
  PAW double counting   =      3849.29471734    -3547.97195937
  entropy T*S    EENTRO =         0.00000000
  eigenvalues    EBANDS =     -1504.49085937
  atomic energy  EATOM  =      7277.57480299
  Solvation  Ediel_sol  =         0.00000000
  ---------------------------------------------------
  free energy    TOTEN  =       -92.84416535 eV

  energy without entropy =      -92.84416535  energy(sigma->0) =      -92.84416535


--------------------------------------------------------------------------------------------------------




--------------------------------------- Iteration      1(  11)  ---------------------------------------


    POTLOK:  cpu time    2.4922: real time    2.5090
    SETDIJ:  cpu time    0.0017: real time    0.0017
     EDDAV:  cpu time    2.9048: real time    2.9117
 BZINTS: Fermi energy: -0.736465;144.000000 electrons
         Band energy:***********;  BLOECHL correction:  0.000000
       DOS:  cpu time    0.0024: real time    0.0024
    CHARGE:  cpu time    0.1817: real time    0.1821
    MIXING:  cpu time    0.0059: real time    0.0059
    --------------------------------------------
      LOOP:  cpu time    5.5886: real time    5.6128

 eigenvalue-minimisations  :  3248
 total energy-change (2. order) : 0.3281992E-01  (-0.6383049E-02)
 number of electron     143.9999986 magnetization 
 augmentation part      -17.8105724 magnetization 

 Broyden mixing:
  rms(total) = 0.16669E-01    rms(broyden)= 0.16669E-01
  rms(prec ) = 0.33005E-01
  weight for this iteration     100.00

 eigenvalues of (default mixing * dielectric matrix)
  average eigenvalue GAMMA=   1.5911
  2.7512  2.7512  1.2323  0.9316  0.9400  0.9400

 Free energy of the ion-electron system (eV)
  ---------------------------------------------------
  alpha Z        PSCENC =       170.45750602
  Ewald energy   TEWEN  =     12483.35769597
  -Hartree energ DENC   =    -18873.74109222
  -exchange      EXHF   =         0.00000000
  -V(xc)+E(xc)   XCENC  =        37.33765769
  PAW double counting   =      3849.90756869    -3548.31234705
  entropy T*S    EENTRO =         0.00000000
  eigenvalues    EBANDS =     -1489.39313752
  atomic energy  EATOM  =      7277.57480299
  Solvation  Ediel_sol  =         0.00000000
  ---------------------------------------------------
  free energy    TOTEN  =       -92.81134543 eV

  energy without entropy =      -92.81134543  energy(sigma->0) =      -92.81134543


--------------------------------------------------------------------------------------------------------




--------------------------------------- Iteration      1(  12)  ---------------------------------------


    POTLOK:  cpu time    2.4275: real time    2.4440
    SETDIJ:  cpu time    0.0033: real time    0.0033
     EDDAV:  cpu time    2.7050: real time    2.7114
 BZINTS: Fermi energy: -0.662105;144.000000 electrons
         Band energy:***********;  BLOECHL correction:  0.000000
       DOS:  cpu time    0.0023: real time    0.0024
    CHARGE:  cpu time    0.1488: real time    0.1491
    MIXING:  cpu time    0.0051: real time    0.0051
    --------------------------------------------
      LOOP:  cpu time    5.2921: real time    5.3154

 eigenvalue-minimisations  :  3304
 total energy-change (2. order) :-0.2107680E-01  (-0.1599112E-02)
 number of electron     143.9999986 magnetization 
 augmentation part      -17.8049498 magnetization 

 Broyden mixing:
  rms(total) = 0.12088E-01    rms(broyden)= 0.12088E-01
  rms(prec ) = 0.21094E-01
  weight for this iteration     100.00

 eigenvalues of (default mixing * dielectric matrix)
  average eigenvalue GAMMA=   1.7169
  3.4394  2.5840  1.9898  1.1245  1.1245  0.8780  0.8780

 Free energy of the ion-electron system (eV)
  ---------------------------------------------------
  alpha Z        PSCENC =       170.45750602
  Ewald energy   TEWEN  =     12483.35769597
  -Hartree energ DENC   =    -18886.48057762
  -exchange      EXHF   =         0.00000000
  -V(xc)+E(xc)   XCENC  =        37.37190745
  PAW double counting   =      3847.12679625    -3545.34605007
  entropy T*S    EENTRO =         0.00000000
  eigenvalues    EBANDS =     -1476.89450322
  atomic energy  EATOM  =      7277.57480299
  Solvation  Ediel_sol  =         0.00000000
  ---------------------------------------------------
  free energy    TOTEN  =       -92.83242223 eV

  energy without entropy =      -92.83242223  energy(sigma->0) =      -92.83242223


--------------------------------------------------------------------------------------------------------




--------------------------------------- Iteration      1(  13)  ---------------------------------------


    POTLOK:  cpu time    2.5303: real time    2.5474
    SETDIJ:  cpu time    0.0020: real time    0.0020
     EDDAV:  cpu time    2.9721: real time    2.9792
 BZINTS: Fermi energy: -0.618412;144.000000 electrons
         Band energy:***********;  BLOECHL correction:  0.000000
       DOS:  cpu time    0.0023: real time    0.0023
    CHARGE:  cpu time    0.1458: real time    0.1461
    MIXING:  cpu time    0.0062: real time    0.0063
    --------------------------------------------
      LOOP:  cpu time    5.6587: real time    5.6832

 eigenvalue-minimisations  :  3416
 total energy-change (2. order) : 0.8053505E-02  (-0.8005074E-03)
 number of electron     143.9999986 magnetization 
 augmentation part      -17.8059982 magnetization 

 Broyden mixing:
  rms(total) = 0.60002E-02    rms(broyden)= 0.60002E-02
  rms(prec ) = 0.10168E-01
  weight for this iteration     100.00

 eigenvalues of (default mixing * dielectric matrix)
  average eigenvalue GAMMA=   1.7775
  4.0171  2.8010  2.3337  1.2235  1.2235  0.8852  0.8679  0.8679

 Free energy of the ion-electron system (eV)
  ---------------------------------------------------
  alpha Z        PSCENC =       170.45750602
  Ewald energy   TEWEN  =     12483.35769597
  -Hartree energ DENC   =    -18896.38864190
  -exchange      EXHF   =         0.00000000
  -V(xc)+E(xc)   XCENC  =        37.43509511
  PAW double counting   =      3845.70084991    -3544.01801941
  entropy T*S    EENTRO =         0.00000000
  eigenvalues    EBANDS =     -1466.94365742
  atomic energy  EATOM  =      7277.57480299
  Solvation  Ediel_sol  =         0.00000000
  ---------------------------------------------------
  free energy    TOTEN  =       -92.82436873 eV

  energy without entropy =      -92.82436873  energy(sigma->0) =      -92.82436873


--------------------------------------------------------------------------------------------------------




--------------------------------------- Iteration      1(  14)  ---------------------------------------


    POTLOK:  cpu time    2.5403: real time    2.5575
    SETDIJ:  cpu time    0.0020: real time    0.0019
     EDDAV:  cpu time    2.9924: real time    2.9995
 BZINTS: Fermi energy: -0.600514;144.000000 electrons
         Band energy:***********;  BLOECHL correction:  0.000000
       DOS:  cpu time    0.0022: real time    0.0022
    CHARGE:  cpu time    0.1636: real time    0.1640
    MIXING:  cpu time    0.0054: real time    0.0054
    --------------------------------------------
      LOOP:  cpu time    5.7059: real time    5.7306

 eigenvalue-minimisations  :  3120
 total energy-change (2. order) : 0.9160341E-02  (-0.2922908E-03)
 number of electron     143.9999986 magnetization 
 augmentation part      -17.8063335 magnetization 

 Broyden mixing:
  rms(total) = 0.53165E-02    rms(broyden)= 0.53165E-02
  rms(prec ) = 0.84902E-02
  weight for this iteration     100.00

 eigenvalues of (default mixing * dielectric matrix)
  average eigenvalue GAMMA=   1.8419
  4.4492  3.1086  1.9249  1.9249  0.8872  0.8872  1.3093  1.0428  1.0428

 Free energy of the ion-electron system (eV)
  ---------------------------------------------------
  alpha Z        PSCENC =       170.45750602
  Ewald energy   TEWEN  =     12483.35769597
  -Hartree energ DENC   =    -18900.11333948
  -exchange      EXHF   =         0.00000000
  -V(xc)+E(xc)   XCENC  =        37.45687787
  PAW double counting   =      3845.02720904    -3543.35616852
  entropy T*S    EENTRO =         0.00000000
  eigenvalues    EBANDS =     -1463.21979228
  atomic energy  EATOM  =      7277.57480299
  Solvation  Ediel_sol  =         0.00000000
  ---------------------------------------------------
  free energy    TOTEN  =       -92.81520838 eV

  energy without entropy =      -92.81520838  energy(sigma->0) =      -92.81520838


--------------------------------------------------------------------------------------------------------




--------------------------------------- Iteration      1(  15)  ---------------------------------------


    POTLOK:  cpu time    2.4337: real time    2.4509
    SETDIJ:  cpu time    0.0017: real time    0.0017
     EDDAV:  cpu time    2.5737: real time    2.5798
 BZINTS: Fermi energy: -0.601775;144.000000 electrons
         Band energy:***********;  BLOECHL correction:  0.000000
       DOS:  cpu time    0.0023: real time    0.0023
    CHARGE:  cpu time    0.1404: real time    0.1407
    MIXING:  cpu time    0.0076: real time    0.0076
    --------------------------------------------
      LOOP:  cpu time    5.1594: real time    5.1831

 eigenvalue-minimisations  :  2896
 total energy-change (2. order) :-0.1948838E-02  (-0.2400341E-03)
 number of electron     143.9999986 magnetization 
 augmentation part      -17.8078223 magnetization 

 Broyden mixing:
  rms(total) = 0.17955E-02    rms(broyden)= 0.17955E-02
  rms(prec ) = 0.34831E-02
  weight for this iteration     100.00

 eigenvalues of (default mixing * dielectric matrix)
  average eigenvalue GAMMA=   1.9297
  5.3852  3.3391  2.5557  1.6027  0.8868  0.8868  1.3131  1.3131  1.0073  1.0073

 Free energy of the ion-electron system (eV)
  ---------------------------------------------------
  alpha Z        PSCENC =       170.45750602
  Ewald energy   TEWEN  =     12483.35769597
  -Hartree energ DENC   =    -18901.49866465
  -exchange      EXHF   =         0.00000000
  -V(xc)+E(xc)   XCENC  =        37.44802220
  PAW double counting   =      3845.51283481    -3543.81905567
  entropy T*S    EENTRO =         0.00000000
  eigenvalues    EBANDS =     -1461.85029889
  atomic energy  EATOM  =      7277.57480299
  Solvation  Ediel_sol  =         0.00000000
  ---------------------------------------------------
  free energy    TOTEN  =       -92.81715722 eV

  energy without entropy =      -92.81715722  energy(sigma->0) =      -92.81715722


--------------------------------------------------------------------------------------------------------




--------------------------------------- Iteration      1(  16)  ---------------------------------------


    POTLOK:  cpu time    2.4570: real time    2.4740
    SETDIJ:  cpu time    0.0015: real time    0.0015
     EDDAV:  cpu time    2.6349: real time    2.6412
 BZINTS: Fermi energy: -0.570835;144.000000 electrons
         Band energy:***********;  BLOECHL correction:  0.000000
       DOS:  cpu time    0.0019: real time    0.0019
    CHARGE:  cpu time    0.1508: real time    0.1512
    MIXING:  cpu time    0.0058: real time    0.0059
    --------------------------------------------
      LOOP:  cpu time    5.2520: real time    5.2757

 eigenvalue-minimisations  :  3096
 total energy-change (2. order) : 0.5718200E-03  (-0.1214933E-03)
 number of electron     143.9999986 magnetization 
 augmentation part      -17.8077034 magnetization 

 Broyden mixing:
  rms(total) = 0.14243E-02    rms(broyden)= 0.14243E-02
  rms(prec ) = 0.24752E-02
  weight for this iteration     100.00

 eigenvalues of (default mixing * dielectric matrix)
  average eigenvalue GAMMA=   2.0032
  5.7057  3.7028  2.4544  1.9188  1.9188  0.8887  0.8887  1.3516  1.1784  1.0137
  1.0137

 Free energy of the ion-electron system (eV)
  ---------------------------------------------------
  alpha Z        PSCENC =       170.45750602
  Ewald energy   TEWEN  =     12483.35769597
  -Hartree energ DENC   =    -18902.98208332
  -exchange      EXHF   =         0.00000000
  -V(xc)+E(xc)   XCENC  =        37.45261599
  PAW double counting   =      3845.69311008    -3544.01371738
  entropy T*S    EENTRO =         0.00000000
  eigenvalues    EBANDS =     -1460.35651575
  atomic energy  EATOM  =      7277.57480299
  Solvation  Ediel_sol  =         0.00000000
  ---------------------------------------------------
  free energy    TOTEN  =       -92.81658540 eV

  energy without entropy =      -92.81658540  energy(sigma->0) =      -92.81658540


--------------------------------------------------------------------------------------------------------




--------------------------------------- Iteration      1(  17)  ---------------------------------------


    POTLOK:  cpu time    2.4779: real time    2.4950
    SETDIJ:  cpu time    0.0022: real time    0.0022
     EDDAV:  cpu time    2.8638: real time    2.8706
 BZINTS: Fermi energy: -0.564530;144.000000 electrons
         Band energy:***********;  BLOECHL correction:  0.000000
       DOS:  cpu time    0.0028: real time    0.0028
    CHARGE:  cpu time    0.1502: real time    0.1506
    MIXING:  cpu time    0.0057: real time    0.0058
    --------------------------------------------
      LOOP:  cpu time    5.5028: real time    5.5270

 eigenvalue-minimisations  :  2928
 total energy-change (2. order) : 0.2526753E-03  (-0.9102545E-04)
 number of electron     143.9999986 magnetization 
 augmentation part      -17.8076943 magnetization 

 Broyden mixing:
  rms(total) = 0.77487E-03    rms(broyden)= 0.77487E-03
  rms(prec ) = 0.14841E-02
  weight for this iteration     100.00

 eigenvalues of (default mixing * dielectric matrix)
  average eigenvalue GAMMA=   1.9918
  5.9604  3.9312  2.7447  2.1698  1.4544  1.4544  0.8882  0.8882  1.3951  1.0184
  1.0184  0.9785

 Free energy of the ion-electron system (eV)
  ---------------------------------------------------
  alpha Z        PSCENC =       170.45750602
  Ewald energy   TEWEN  =     12483.35769597
  -Hartree energ DENC   =    -18904.07032255
  -exchange      EXHF   =         0.00000000
  -V(xc)+E(xc)   XCENC  =        37.45444584
  PAW double counting   =      3845.61419042    -3543.92985241
  entropy T*S    EENTRO =         0.00000000
  eigenvalues    EBANDS =     -1459.27479901
  atomic energy  EATOM  =      7277.57480299
  Solvation  Ediel_sol  =         0.00000000
  ---------------------------------------------------
  free energy    TOTEN  =       -92.81633273 eV

  energy without entropy =      -92.81633273  energy(sigma->0) =      -92.81633273


--------------------------------------------------------------------------------------------------------




--------------------------------------- Iteration      1(  18)  ---------------------------------------


    POTLOK:  cpu time    2.4628: real time    2.4800
    SETDIJ:  cpu time    0.0016: real time    0.0016
     EDDAV:  cpu time    2.3282: real time    2.3337
 BZINTS: Fermi energy: -0.565971;144.000000 electrons
         Band energy:***********;  BLOECHL correction:  0.000000
       DOS:  cpu time    0.0020: real time    0.0020
    CHARGE:  cpu time    0.1580: real time    0.1584
    MIXING:  cpu time    0.0072: real time    0.0073
    --------------------------------------------
      LOOP:  cpu time    4.9598: real time    4.9828

 eigenvalue-minimisations  :  2512
 total energy-change (2. order) :-0.3384881E-03  (-0.2479685E-04)
 number of electron     143.9999986 magnetization 
 augmentation part      -17.8076495 magnetization 

 Broyden mixing:
  rms(total) = 0.51626E-03    rms(broyden)= 0.51626E-03
  rms(prec ) = 0.98044E-03
  weight for this iteration     100.00

 eigenvalues of (default mixing * dielectric matrix)
  average eigenvalue GAMMA=   2.0682
  6.3447  4.4326  2.6721  2.6721  1.8902  1.4087  1.4087  0.8877  0.8877  1.1662
  1.1662  0.9746  0.9746

 Free energy of the ion-electron system (eV)
  ---------------------------------------------------
  alpha Z        PSCENC =       170.45750602
  Ewald energy   TEWEN  =     12483.35769597
  -Hartree energ DENC   =    -18904.47159696
  -exchange      EXHF   =         0.00000000
  -V(xc)+E(xc)   XCENC  =        37.45605492
  PAW double counting   =      3845.63914948    -3543.95404064
  entropy T*S    EENTRO =         0.00000000
  eigenvalues    EBANDS =     -1458.87624300
  atomic energy  EATOM  =      7277.57480299
  Solvation  Ediel_sol  =         0.00000000
  ---------------------------------------------------
  free energy    TOTEN  =       -92.81667122 eV

  energy without entropy =      -92.81667122  energy(sigma->0) =      -92.81667122


--------------------------------------------------------------------------------------------------------




--------------------------------------- Iteration      1(  19)  ---------------------------------------


    POTLOK:  cpu time    2.4809: real time    2.4974
    SETDIJ:  cpu time    0.0015: real time    0.0015
     EDDAV:  cpu time    2.3048: real time    2.3103
 BZINTS: Fermi energy: -0.565678;144.000000 electrons
         Band energy:***********;  BLOECHL correction:  0.000000
       DOS:  cpu time    0.0019: real time    0.0019
    CHARGE:  cpu time    0.1454: real time    0.1457
    MIXING:  cpu time    0.0063: real time    0.0064
    --------------------------------------------
      LOOP:  cpu time    4.9408: real time    4.9632

 eigenvalue-minimisations  :  2520
 total energy-change (2. order) :-0.5709916E-03  (-0.2047296E-04)
 number of electron     143.9999986 magnetization 
 augmentation part      -17.8078212 magnetization 

 Broyden mixing:
  rms(total) = 0.41390E-03    rms(broyden)= 0.41390E-03
  rms(prec ) = 0.63958E-03
  weight for this iteration     100.00

 eigenvalues of (default mixing * dielectric matrix)
  average eigenvalue GAMMA=   2.1066
  6.5690  4.8811  3.0560  2.6801  1.7572  1.6185  1.6185  0.8879  0.8879  1.2912
  1.2912  0.9466  1.0037  1.0037

 Free energy of the ion-electron system (eV)
  ---------------------------------------------------
  alpha Z        PSCENC =       170.45750602
  Ewald energy   TEWEN  =     12483.35769597
  -Hartree energ DENC   =    -18904.89239888
  -exchange      EXHF   =         0.00000000
  -V(xc)+E(xc)   XCENC  =        37.45522380
  PAW double counting   =      3845.56198534    -3543.87404793
  entropy T*S    EENTRO =         0.00000000
  eigenvalues    EBANDS =     -1458.45800951
  atomic energy  EATOM  =      7277.57480299
  Solvation  Ediel_sol  =         0.00000000
  ---------------------------------------------------
  free energy    TOTEN  =       -92.81724221 eV

  energy without entropy =      -92.81724221  energy(sigma->0) =      -92.81724221


--------------------------------------------------------------------------------------------------------




--------------------------------------- Iteration      1(  20)  ---------------------------------------


    POTLOK:  cpu time    2.4936: real time    2.5106
    SETDIJ:  cpu time    0.0016: real time    0.0016
     EDDAV:  cpu time    2.5389: real time    2.5450
 BZINTS: Fermi energy: -0.569727;144.000000 electrons
         Band energy:***********;  BLOECHL correction:  0.000000
       DOS:  cpu time    0.0028: real time    0.0028
    CHARGE:  cpu time    0.1415: real time    0.1418
    MIXING:  cpu time    0.0073: real time    0.0073
    --------------------------------------------
      LOOP:  cpu time    5.1857: real time    5.2092

 eigenvalue-minimisations  :  2464
 total energy-change (2. order) :-0.4449596E-03  (-0.1629622E-04)
 number of electron     143.9999986 magnetization 
 augmentation part      -17.8079039 magnetization 

 Broyden mixing:
  rms(total) = 0.25239E-03    rms(broyden)= 0.25239E-03
  rms(prec ) = 0.38597E-03
  weight for this iteration     100.00

 eigenvalues of (default mixing * dielectric matrix)
  average eigenvalue GAMMA=   2.2459
  7.1643  6.0249  3.1885  3.1885  2.4480  1.6175  1.6175  0.8879  0.8879  1.2997
  1.2997  1.0715  1.0715  0.9601  0.9601

 Free energy of the ion-electron system (eV)
  ---------------------------------------------------
  alpha Z        PSCENC =       170.45750602
  Ewald energy   TEWEN  =     12483.35769597
  -Hartree energ DENC   =    -18905.00726404
  -exchange      EXHF   =         0.00000000
  -V(xc)+E(xc)   XCENC  =        37.45556642
  PAW double counting   =      3845.57952572    -3543.89107701
  entropy T*S    EENTRO =         0.00000000
  eigenvalues    EBANDS =     -1458.34444323
  atomic energy  EATOM  =      7277.57480299
  Solvation  Ediel_sol  =         0.00000000
  ---------------------------------------------------
  free energy    TOTEN  =       -92.81768717 eV

  energy without entropy =      -92.81768717  energy(sigma->0) =      -92.81768717


--------------------------------------------------------------------------------------------------------




--------------------------------------- Iteration      1(  21)  ---------------------------------------


    POTLOK:  cpu time    2.4672: real time    2.4848
    SETDIJ:  cpu time    0.0018: real time    0.0018
     EDDAV:  cpu time    2.3808: real time    2.3864
 BZINTS: Fermi energy: -0.578811;144.000000 electrons
         Band energy:***********;  BLOECHL correction:  0.000000
       DOS:  cpu time    0.0020: real time    0.0020
    CHARGE:  cpu time    0.1457: real time    0.1461
    MIXING:  cpu time    0.0070: real time    0.0070
    --------------------------------------------
      LOOP:  cpu time    5.0046: real time    5.0281

 eigenvalue-minimisations  :  2576
 total energy-change (2. order) :-0.3927509E-03  (-0.1957129E-04)
 number of electron     143.9999986 magnetization 
 augmentation part      -17.8079243 magnetization 

 Broyden mixing:
  rms(total) = 0.13179E-03    rms(broyden)= 0.13179E-03
  rms(prec ) = 0.15687E-03
  weight for this iteration     100.00

 eigenvalues of (default mixing * dielectric matrix)
  average eigenvalue GAMMA=   2.2810
  7.7210  6.4693  3.2319  3.2319  2.4044  1.8710  1.8710  1.3393  1.3393  0.8879
  0.8879  1.1397  1.1397  0.9888  0.9888  0.9839

 Free energy of the ion-electron system (eV)
  ---------------------------------------------------
  alpha Z        PSCENC =       170.45750602
  Ewald energy   TEWEN  =     12483.35769597
  -Hartree energ DENC   =    -18904.94534471
  -exchange      EXHF   =         0.00000000
  -V(xc)+E(xc)   XCENC  =        37.45479737
  PAW double counting   =      3845.59767504    -3543.91053122
  entropy T*S    EENTRO =         0.00000000
  eigenvalues    EBANDS =     -1458.40468138
  atomic energy  EATOM  =      7277.57480299
  Solvation  Ediel_sol  =         0.00000000
  ---------------------------------------------------
  free energy    TOTEN  =       -92.81807992 eV

  energy without entropy =      -92.81807992  energy(sigma->0) =      -92.81807992


--------------------------------------------------------------------------------------------------------




--------------------------------------- Iteration      1(  22)  ---------------------------------------


    POTLOK:  cpu time    2.4565: real time    2.4734
    SETDIJ:  cpu time    0.0020: real time    0.0020
     EDDAV:  cpu time    2.0592: real time    2.0640
 BZINTS: Fermi energy: -0.583053;144.000000 electrons
         Band energy:***********;  BLOECHL correction:  0.000000
       DOS:  cpu time    0.0020: real time    0.0020
    CHARGE:  cpu time    0.1411: real time    0.1414
    MIXING:  cpu time    0.0064: real time    0.0065
    --------------------------------------------
      LOOP:  cpu time    4.6670: real time    4.6892

 eigenvalue-minimisations  :  2104
 total energy-change (2. order) :-0.3424847E-04  (-0.4109993E-05)
 number of electron     143.9999986 magnetization 
 augmentation part      -17.8078914 magnetization 

 Broyden mixing:
  rms(total) = 0.75487E-04    rms(broyden)= 0.75486E-04
  rms(prec ) = 0.94292E-04
  weight for this iteration     100.00

 eigenvalues of (default mixing * dielectric matrix)
  average eigenvalue GAMMA=   2.3157
  8.5489  6.9096  3.3630  3.3630  2.4757  1.9226  1.9226  0.8879  0.8879  1.2612
  1.2612  1.2364  1.2364  0.9662  0.9662  1.0790  1.0790

 Free energy of the ion-electron system (eV)
  ---------------------------------------------------
  alpha Z        PSCENC =       170.45750602
  Ewald energy   TEWEN  =     12483.35769597
  -Hartree energ DENC   =    -18904.94890020
  -exchange      EXHF   =         0.00000000
  -V(xc)+E(xc)   XCENC  =        37.45457438
  PAW double counting   =      3845.57668053    -3543.88932153
  entropy T*S    EENTRO =         0.00000000
  eigenvalues    EBANDS =     -1458.40115232
  atomic energy  EATOM  =      7277.57480299
  Solvation  Ediel_sol  =         0.00000000
  ---------------------------------------------------
  free energy    TOTEN  =       -92.81811417 eV

  energy without entropy =      -92.81811417  energy(sigma->0) =      -92.81811417


--------------------------------------------------------------------------------------------------------




--------------------------------------- Iteration      1(  23)  ---------------------------------------


    POTLOK:  cpu time    2.4809: real time    2.4971
    SETDIJ:  cpu time    0.0029: real time    0.0029
     EDDAV:  cpu time    2.3648: real time    2.3703
 BZINTS: Fermi energy: -0.591085;144.000000 electrons
         Band energy:***********;  BLOECHL correction:  0.000000
       DOS:  cpu time    0.0021: real time    0.0021
    CHARGE:  cpu time    0.1444: real time    0.1448
    MIXING:  cpu time    0.0067: real time    0.0067
    --------------------------------------------
      LOOP:  cpu time    5.0018: real time    5.0239

 eigenvalue-minimisations  :  2264
 total energy-change (2. order) : 0.7372100E-05  (-0.2929243E-05)
 number of electron     143.9999986 magnetization 
 augmentation part      -17.8078848 magnetization 

 Broyden mixing:
  rms(total) = 0.36705E-04    rms(broyden)= 0.36705E-04
  rms(prec ) = 0.48115E-04
  weight for this iteration     100.00

 eigenvalues of (default mixing * dielectric matrix)
  average eigenvalue GAMMA=   2.3090
  8.6140  7.0830  3.4512  3.4512  2.6516  1.9295  1.9295  0.8879  0.8879  1.4724
  1.4724  1.2837  1.2837  1.0997  1.0997  0.9874  0.9885  0.9885

 Free energy of the ion-electron system (eV)
  ---------------------------------------------------
  alpha Z        PSCENC =       170.45750602
  Ewald energy   TEWEN  =     12483.35769597
  -Hartree energ DENC   =    -18904.92665595
  -exchange      EXHF   =         0.00000000
  -V(xc)+E(xc)   XCENC  =        37.45435772
  PAW double counting   =      3845.57492644    -3543.88755410
  entropy T*S    EENTRO =         0.00000000
  eigenvalues    EBANDS =     -1458.42318588
  atomic energy  EATOM  =      7277.57480299
  Solvation  Ediel_sol  =         0.00000000
  ---------------------------------------------------
  free energy    TOTEN  =       -92.81810679 eV

  energy without entropy =      -92.81810679  energy(sigma->0) =      -92.81810679


--------------------------------------------------------------------------------------------------------




--------------------------------------- Iteration      1(  24)  ---------------------------------------


    POTLOK:  cpu time    2.4812: real time    2.4974
    SETDIJ:  cpu time    0.0017: real time    0.0017
     EDDAV:  cpu time    2.2894: real time    2.2948
 BZINTS: Fermi energy: -0.520156;144.000000 electrons
         Band energy:***********;  BLOECHL correction:  0.000000
       DOS:  cpu time    0.0052: real time    0.0052
    CHARGE:  cpu time    0.1656: real time    0.1660
    MIXING:  cpu time    0.0094: real time    0.0095
    --------------------------------------------
      LOOP:  cpu time    4.9525: real time    4.9746

 eigenvalue-minimisations  :  2320
 total energy-change (2. order) : 0.5176305E-05  (-0.2676735E-05)
 number of electron     143.9999986 magnetization 
 augmentation part      -17.8078802 magnetization 

 Broyden mixing:
  rms(total) = 0.21447E-04    rms(broyden)= 0.21427E-04
  rms(prec ) = 0.30251E-04
  weight for this iteration     100.00

 eigenvalues of (default mixing * dielectric matrix)
  average eigenvalue GAMMA=   2.3104
  8.6403  7.2897  3.5805  3.5805  2.7265  2.1795  2.1795  1.8772  0.8879  0.8879
[...]
      7     -28.0044      2.00000
      8     -28.0040      2.00000
      9     -15.0684      2.00000
     10     -15.0681      2.00000
     11     -15.0062      2.00000
     12     -15.0062      2.00000
     13     -14.9413      2.00000
     14     -14.9412      2.00000
     15     -14.1445      2.00000
     16     -14.1434      2.00000
     17     -14.0098      2.00000
     18     -14.0079      2.00000
     19     -13.9982      2.00000
     20     -13.9950      2.00000
     21     -13.9420      2.00000
     22     -13.9331      2.00000
     23     -13.8940      2.00000
     24     -13.8928      2.00000
     25     -13.8189      2.00000
     26     -13.8105      2.00000
     27     -13.3611      2.00000
     28     -13.3519      2.00000
     29     -13.3189      2.00000
     30     -13.3118      2.00000
     31     -13.2832      2.00000
     32     -13.2824      2.00000
     33     -11.1203      2.00000
     34     -11.1043      2.00000
     35     -10.7031      2.00000
     36     -10.6862      2.00000
     37      -6.6105      2.00000
     38      -6.5895      2.00000
     39      -6.3658      2.00000
     40      -6.3404      2.00000
     41      -6.2781      2.00000
     42      -6.2508      2.00000
     43      -6.0156      2.00000
     44      -6.0020      2.00000
     45      -5.9512      2.00000
     46      -5.9014      2.00000
     47      -5.8530      2.00000
     48      -5.7397      2.00000
     49      -2.9380      2.00000
     50      -2.8399      2.00000
     51      -2.6785      2.00000
     52      -2.6115      2.00000
     53      -2.3803      2.00000
     54      -2.2714      2.00000
     55      -2.2568      2.00000
     56      -2.2329      2.00000
     57      -2.0411      2.00000
     58      -2.0157      2.00000
     59      -1.9481      2.00000
     60      -1.8710      2.00000
     61      -1.7586      2.00000
     62      -1.7108      2.00000
     63      -1.6249      2.00000
     64      -1.5315      2.00000
     65      -1.4127      2.00000
     66      -1.3411      2.00000
     67      -1.2761      2.00000
     68      -1.1706      2.00000
     69      -1.0443      2.00000
     70      -0.9396      2.00000
     71      -0.9110      2.00000
     72      -0.8502      2.00000
     73       0.1686      0.00000
     74       0.2125      0.00000
     75       0.3675      0.00000
     76       0.4139      0.00000
     77       0.4940      0.00000
     78       0.6245      0.00000
     79       0.7317      0.00000
     80       0.7542      0.00000
     81       0.7887      0.00000
     82       0.8715      0.00000
     83       1.0373      0.00000
     84       1.0726      0.00000
     85       1.1731      0.00000
     86       1.3660      0.00000
     87       1.4331      0.00000
     88       1.5485      0.00000

 k-point    15 :       0.0000    0.5000    0.4000
  band No.  band energies     occupation 
      1     -29.7819      2.00000
      2     -29.7819      2.00000
      3     -28.7722      2.00000
      4     -28.7722      2.00000
      5     -28.5889      2.00000
      6     -28.5889      2.00000
      7     -28.0042      2.00000
      8     -28.0042      2.00000
      9     -15.0678      2.00000
     10     -15.0678      2.00000
     11     -15.0069      2.00000
     12     -15.0069      2.00000
     13     -14.9431      2.00000
     14     -14.9431      2.00000
     15     -14.1432      2.00000
     16     -14.1432      2.00000
     17     -14.0110      2.00000
     18     -14.0110      2.00000
     19     -13.9981      2.00000
     20     -13.9981      2.00000
     21     -13.9386      2.00000
     22     -13.9386      2.00000
     23     -13.8961      2.00000
     24     -13.8961      2.00000
     25     -13.8139      2.00000
     26     -13.8139      2.00000
     27     -13.3563      2.00000
     28     -13.3563      2.00000
     29     -13.3149      2.00000
     30     -13.3149      2.00000
     31     -13.2826      2.00000
     32     -13.2826      2.00000
     33     -11.1064      2.00000
     34     -11.1064      2.00000
     35     -10.6853      2.00000
     36     -10.6853      2.00000
     37      -6.6286      2.00000
     38      -6.6285      2.00000
     39      -6.3307      2.00000
     40      -6.3307      2.00000
     41      -6.2579      2.00000
     42      -6.2578      2.00000
     43      -5.9849      2.00000
     44      -5.9849      2.00000
     45      -5.9385      2.00000
     46      -5.9385      2.00000
     47      -5.7935      2.00000
     48      -5.7934      2.00000
     49      -2.8455      2.00000
     50      -2.8455      2.00000
     51      -2.6630      2.00000
     52      -2.6630      2.00000
     53      -2.3214      2.00000
     54      -2.3214      2.00000
     55      -2.2601      2.00000
     56      -2.2601      2.00000
     57      -2.0289      2.00000
     58      -2.0289      2.00000
     59      -1.8573      2.00000
     60      -1.8573      2.00000
     61      -1.6618      2.00000
     62      -1.6618      2.00000
     63      -1.6034      2.00000
     64      -1.6034      2.00000
     65      -1.3959      2.00000
     66      -1.3959      2.00000
     67      -1.2154      2.00000
     68      -1.2154      2.00000
     69      -1.0369      2.00000
     70      -1.0369      2.00000
     71      -0.8824      2.00000
     72      -0.8824      2.00000
     73       0.1054      0.00000
     74       0.1054      0.00000
     75       0.3570      0.00000
     76       0.3570      0.00000
     77       0.5448      0.00000
     78       0.5448      0.00000
     79       0.7398      0.00000
     80       0.7398      0.00000
     81       0.7611      0.00000
     82       0.7612      0.00000
     83       1.0759      0.00000
     84       1.0760      0.00000
     85       1.2734      0.00000
     86       1.2741      0.00000
     87       1.4103      0.00000
     88       1.4112      0.00000


--------------------------------------------------------------------------------------------------------


 soft charge-density along one line, spin component           1
         0         1         2         3         4         5         6         7         8         9
 total charge-density along one line
 
 pseudopotential strength for first ion, spin component:           1
  4.906  -5.549  -0.000  -0.005  -0.020  -0.000  -0.005  -0.023
 -5.549  -2.772   0.000   0.001   0.002  -0.000  -0.001  -0.004
 -0.000   0.000  -6.744  -0.000  -0.000   1.904  -0.000  -0.000
 -0.005   0.001  -0.000  -6.740  -0.001  -0.000   1.914  -0.003
 -0.020   0.002  -0.000  -0.001  -6.740  -0.000  -0.003   1.914
 -0.000  -0.000   1.904  -0.000  -0.000   7.248  -0.000  -0.000
 -0.005  -0.001  -0.000   1.914  -0.003  -0.000   7.249  -0.000
 -0.023  -0.004  -0.000  -0.003   1.914  -0.000  -0.000   7.249
 -0.000   0.000  -0.013  -0.000  -0.000  -0.009  -0.000  -0.000
 -0.000   0.000  -0.000  -0.000  -0.000  -0.000  -0.000  -0.000
  0.002  -0.001   0.000  -0.005   0.007   0.000  -0.003   0.005
 -0.002   0.001  -0.000  -0.012  -0.002  -0.000  -0.009  -0.002
  0.003  -0.001   0.000  -0.001  -0.011   0.000  -0.001  -0.009
  0.000   0.000   0.001   0.000   0.000   0.000   0.000   0.000
  0.000   0.000   0.000   0.000   0.000  -0.000   0.000   0.000
 -0.000  -0.000  -0.000   0.000  -0.000  -0.000   0.000  -0.000
  0.000   0.000   0.000   0.001   0.000   0.000   0.000   0.000
 -0.000  -0.000  -0.000   0.000   0.001  -0.000   0.000   0.000
 total augmentation occupancy for first ion, spin component:           1
  2.113  -0.263   0.000   0.012   0.051   0.000  -0.005  -0.019   0.000   0.000   0.013  -0.007   0.030  -0.000  -0.000  -0.008
 -0.263   0.635   0.000  -0.031  -0.132   0.000   0.011   0.032   0.000   0.000  -0.021   0.005  -0.057   0.000   0.000   0.035
  0.000   0.000   2.013  -0.000   0.000  -0.016  -0.000   0.000  -0.078   0.023   0.000   0.000   0.000   0.069  -0.044  -0.000
  0.012  -0.031   0.000   2.000   0.003   0.000  -0.007  -0.002   0.000   0.000  -0.044  -0.063  -0.015  -0.000   0.000   0.044
  0.051  -0.132   0.000   0.003   1.996   0.000  -0.002  -0.005   0.000   0.000   0.033  -0.006  -0.050   0.000   0.000  -0.028
  0.000   0.000  -0.016   0.000   0.000   0.008   0.000   0.000   0.022  -0.009   0.000   0.000   0.000  -0.029   0.014  -0.000
 -0.005   0.011   0.000  -0.007  -0.002   0.000   0.005   0.000   0.000   0.000   0.016   0.015   0.005  -0.000   0.000  -0.021
 -0.019   0.032   0.000  -0.002  -0.005   0.000   0.000   0.004   0.000   0.000  -0.007   0.000   0.009   0.000   0.000   0.009
  0.000   0.000  -0.078   0.000   0.000   0.022  -0.000   0.000   0.144  -0.015   0.000   0.000   0.000  -0.181   0.021   0.000
 -0.000   0.000   0.023   0.000   0.000  -0.009   0.000   0.000  -0.015   0.069   0.000   0.000   0.000   0.020  -0.085   0.000
  0.013  -0.021   0.000  -0.044   0.033   0.000   0.016  -0.007   0.000   0.000   0.121   0.048   0.018   0.000   0.000  -0.146
 -0.007   0.005   0.000  -0.063  -0.006   0.000   0.015   0.000   0.000   0.000   0.048   0.086   0.008   0.000   0.000  -0.067
  0.030  -0.057  -0.000  -0.015  -0.050   0.000   0.005   0.009   0.000   0.000   0.018   0.008   0.093   0.000  -0.000  -0.024
  0.000   0.000   0.069   0.000   0.000  -0.029  -0.000   0.000  -0.181   0.020   0.000   0.000   0.000   0.257  -0.035   0.000
  0.000   0.000  -0.044   0.000   0.000   0.014   0.000   0.000   0.021  -0.085   0.000   0.000   0.000  -0.035   0.114   0.000
 -0.008   0.035  -0.000   0.044  -0.028   0.000  -0.021   0.009  -0.000   0.000  -0.146  -0.067  -0.024   0.000   0.000   0.198
  0.005  -0.021   0.000   0.054  -0.001  -0.000  -0.022  -0.000   0.000   0.000  -0.065  -0.109  -0.011   0.000  -0.000   0.101
 -0.021   0.066   0.000   0.023   0.043   0.000  -0.008  -0.012  -0.000   0.000  -0.025  -0.012  -0.121   0.000   0.000   0.039


------------------------ aborting loop because EDIFF is reached ----------------------------------------


    CHARGE:  cpu time    0.1536: real time    0.1540
    FORLOC:  cpu time    0.0097: real time    0.0097
    FORNL :  cpu time    0.5043: real time    0.5055
    STRESS:  cpu time    1.4548: real time    1.4821
    FORCOR:  cpu time    2.5055: real time    2.5116
    FORHAR:  cpu time    0.0204: real time    0.0205
    MIXING:  cpu time    0.0089: real time    0.0090
    OFIELD:  cpu time    0.0000: real time    0.0000

  FORCE on cell =-STRESS in cart. coord.  units (eV):
  Direction    XX          YY          ZZ          XY          YZ          ZX
  --------------------------------------------------------------------------------------
  Alpha Z   170.45751   170.45751   170.45751
  Ewald  -20277.65271 16644.70193 16116.29482    -0.00002     0.00000   130.18668
  Hartree-17188.25399 18252.21429 17840.95299     0.00000    -0.00000    97.48162
  E(xc)    -467.08270  -468.45871  -468.50591    -0.00000    -0.00000     0.10440
  Local   36046.65966-36333.58121-35385.52640     0.00001    -0.00000  -224.45096
  n-local   341.08594   341.35442   341.43428     0.06049    -0.19805    -2.00269
  augment  -167.59114  -167.86092  -167.64448     0.00000    -0.00000     0.40791
  Kinetic  1537.21218  1551.82703  1543.50702    -0.00333    -0.82318    -1.69995
  Fock        0.00000     0.00000     0.00000     0.00000     0.00000     0.00000
  -------------------------------------------------------------------------------------
  Total      -5.16526    -9.34566    -9.03017     0.00000     0.00000     0.02702
  in kB      -4.38319    -7.93063    -7.66291     0.00000     0.00000     0.02293
  external pressure =       -6.66 kB  Pullay stress =        0.00 kB


 VOLUME and BASIS-vectors are now :
 -----------------------------------------------------------------------------
  energy-cutoff  :      500.00
  volume of cell :     1888.05
      direct lattice vectors                 reciprocal lattice vectors
    24.009468079  0.000000000  0.000000000     0.041650236  0.000000000  0.000000000
     0.000000000  6.777849674  0.000000000     0.000000000  0.147539419  0.000000000
     0.000000000  0.000000000 11.602143288     0.000000000  0.000000000  0.086190971

  length of vectors
    24.009468079  6.777849674 11.602143288     0.041650236  0.147539419  0.086190971


 FORCES acting on ions
    electron-ion (+dipol)            ewald-force                    non-local-force                 convergence-correction
 -----------------------------------------------------------------------------------------------
   0.796E+03 0.102E-04 0.421E+02   -.791E+03 0.976E-05 -.413E+02   -.397E+01 -.521E-18 -.783E+00   -.492E-04 0.106E-09 0.202E-04
   -.796E+03 -.635E-04 -.421E+02   0.791E+03 -.126E-04 0.413E+02   0.397E+01 -.506E-18 0.783E+00   0.492E-04 -.152E-09 -.202E-04
   0.746E+02 -.598E-04 -.312E+02   -.745E+02 -.193E-04 0.300E+02   -.311E+00 -.226E-19 0.116E+01   0.350E-05 -.230E-09 0.256E-04
   -.746E+02 0.120E-04 0.312E+02   0.745E+02 0.134E-04 -.300E+02   0.311E+00 0.205E-19 -.116E+01   -.350E-05 0.176E-09 -.256E-04
   0.640E+03 -.612E-04 -.498E+02   -.638E+03 -.169E-04 0.505E+02   -.192E+01 -.236E-17 -.652E+00   -.599E-04 -.182E-09 0.240E-05
   -.640E+03 0.914E-05 0.498E+02   0.638E+03 0.147E-04 -.505E+02   0.192E+01 -.196E-17 0.652E+00   0.599E-04 0.146E-09 -.240E-05
   0.373E+03 0.127E-04 -.273E+01   -.371E+03 0.138E-04 0.202E+01   -.120E+01 -.143E-18 0.707E+00   -.313E-04 0.168E-09 0.119E-04
   -.373E+03 -.612E-04 0.273E+01   0.371E+03 -.139E-04 -.202E+01   0.120E+01 -.661E-18 -.707E+00   0.313E-04 -.173E-09 -.119E-04
   0.278E+03 0.353E+02 -.453E+02   -.278E+03 -.373E+02 0.464E+02   -.189E+00 0.200E+01 -.108E+01   -.288E-04 -.153E-05 -.283E-05
   -.278E+03 -.353E+02 0.453E+02   0.278E+03 0.373E+02 -.464E+02   0.189E+00 -.200E+01 0.108E+01   0.288E-04 0.153E-05 0.283E-05
   0.129E+03 -.302E+02 0.196E+01   -.128E+03 0.319E+02 -.738E+00   -.809E+00 -.164E+01 -.122E+01   -.123E-04 0.981E-05 0.203E-05
   -.129E+03 0.302E+02 -.196E+01   0.128E+03 -.319E+02 0.738E+00   0.809E+00 0.164E+01 0.122E+01   0.123E-04 -.981E-05 -.203E-05
   -.278E+03 0.353E+02 0.453E+02   0.278E+03 -.373E+02 -.464E+02   0.189E+00 0.200E+01 0.108E+01   0.288E-04 -.153E-05 0.283E-05
   0.278E+03 -.353E+02 -.453E+02   -.278E+03 0.373E+02 0.464E+02   -.189E+00 -.200E+01 -.108E+01   -.288E-04 0.153E-05 -.283E-05
   -.129E+03 -.302E+02 -.196E+01   0.128E+03 0.319E+02 0.738E+00   0.809E+00 -.164E+01 0.122E+01   0.123E-04 0.981E-05 -.203E-05
   0.129E+03 0.302E+02 0.196E+01   -.128E+03 -.319E+02 -.738E+00   -.809E+00 0.164E+01 -.122E+01   -.123E-04 -.981E-05 0.203E-05
   0.336E+03 -.509E-05 0.451E+02   -.338E+03 -.607E-05 -.456E+02   0.156E+01 -.202E-19 0.483E+00   -.264E-04 -.407E-10 0.349E-05
   -.336E+03 0.676E-05 -.451E+02   0.338E+03 0.629E-05 0.456E+02   -.156E+01 0.233E-19 -.483E+00   0.264E-04 0.581E-10 -.349E-05
   0.325E+02 0.102E-04 -.105E+02   -.305E+02 0.775E-05 0.980E+01   -.167E+01 -.579E-19 0.674E+00   -.163E-04 0.820E-10 -.212E-05
   -.325E+02 -.773E-06 0.105E+02   0.305E+02 -.743E-05 -.980E+01   0.167E+01 -.635E-19 -.674E+00   0.163E-04 -.661E-10 0.212E-05
   0.248E+03 0.421E-05 0.745E+01   -.247E+03 0.813E-05 -.929E+01   -.846E+00 0.204E-17 0.184E+01   -.308E-04 0.713E-10 -.657E-05
   -.248E+03 -.552E-05 -.745E+01   0.247E+03 -.818E-05 0.929E+01   0.846E+00 0.242E-17 -.184E+01   0.308E-04 -.574E-10 0.656E-05
   0.163E+03 -.672E-05 0.601E+02   -.162E+03 -.785E-05 -.623E+02   -.111E+01 -.988E-17 0.212E+01   -.859E-05 -.589E-10 -.101E-04
   -.163E+03 0.266E-05 -.601E+02   0.162E+03 0.762E-05 0.623E+02   0.111E+01 -.915E-17 -.212E+01   0.860E-05 0.672E-10 0.101E-04
 -----------------------------------------------------------------------------------------------
   -.722E-03 -.210E-03 -.268E-04   0.284E-13 0.200E-13 -.711E-14   0.222E-15 0.207E-15 0.444E-15   0.251E-07 -.523E-10 -.139E-08
 
 
 POSITION                                       TOTAL-FORCE (eV/Angst)
 -----------------------------------------------------------------------------------
      0.13670      1.69446      8.18506         0.718096     -0.000000     -0.000027
      8.92277      5.08339      3.41708        -0.718096     -0.000000      0.000027
      4.36803      5.08339      2.17866        -0.180238     -0.000000      0.000557
      4.69143      1.69446      9.42348         0.180238     -0.000000     -0.000557
      1.43529      5.08339     10.65537         0.721998     -0.000000     -0.000358
      7.62418      1.69446      0.94677        -0.721998     -0.000000      0.000358
      3.06944      1.69446      4.64009         0.240719     -0.000000     -0.000178
      5.99002      5.08339      6.96206        -0.240719     -0.000000      0.000178
      1.75027      0.48641      1.69978        -0.183836     -0.000019     -0.000238
      7.30920      6.29144      9.90236         0.183836      0.000019      0.000238
      2.75446      6.29548      7.62767         0.037276      0.000556      0.000212
      6.30500      0.48237      3.97447        -0.037276     -0.000556     -0.000212
      7.30920      3.87534      9.90236         0.183836     -0.000019      0.000238
      1.75027      2.90251      1.69978        -0.183836      0.000019     -0.000238
      6.30500      2.90655      3.97447        -0.037276      0.000556     -0.000212
      2.75446      3.87130      7.62767         0.037276     -0.000556      0.000212
      0.74693      5.08339      6.93388        -0.317569     -0.000000     -0.000249
      8.31254      1.69446      4.66826         0.317569     -0.000000      0.000249
      3.75780      1.69446      0.99751         0.280982     -0.000000     -0.000253
      5.30166      5.08339     10.60464        -0.280982     -0.000000      0.000253
      1.78112      1.69446     11.17909        -0.332359     -0.000000      0.000003
      7.27835      5.08339      0.42306         0.332359     -0.000000     -0.000003
      2.72362      5.08339      5.50687        -0.249291     -0.000000     -0.000832
      6.33585      1.69446      6.09527         0.249291     -0.000000      0.000832
 -----------------------------------------------------------------------------------
    total drift:                               -0.000722     -0.000210     -0.000027


--------------------------------------------------------------------------------------------------------



  FREE ENERGIE OF THE ION-ELECTRON SYSTEM (eV)
  ---------------------------------------------------
  free  energy   TOTEN  =       -92.81808095 eV

  energy  without entropy=      -92.81808095  energy(sigma->0) =      -92.81808095
 


--------------------------------------------------------------------------------------------------------


    POTLOK:  cpu time    2.5088: real time    2.5151


--------------------------------------------------------------------------------------------------------


 writing wavefunctions
     LOOP+:  cpu time14330.7945: real time14368.0336
    4ORBIT:  cpu time    0.0000: real time    0.0000
 BZINTS: Fermi energy: -0.579330;144.000000 electrons
         Band energy:***********;  BLOECHL correction:  0.000000

 total amount of memory used by VASP MPI-rank0    79352. kBytes
=======================================================================

   base      :      30000. kBytes
   nonlr-proj:       2646. kBytes
   fftplans  :       5898. kBytes
   grid      :       8824. kBytes
   one-center:         93. kBytes
   wavefun   :      31891. kBytes
 
  
  
 General timing and accounting informations for this job:
 ========================================================
  
                  Total CPU time used (sec):    14339.191
                            User time (sec):    14282.480
                          System time (sec):       56.712
                         Elapsed time (sec):    14380.826
  
                   Maximum memory used (kb):      309512.
                   Average memory used (kb):           0.
  
                          Minor page faults:       125860
                          Major page faults:          241
                 Voluntary context switches:        13613
