 vasp.5.4.4.18Apr17-6-g9f103f2a35 (build Nov 21 2017 15:30:27) complex          
  
 executed on             LinuxIFC date 2020.09.16  14:48:39
 running on   64 total cores
 distrk:  each k-point on   32 cores,    2 groups
 distr:  one band on NCORES_PER_BAND=   4 cores,    8 groups


--------------------------------------------------------------------------------------------------------


 INCAR:
 POTCAR:   PAW_PBE Ba_sv 06Sep2000                
 POTCAR:   PAW_PBE Si 05Jan2001                   

 ----------------------------------------------------------------------------- 
|                                                                             |
|           W    W    AA    RRRRR   N    N  II  N    N   GGGG   !!!           |
|           W    W   A  A   R    R  NN   N  II  NN   N  G    G  !!!           |
|           W    W  A    A  R    R  N N  N  II  N N  N  G       !!!           |
|           W WW W  AAAAAA  RRRRR   N  N N  II  N  N N  G  GGG   !            |
|           WW  WW  A    A  R   R   N   NN  II  N   NN  G    G                |
|           W    W  A    A  R    R  N    N  II  N    N   GGGG   !!!           |
|                                                                             |
|      You have enabled k-point parallelism (KPAR>1).                         |
|      This developmental code was originally  written by Paul Kent at ORNL,  |
|      and carefully double checked in Vienna.                                |
|      GW as well as linear response parallelism added by Martijn Marsman     |
|      and Georg Kresse.                                                      |
|      Carefully verify results versus KPAR=1.                                |
|      Report problems to Paul Kent and Vienna.                               |
|                                                                             |
 ----------------------------------------------------------------------------- 


 ----------------------------------------------------------------------------- 
|                                                                             |
|  ADVICE TO THIS USER RUNNING 'VASP/VAMP'   (HEAR YOUR MASTER'S VOICE ...):  |
|                                                                             |
|      You have switched on vdW-DFT.                                          |
|      This routine was written and supplied by Jiri Klimes.                  |
|      We recommed that you carefully read and cite the following             |
|      publication                                                            |
|      J. Klimes, D.R. Bowler, A. Michelides                                  |
|        J. Phys.: Cond Matt. 22 022201 (2010)                                |
|      J. Klimes, D.R. Bowler, A. Michelides                                  |
|        Phys. Rev. B. 83, 195131 (2011)                                      |
|      and references therein.                                                |
|                                                                             |
 ----------------------------------------------------------------------------- 

 POTCAR:   PAW_PBE Ba_sv 06Sep2000                
   VRHFIN =Ba: 5s5p6s                                                           
   LEXCH  = PE                                                                  
   EATOM  =   700.2255 eV,   51.4651 Ry                                         
                                                                                
   TITEL  = PAW_PBE Ba_sv 06Sep2000                                             
   LULTRA =        F    use ultrasoft PP ?                                      
   IUNSCR =        1    unscreen: 0-lin 1-nonlin 2-no                           
   RPACOR =    2.400    partial core radius                                     
   POMASS =  137.327; ZVAL   =   10.000    mass and valenz                      
   RCORE  =    2.800    outmost cutoff radius                                   
   RWIGS  =    3.740; RWIGS  =    1.979    wigner-seitz radius (au A)           
   ENMAX  =  187.210; ENMIN  =  140.408 eV                                      
   RCLOC  =    2.516    cutoff for local pot                                    
   LCOR   =        T    correct aug charges                                     
   LPAW   =        T    paw PP                                                  
   EAUG   =  351.165                                                            
   DEXC   =     .000                                                            
   RMAX   =    3.370    core radius for proj-oper                               
   RAUG   =    1.300    factor for augmentation sphere                          
   RDEP   =    2.976    radius for radial grids                                 
   QCUT   =   -3.709; QGAM   =    7.419    optimization parameters              
                                                                                
   Description                                                                  
     l     E      TYP  RCUT    TYP  RCUT                                        
     0   .000     23  2.800                                                     
     0   .000     23  2.800                                                     
     1   .000     23  2.700                                                     
     1  2.000     23  2.700                                                     
     2   .000     23  2.700                                                     
     2   .000     23  2.700                                                     
  local pseudopotential read in
  partial core-charges read in
  atomic valenz-charges read in
  non local Contribution for L=           0  read in
    real space projection operators read in
  non local Contribution for L=           0  read in
    real space projection operators read in
  non local Contribution for L=           1  read in
    real space projection operators read in
  non local Contribution for L=           1  read in
    real space projection operators read in
  non local Contribution for L=           2  read in
    real space projection operators read in
  non local Contribution for L=           2  read in
    real space projection operators read in
    PAW grid and wavefunctions read in
 
   number of l-projection  operators is LMAX  =           6
   number of lm-projection operators is LMMAX =          18
 
 POTCAR:   PAW_PBE Si 05Jan2001                   
   VRHFIN =Si: s2p2                                                             
   LEXCH  = PE                                                                  
   EATOM  =   103.0669 eV,    7.5752 Ry                                         
                                                                                
   TITEL  = PAW_PBE Si 05Jan2001                                                
   LULTRA =        F    use ultrasoft PP ?                                      
   IUNSCR =        1    unscreen: 0-lin 1-nonlin 2-no                           
   RPACOR =    1.500    partial core radius                                     
   POMASS =   28.085; ZVAL   =    4.000    mass and valenz                      
   RCORE  =    1.900    outmost cutoff radius                                   
   RWIGS  =    2.480; RWIGS  =    1.312    wigner-seitz radius (au A)           
   ENMAX  =  245.345; ENMIN  =  184.009 eV                                      
   ICORE  =        2    local potential                                         
   LCOR   =        T    correct aug charges                                     
   LPAW   =        T    paw PP                                                  
   EAUG   =  322.069                                                            
   DEXC   =    -.007                                                            
   RMAX   =    2.944    core radius for proj-oper                               
   RAUG   =    1.300    factor for augmentation sphere                          
   RDEP   =    1.993    radius for radial grids                                 
   QCUT   =   -4.246; QGAM   =    8.493    optimization parameters              
                                                                                
   Description                                                                  
     l     E      TYP  RCUT    TYP  RCUT                                        
     0   .000     23  1.900                                                     
     0   .000     23  1.900                                                     
     1   .000     23  1.900                                                     
     1   .000     23  1.900                                                     
     2   .000      7  1.900                                                     
  local pseudopotential read in
  partial core-charges read in
  atomic valenz-charges read in
  non local Contribution for L=           0  read in
    real space projection operators read in
  non local Contribution for L=           0  read in
    real space projection operators read in
  non local Contribution for L=           1  read in
    real space projection operators read in
  non local Contribution for L=           1  read in
    real space projection operators read in
    PAW grid and wavefunctions read in
 
   number of l-projection  operators is LMAX  =           4
   number of lm-projection operators is LMMAX =           8
 
 Optimization of the real space projectors (new method)

 maximal supplied QI-value         = 13.42
 optimisation between [QCUT,QGAM] = [ 11.40, 22.81] = [ 36.42,145.68] Ry 
 Optimized for a Real-space Cutoff    1.56 Angstroem

   l    n(q)    QCUT    max X(q) W(low)/X(q) W(high)/X(q)  e(spline) 
   0     11    11.404     7.198    0.14E-04    0.26E-04    0.99E-07
   0     11    11.404    15.603    0.29E-04    0.72E-04    0.44E-06
   1     10    11.404     3.746    0.20E-04    0.24E-04    0.43E-07
   1     10    11.404     4.362    0.22E-03    0.97E-04    0.22E-06
   2     10    11.404     5.782    0.83E-04    0.62E-05    0.27E-06
   2     10    11.404    65.505    0.42E-03    0.31E-04    0.12E-05
 Optimization of the real space projectors (new method)

 maximal supplied QI-value         = 19.84
 optimisation between [QCUT,QGAM] = [ 11.31, 22.82] = [ 35.82,145.81] Ry 
 Optimized for a Real-space Cutoff    1.16 Angstroem

   l    n(q)    QCUT    max X(q) W(low)/X(q) W(high)/X(q)  e(spline) 
   0      8    11.310     8.708    0.14E-04    0.11E-04    0.43E-08
   0      8    11.310   106.241    0.27E-03    0.30E-03    0.38E-07
   1      7    11.310     5.901    0.82E-05    0.48E-04    0.19E-07
   1      7    11.310    73.241    0.27E-03    0.27E-03    0.74E-07

 ----------------------------------------------------------------------------- 
|                                                                             |
|  ADVICE TO THIS USER RUNNING 'VASP/VAMP'   (HEAR YOUR MASTER'S VOICE ...):  |
|                                                                             |
|      You enforced a specific xc-type in the INCAR file,                     |
|      a different type was found on the POTCAR file                          |
|          I HOPE YOU KNOW, WHAT YOU ARE  DOING                               |
|                                                                             |
 ----------------------------------------------------------------------------- 

 PAW_PBE Ba_sv 06Sep2000                :
 energy of atom  1       EATOM= -700.2255
 kinetic energy error for atom=    0.0005 (will be added to EATOM!!)
 PAW_PBE Si 05Jan2001                   :
 energy of atom  2       EATOM= -103.0669
 kinetic energy error for atom=    0.0006 (will be added to EATOM!!)
 
 
 POSCAR: ba8 si16                                
  positions in direct lattice
  velocities in cartesian coordinates
 exchange correlation table for  LEXCH =       42
   RHO(1)=    0.500       N(1)  =     2000
   RHO(2)=  100.500       N(2)  =     4000
 


--------------------------------------------------------------------------------------------------------


 ion  position               nearest neighbor table
   1  0.006  0.250  0.704-  21 3.39  16 3.44  11 3.44  17 3.65  17 3.65   5 4.38   5 4.38   7 4.61

   2  0.388  0.750  0.296-  22 3.39  12 3.44  15 3.44  18 3.65  18 3.65   6 4.38   6 4.38   8 4.61

   3  0.182  0.750  0.186-  20 3.36   9 3.44  14 3.44  19 3.65  19 3.65  12 3.66  15 3.66  22 3.71
                            23 3.74   5 4.30   7 4.38   7 4.38
   4  0.212  0.250  0.814-  19 3.36  13 3.44  10 3.44  20 3.65  20 3.65  16 3.66  11 3.66  21 3.71
                            24 3.74   6 4.30   8 4.38   8 4.38
   5  0.060  0.750  0.915-   9 3.44  14 3.44  21 3.45  21 3.45  11 3.47  16 3.47  17 3.73   3 4.30
                             1 4.38   1 4.38
   6  0.334  0.250  0.085-  13 3.44  10 3.44  22 3.45  22 3.45  15 3.47  12 3.47  18 3.73   4 4.30
                             2 4.38   2 4.38
   7  0.128  0.250  0.398-  14 3.45   9 3.45  23 3.52  23 3.52  16 3.74  11 3.74  19 3.75  15 3.89
                            12 3.89   3 4.38   3 4.38   1 4.61
   8  0.266  0.750  0.602-  10 3.45  13 3.45  24 3.52  24 3.52  12 3.74  15 3.74  20 3.75  11 3.89
                            16 3.89   4 4.38   4 4.38   2 4.61
   9  0.073  0.072  0.143-  14 2.42  21 2.45  19 2.45   5 3.44   3 3.44   7 3.45
  10  0.321  0.928  0.857-  13 2.42  22 2.45  20 2.45   6 3.44   4 3.44   8 3.45
  11  0.115  0.930  0.659-  16 2.44  17 2.45  23 2.45   1 3.44   5 3.47   4 3.66   7 3.74   8 3.89

  12  0.279  0.070  0.341-  15 2.44  18 2.45  24 2.45   2 3.44   6 3.47   3 3.66   8 3.74   7 3.89

  13  0.321  0.572  0.857-  10 2.42  22 2.45  20 2.45   6 3.44   4 3.44   8 3.45
  14  0.073  0.428  0.143-   9 2.42  21 2.45  19 2.45   5 3.44   3 3.44   7 3.45
  15  0.279  0.430  0.341-  12 2.44  18 2.45  24 2.45   2 3.44   6 3.47   3 3.66   8 3.74   7 3.89

  16  0.115  0.570  0.659-  11 2.44  17 2.45  23 2.45   1 3.44   5 3.47   4 3.66   7 3.74   8 3.89

  17  0.031  0.750  0.599-  23 2.44  11 2.45  16 2.45   1 3.65   1 3.65   5 3.73
  18  0.363  0.250  0.401-  24 2.44  15 2.45  12 2.45   2 3.65   2 3.65   6 3.73
  19  0.157  0.250  0.080-  21 2.42  14 2.45   9 2.45   4 3.36   3 3.65   3 3.65   7 3.75
  20  0.237  0.750  0.920-  22 2.42  10 2.45  13 2.45   3 3.36   4 3.65   4 3.65   8 3.75
  21  0.074  0.250  0.959-  19 2.42  14 2.45   9 2.45   1 3.39   5 3.45   5 3.45   4 3.71
  22  0.320  0.750  0.041-  20 2.42  10 2.45  13 2.45   2 3.39   6 3.45   6 3.45   3 3.71
  23  0.113  0.750  0.476-  17 2.44  11 2.45  16 2.45   7 3.52   7 3.52   3 3.74
  24  0.281  0.250  0.524-  18 2.44  15 2.45  12 2.45   8 3.52   8 3.52   4 3.74
 
  LATTYP: Found a simple orthorhombic cell.
 ALAT       =     6.7778496742
 B/A-ratio  =     1.7117734747
 C/A-ratio  =     3.5423429602
  
  Lattice vectors:
  
 A1 = (   0.0000000000,   6.7778496742,   0.0000000000)
 A2 = (   0.0000000000,   0.0000000000, -11.6021432877)
 A3 = ( -24.0094680786,   0.0000000000,   0.0000000000)


Analysis of symmetry for initial positions (statically):
=====================================================================
 Subroutine PRICEL returns:
 Original cell was already a primitive cell.
 

 Routine SETGRP: Setting up the symmetry group for a 
 simple orthorhombic supercell.


 Subroutine GETGRP returns: Found  4 space group operations
 (whereof  1 operations were pure point group operations)
 out of a pool of  8 trial point group operations.


The static configuration has the point symmetry C_1 .
 The point group associated with its full space group is C_2h.


Analysis of symmetry for dynamics (positions and initial velocities):
=====================================================================
 Subroutine PRICEL returns:
 Original cell was already a primitive cell.
 

 Routine SETGRP: Setting up the symmetry group for a 
 simple orthorhombic supercell.


 Subroutine GETGRP returns: Found  4 space group operations
 (whereof  1 operations were pure point group operations)
 out of a pool of  8 trial point group operations.


The dynamic configuration has the point symmetry C_1 .
 The point group associated with its full space group is C_2h.


Analysis of constrained symmetry for selective dynamics:
=====================================================================
 Subroutine PRICEL returns:
 Original cell was already a primitive cell.
 

 Routine SETGRP: Setting up the symmetry group for a 
 simple orthorhombic supercell.


 Subroutine GETGRP returns: Found  4 space group operations
 (whereof  1 operations were pure point group operations)
 out of a pool of  8 trial point group operations.


The constrained configuration has the point symmetry C_1 .
 The point group associated with its full space group is C_2h.


 Subroutine INISYM returns: Found  4 space group operations
 (whereof  1 operations are pure point group operations),
 and found     1 'primitive' translations

 
 
 KPOINTS: k-density: 8.0                          

Automatic generation of k-mesh.
Space group operators:
 irot       det(A)        alpha          n_x          n_y          n_z        tau_x        tau_y        tau_z
    1     1.000000     0.000000     1.000000     0.000000     0.000000     0.000000     0.000000     0.000000
    2    -1.000000     0.000000     1.000000     0.000000     0.000000    -0.606011     0.000000     0.000000
    3     1.000000   180.000000     0.000000     1.000000     0.000000    -0.606011     0.500000     0.000000
    4    -1.000000   180.000000     0.000000     1.000000     0.000000     0.000000     0.500000     0.000000
 
 Subroutine IBZKPT returns following result:
 ===========================================
 
 Found     15 irreducible k-points:
 
 Following reciprocal coordinates:
            Coordinates               Weight
  0.000000  0.000000  0.000000      1.000000
  0.000000  0.125000  0.000000      2.000000
  0.000000  0.250000  0.000000      2.000000
  0.000000  0.375000  0.000000      2.000000
  0.000000  0.500000  0.000000      1.000000
  0.000000  0.000000  0.200000      2.000000
  0.000000  0.125000  0.200000      4.000000
  0.000000  0.250000  0.200000      4.000000
  0.000000  0.375000  0.200000      4.000000
  0.000000  0.500000  0.200000      2.000000
  0.000000  0.000000  0.400000      2.000000
  0.000000  0.125000  0.400000      4.000000
  0.000000  0.250000  0.400000      4.000000
  0.000000  0.375000  0.400000      4.000000
  0.000000  0.500000  0.400000      2.000000
 
 Following cartesian coordinates:
            Coordinates               Weight
  0.000000  0.000000  0.000000      1.000000
  0.000000  0.018442  0.000000      2.000000
  0.000000  0.036885  0.000000      2.000000
  0.000000  0.055327  0.000000      2.000000
  0.000000  0.073770  0.000000      1.000000
  0.000000  0.000000  0.017238      2.000000
  0.000000  0.018442  0.017238      4.000000
  0.000000  0.036885  0.017238      4.000000
  0.000000  0.055327  0.017238      4.000000
  0.000000  0.073770  0.017238      2.000000
  0.000000  0.000000  0.034476      2.000000
  0.000000  0.018442  0.034476      4.000000
  0.000000  0.036885  0.034476      4.000000
  0.000000  0.055327  0.034476      4.000000
  0.000000  0.073770  0.034476      2.000000
 
 TETIRR: Found    108 inequivalent tetrahedra from      240


--------------------------------------------------------------------------------------------------------




 Dimension of arrays:
   k-points           NKPTS =     15   k-points in BZ     NKDIM =     15   number of bands    NBANDS=     88
   number of dos      NEDOS =    301   number of ions     NIONS =     24
   non local maximal  LDIM  =      6   non local SUM 2l+1 LMDIM =     18
   total plane-waves  NPLWV = 358400
   max r-space proj   IRMAX =   3093   max aug-charges    IRDMAX=  12081
   dimension x,y,z NGX =   140 NGY =   40 NGZ =   64
   dimension x,y,z NGXF=   280 NGYF=   80 NGZF=  128
   support grid    NGXF=   280 NGYF=   80 NGZF=  128
   ions per type =               8  16
   NGX,Y,Z   is equivalent  to a cutoff of   9.69,  9.81,  9.17 a.u.
   NGXF,Y,Z  is equivalent  to a cutoff of  19.39, 19.62, 18.34 a.u.

 SYSTEM =  unknown system                          
 POSCAR =  ba8 si16                                

 Startparameter for this run:
   NWRITE =      2    write-flag & timer
   PREC   = normal    normal or accurate (medium, high low for compatibility)
   ISTART =      0    job   : 0-new  1-cont  2-samecut
   ICHARG =      2    charge: 1-file 2-atom 10-const
   ISPIN  =      1    spin polarized calculation?
   LNONCOLLINEAR =      F non collinear calculations
   LSORBIT =      F    spin-orbit coupling
   INIWAV =      1    electr: 0-lowe 1-rand  2-diag
   LASPH  =      T    aspherical Exc in radial PAW
   METAGGA=      F    non-selfconsistent MetaGGA calc.

 Electronic Relaxation 1
   ENCUT  =  500.0 eV  36.75 Ry    6.06 a.u.  43.77 12.36 21.15*2*pi/ulx,y,z
   ENINI  =  500.0     initial cutoff
   ENAUG  =  351.2 eV  augmentation charge cutoff
   NELM   =    100;   NELMIN=  2; NELMDL= -5     # of ELM steps 
   EDIFF  = 0.1E-05   stopping-criterion for ELM
   LREAL  =      T    real-space projection
   NLSPLINE    = F    spline interpolate recip. space projectors
   LCOMPAT=      F    compatible to vasp.4.4
   GGA_COMPAT  = T    GGA compatible to vasp.4.4-vasp.4.6
   LMAXPAW     = -100 max onsite density
   LMAXMIX     =    2 max onsite mixed and CHGCAR
   VOSKOWN=      0    Vosko Wilk Nusair interpolation
   ROPT   =   -0.00050  -0.00050
 Ionic relaxation
   EDIFFG = -.1E-02   stopping-criterion for IOM
   NSW    =      0    number of steps for IOM
   NBLOCK =      1;   KBLOCK =      1    inner block; outer block 
   IBRION =     -1    ionic relax: 0-MD 1-quasi-New 2-CG
   NFREE  =      0    steps in history (QN), initial steepest desc. (CG)
   ISIF   =      2    stress and relaxation
   IWAVPR =     10    prediction:  0-non 1-charg 2-wave 3-comb
   ISYM   =      2    0-nonsym 1-usesym 2-fastsym
   LCORR  =      T    Harris-Foulkes like correction to forces

   POTIM  = 0.3000    time-step for ionic-motion
   TEIN   =    0.0    initial temperature
   TEBEG  =    0.0;   TEEND  =   0.0 temperature during run
   SMASS  =  -3.00    Nose mass-parameter (am)
   estimated Nose-frequenzy (Omega)   =  0.10E-29 period in steps =****** mass=  -0.132E-25a.u.
   SCALEE = 1.0000    scale energy and forces
   NPACO  =    256;   APACO  = 16.0  distance and # of slots for P.C.
   PSTRESS=    0.0 pullay stress

  Mass of Ions in am
   POMASS = 137.33 28.09
  Ionic Valenz
   ZVAL   =  10.00  4.00
  Atomic Wigner-Seitz radii
   RWIGS  =  -1.00 -1.00
  virtual crystal weights 
   VCA    =   1.00  1.00
   NELECT =     144.0000    total number of electrons
   NUPDOWN=      -1.0000    fix difference up-down

 DOS related values:
   EMIN   =  10.00;   EMAX   =-10.00  energy-range for DOS
   EFERMI =   0.00
   ISMEAR =    -5;   SIGMA  =   0.01  broadening in eV -4-tet -1-fermi 0-gaus

 Electronic relaxation 2 (details)
   IALGO  =     38    algorithm
   LDIAG  =      T    sub-space diagonalisation (order eigenvalues)
   LSUBROT=      F    optimize rotation matrix (better conditioning)
   TURBO    =      0    0=normal 1=particle mesh
   IRESTART =      0    0=no restart 2=restart with 2 vectors
   NREBOOT  =      0    no. of reboots
   NMIN     =      0    reboot dimension
   EREF     =   0.00    reference energy to select bands
   IMIX   =      4    mixing-type and parameters
     AMIX     =   0.40;   BMIX     =  1.00
     AMIX_MAG =   1.60;   BMIX_MAG =  1.00
     AMIN     =   0.10
     WC   =   100.;   INIMIX=   1;  MIXPRE=   1;  MAXMIX= -45

 Intra band minimization:
   WEIMIN = 0.0000     energy-eigenvalue tresh-hold
   EBREAK =  0.28E-08  absolut break condition
   DEPER  =   0.30     relativ break condition  

   TIME   =   0.40     timestep for ELM

  volume/ion in A,a.u.               =      78.67       530.88
  Fermi-wavevector in a.u.,A,eV,Ry     =   0.694264  1.311969  6.558046  0.482003
  Thomas-Fermi vector in A             =   1.776709
 
 Write flags
   LWAVE        =      T    write WAVECAR
   LDOWNSAMPLE  =      F    k-point downsampling of WAVECAR
   LCHARG       =      T    write CHGCAR
   LVTOT        =      F    write LOCPOT, total local potential
   LVHAR        =      F    write LOCPOT, Hartree potential only
   LELF         =      F    write electronic localiz. function (ELF)
   LORBIT       =      0    0 simple, 1 ext, 2 COOP (PROOUT), +10 PAW based schemes


 Dipole corrections
   LMONO  =      F    monopole corrections only (constant potential shift)
   LDIPOL =      F    correct potential (dipole corrections)
   IDIPOL =      0    1-x, 2-y, 3-z, 4-all directions 
   EPSILON=  1.0000000 bulk dielectric constant

 Exchange correlation treatment:
   GGA     =    BO    GGA type
   LEXCH   =    42    internal setting for exchange type
   VOSKOWN=      0    Vosko Wilk Nusair interpolation
   LHFCALC =     F    Hartree Fock is set to
   LHFONE  =     F    Hartree Fock one center treatment
   AEXX    =    0.0000 exact exchange contribution

 vdW DFT:
   LUSE_VDW   =     T    switch on vdW DFT
   Zab_VDW    =-.8491    correlation parameter
   PARAM1     =0.1833
   PARAM2     =0.2200
   PARAM3     =0.0000
   -- rVV10 --
   BPARAM     = 6.3000
   CPARAM     = 0.0093

 Linear response parameters
   LEPSILON=     F    determine dielectric tensor
   LRPA    =     F    only Hartree local field effects (RPA)
   LNABLA  =     F    use nabla operator in PAW spheres
   LVEL    =     F    velocity operator in full k-point grid
   LINTERFAST=   F  fast interpolation
   KINTER  =     0    interpolate to denser k-point grid
   CSHIFT  =0.1000    complex shift for real part using Kramers Kronig
   OMEGAMAX=  -1.0    maximum frequency
   DEG_THRESHOLD= 0.2000000E-02 threshold for treating states as degnerate
   RTIME   =   -0.100 relaxation time in fs
  (WPLASMAI=    0.000 imaginary part of plasma frequency in eV, 0.658/RTIME)
   DFIELD  = 0.0000000 0.0000000 0.0000000 field for delta impulse in time
 
 Orbital magnetization related:
   ORBITALMAG=     F  switch on orbital magnetization
   LCHIMAG   =     F  perturbation theory with respect to B field
   DQ        =  0.001000  dq finite difference perturbation B field
   LLRAUG    =     F  two centre corrections for induced B field



--------------------------------------------------------------------------------------------------------


 Static calculation
 charge density and potential will be updated during run
 non-spin polarized calculation
 Variant of blocked Davidson
 Davidson routine will perform the subspace rotation
 perform sub-space diagonalisation
    after iterative eigenvector-optimisation
 modified Broyden-mixing scheme, WC =      100.0
 initial mixing is a Kerker type mixing with AMIX =  0.4000 and BMIX =      1.0000
 Hartree-type preconditioning will be used
 using additional bands           16
 real space projection scheme for non local part
 use partial core corrections
 calculate Harris-corrections to forces 
   (improved forces if not selfconsistent)
 use gradient corrections 
 use of overlap-Matrix (Vanderbilt PP)
 Fermi weights with tetrahedron method with Bloechl corrections


--------------------------------------------------------------------------------------------------------


  energy-cutoff  :      500.00
  volume of cell :     1888.05
      direct lattice vectors                 reciprocal lattice vectors
    24.009468079  0.000000000  0.000000000     0.041650236  0.000000000  0.000000000
     0.000000000  6.777849674  0.000000000     0.000000000  0.147539419  0.000000000
     0.000000000  0.000000000 11.602143288     0.000000000  0.000000000  0.086190971

  length of vectors
    24.009468079  6.777849674 11.602143288     0.041650236  0.147539419  0.086190971


 
 k-points in units of 2pi/SCALE and weight: k-density: 8.0                          
   0.00000000  0.00000000  0.00000000       0.025
   0.00000000  0.01844243  0.00000000       0.050
   0.00000000  0.03688485  0.00000000       0.050
   0.00000000  0.05532728  0.00000000       0.050
   0.00000000  0.07376971  0.00000000       0.025
   0.00000000  0.00000000  0.01723819       0.050
   0.00000000  0.01844243  0.01723819       0.100
   0.00000000  0.03688485  0.01723819       0.100
   0.00000000  0.05532728  0.01723819       0.100
   0.00000000  0.07376971  0.01723819       0.050
   0.00000000  0.00000000  0.03447639       0.050
   0.00000000  0.01844243  0.03447639       0.100
   0.00000000  0.03688485  0.03447639       0.100
   0.00000000  0.05532728  0.03447639       0.100
   0.00000000  0.07376971  0.03447639       0.050
 
 k-points in reciprocal lattice and weights: k-density: 8.0                          
   0.00000000  0.00000000  0.00000000       0.025
   0.00000000  0.12500000  0.00000000       0.050
   0.00000000  0.25000000  0.00000000       0.050
   0.00000000  0.37500000  0.00000000       0.050
   0.00000000  0.50000000  0.00000000       0.025
   0.00000000  0.00000000  0.20000000       0.050
   0.00000000  0.12500000  0.20000000       0.100
   0.00000000  0.25000000  0.20000000       0.100
   0.00000000  0.37500000  0.20000000       0.100
   0.00000000  0.50000000  0.20000000       0.050
   0.00000000  0.00000000  0.40000000       0.050
   0.00000000  0.12500000  0.40000000       0.100
   0.00000000  0.25000000  0.40000000       0.100
   0.00000000  0.37500000  0.40000000       0.100
   0.00000000  0.50000000  0.40000000       0.050
 
 position of ions in fractional coordinates (direct lattice) 
   0.00569361  0.25000000  0.70366321
   0.38829546  0.75000002  0.29633679
   0.18192962  0.75000002  0.18580950
   0.21205945  0.25000000  0.81419048
   0.05978014  0.75000002  0.91479477
   0.33420893  0.25000000  0.08520521
   0.12784309  0.25000000  0.39762640
   0.26614598  0.75000002  0.60237364
   0.07289913  0.07179234  0.14285634
   0.32108994  0.92820765  0.85714364
   0.11472410  0.93000589  0.65894425
   0.27926497  0.06999410  0.34105575
   0.32108994  0.57179235  0.85714364
   0.07289913  0.42820765  0.14285634
   0.27926497  0.43000589  0.34105575
   0.11472410  0.56999411  0.65894425
   0.03110981  0.75000002  0.59874805
   0.36287926  0.25000000  0.40125195
   0.15651343  0.25000000  0.08027219
   0.23747566  0.75000002  0.91972779
   0.07418398  0.25000000  0.95928830
   0.31980509  0.75000002  0.04071171
   0.11343925  0.75000002  0.47554867
   0.28054982  0.25000000  0.52445125
 
 position of ions in cartesian coordinates  (Angst):
   0.13670066  1.69446242  8.16400139
   9.32276745  5.08338737  3.43814190
   4.36803341  5.08338737  2.15578839
   5.09143467  1.69446242  9.44635466
   1.43528938  5.08338737 10.61358003
   8.02417870  1.69446242  0.98856302
   3.06944466  1.69446242  4.61331847
   6.39002342  5.08338737  6.98882530
   1.75026941  0.48659769  1.65743972
   7.70919867  6.29125192  9.94470333
   2.75446463  6.30344009  7.64516563
   6.70500345  0.47440952  3.95697766
   7.70919867  3.87552259  9.94470333
   1.75026941  2.90232709  1.65743972
   6.70500345  2.91451526  3.95697766
   2.75446463  3.86333442  7.64516563
   0.74692994  5.08338737  6.94676071
   8.71253796  1.69446242  4.65538258
   3.75780416  1.69446242  0.93132950
   5.70166416  5.08338737 10.67081355
   1.78111780  1.69446242 11.12980036
   7.67835016  5.08338737  0.47234311
   2.72361612  5.08338737  5.51738376
   6.73585196  1.69446242  6.08475857
 


--------------------------------------------------------------------------------------------------------


 k-point  1 :   0.0000 0.0000 0.0000  plane waves:   47989
 k-point  2 :   0.0000 0.1250 0.0000  plane waves:   47929
 k-point  3 :   0.0000 0.2500 0.0000  plane waves:   47901
 k-point  4 :   0.0000 0.3750 0.0000  plane waves:   47910
 k-point  5 :   0.0000 0.5000 0.0000  plane waves:   47868
 k-point  6 :   0.0000 0.0000 0.2000  plane waves:   48006
 k-point  7 :   0.0000 0.1250 0.2000  plane waves:   47967
 k-point  8 :   0.0000 0.2500 0.2000  plane waves:   47907
 k-point  9 :   0.0000 0.3750 0.2000  plane waves:   47884
 k-point 10 :   0.0000 0.5000 0.2000  plane waves:   47884
 k-point 11 :   0.0000 0.0000 0.4000  plane waves:   47922
 k-point 12 :   0.0000 0.1250 0.4000  plane waves:   47954
 k-point 13 :   0.0000 0.2500 0.4000  plane waves:   47967
 k-point 14 :   0.0000 0.3750 0.4000  plane waves:   47928
 k-point 15 :   0.0000 0.5000 0.4000  plane waves:   47890

 maximum and minimum number of plane-waves per node :     12077    11868

 maximum number of plane-waves:     48006
 maximum index in each direction: 
   IXMAX=   43   IYMAX=   12   IZMAX=   21
   IXMIN=  -43   IYMIN=  -12   IZMIN=  -21


 real space projection operators:
  total allocation   :       4535.31 KBytes
  max/ min on nodes  :       1136.55       1131.22


 parallel 3D FFT for wavefunctions:
    minimum data exchange during FFTs selected (reduces bandwidth)
 parallel 3D FFT for charge:
    minimum data exchange during FFTs selected (reduces bandwidth)


 total amount of memory used by VASP MPI-rank0    79353. kBytes
=======================================================================

   base      :      30000. kBytes
   nonlr-proj:       2647. kBytes
   fftplans  :       5898. kBytes
   grid      :       8824. kBytes
   one-center:         93. kBytes
   wavefun   :      31891. kBytes
 
     INWAV:  cpu time    0.0000: real time    0.0000
 Broyden mixing: mesh for mixing (old mesh)
   NGX = 87   NGY = 25   NGZ = 43
  (NGX  =280   NGY  = 80   NGZ  =128)
  gives a total of  93525 points

 initial charge density was supplied:
 charge density of overlapping atoms calculated
 number of electron     144.0000000 magnetization 
 keeping initial charge density in first step


--------------------------------------------------------------------------------------------------------


 Maximum index for non-local projection operator          744
 Maximum index for augmentation-charges          605 (set IRDMAX)


--------------------------------------------------------------------------------------------------------


 First call to EWALD:  gamma=   0.143
 Maximum number of real-space cells 2x 5x 3
 Maximum number of reciprocal cells 5x 2x 3

    FEWALD:  cpu time    0.0107: real time    0.0108


--------------------------------------- Iteration      1(   1)  ---------------------------------------


    POTLOK:  cpu time13397.1189: real time13429.6535
    SETDIJ:  cpu time  720.2704: real time  721.9691
     EDDAV:  cpu time    2.5736: real time    2.6550
 BZINTS: Fermi energy:  6.745925;144.000000 electrons
         Band energy:-481.502175;  BLOECHL correction: -0.037168
       DOS:  cpu time    0.0158: real time    0.0162
    --------------------------------------------
      LOOP:  cpu time14119.9787: real time14154.2937

 eigenvalue-minimisations  :  2768
 total energy-change (2. order) : 0.1188837E+04  (-0.4767345E+04)
 number of electron     144.0000000 magnetization 
 augmentation part      144.0000000 magnetization 

 Free energy of the ion-electron system (eV)
  ---------------------------------------------------
  alpha Z        PSCENC =       170.45750602
  Ewald energy   TEWEN  =     11139.36097651
  -Hartree energ DENC   =    -17262.94656820
  -exchange      EXHF   =         0.00000000
  -V(xc)+E(xc)   XCENC  =        28.67726860
  PAW double counting   =      3700.71972520    -3383.50420208
  entropy T*S    EENTRO =         0.00000000
  eigenvalues    EBANDS =      -481.50217510
  atomic energy  EATOM  =      7277.57480299
  Solvation  Ediel_sol  =         0.00000000
  ---------------------------------------------------
  free energy    TOTEN  =      1188.83733394 eV

  energy without entropy =     1188.83733394  energy(sigma->0) =     1188.83733394


--------------------------------------------------------------------------------------------------------




--------------------------------------- Iteration      1(   2)  ---------------------------------------


     EDDAV:  cpu time    3.4068: real time    3.4875
 BZINTS: Fermi energy: -1.996009;144.000000 electrons
         Band energy:***********;  BLOECHL correction:  0.000000
       DOS:  cpu time    0.0023: real time    0.0023
    --------------------------------------------
      LOOP:  cpu time    3.4091: real time    3.4898

 eigenvalue-minimisations  :  3864
 total energy-change (2. order) :-0.1116777E+04  (-0.1089018E+04)
 number of electron     144.0000000 magnetization 
 augmentation part      144.0000000 magnetization 

 Free energy of the ion-electron system (eV)
  ---------------------------------------------------
  alpha Z        PSCENC =       170.45750602
  Ewald energy   TEWEN  =     11139.36097651
  -Hartree energ DENC   =    -17262.94656820
  -exchange      EXHF   =         0.00000000
  -V(xc)+E(xc)   XCENC  =        28.67726860
  PAW double counting   =      3700.71972520    -3383.50420208
  entropy T*S    EENTRO =         0.00000000
  eigenvalues    EBANDS =     -1598.27867621
  atomic energy  EATOM  =      7277.57480299
  Solvation  Ediel_sol  =         0.00000000
  ---------------------------------------------------
  free energy    TOTEN  =        72.06083283 eV

  energy without entropy =       72.06083283  energy(sigma->0) =       72.06083283


--------------------------------------------------------------------------------------------------------




--------------------------------------- Iteration      1(   3)  ---------------------------------------


     EDDAV:  cpu time    2.9520: real time    3.0060
 BZINTS: Fermi energy: -3.385895;144.000000 electrons
         Band energy:***********;  BLOECHL correction:  0.000000
       DOS:  cpu time    0.0020: real time    0.0020
    --------------------------------------------
      LOOP:  cpu time    2.9541: real time    3.0080

 eigenvalue-minimisations  :  3208
 total energy-change (2. order) :-0.1681302E+03  (-0.1674831E+03)
 number of electron     144.0000000 magnetization 
 augmentation part      144.0000000 magnetization 

 Free energy of the ion-electron system (eV)
  ---------------------------------------------------
  alpha Z        PSCENC =       170.45750602
  Ewald energy   TEWEN  =     11139.36097651
  -Hartree energ DENC   =    -17262.94656820
  -exchange      EXHF   =         0.00000000
  -V(xc)+E(xc)   XCENC  =        28.67726860
  PAW double counting   =      3700.71972520    -3383.50420208
  entropy T*S    EENTRO =         0.00000000
  eigenvalues    EBANDS =     -1766.40891927
  atomic energy  EATOM  =      7277.57480299
  Solvation  Ediel_sol  =         0.00000000
  ---------------------------------------------------
  free energy    TOTEN  =       -96.06941023 eV

  energy without entropy =      -96.06941023  energy(sigma->0) =      -96.06941023


--------------------------------------------------------------------------------------------------------




--------------------------------------- Iteration      1(   4)  ---------------------------------------


     EDDAV:  cpu time    3.3562: real time    3.3732
 BZINTS: Fermi energy: -3.423673;144.000000 electrons
         Band energy:***********;  BLOECHL correction:  0.000000
       DOS:  cpu time    0.0020: real time    0.0020
    --------------------------------------------
      LOOP:  cpu time    3.3582: real time    3.3752

 eigenvalue-minimisations  :  3744
 total energy-change (2. order) :-0.5952718E+01  (-0.5935260E+01)
 number of electron     144.0000000 magnetization 
 augmentation part      144.0000000 magnetization 

 Free energy of the ion-electron system (eV)
  ---------------------------------------------------
  alpha Z        PSCENC =       170.45750602
  Ewald energy   TEWEN  =     11139.36097651
  -Hartree energ DENC   =    -17262.94656820
  -exchange      EXHF   =         0.00000000
  -V(xc)+E(xc)   XCENC  =        28.67726860
  PAW double counting   =      3700.71972520    -3383.50420208
  entropy T*S    EENTRO =         0.00000000
  eigenvalues    EBANDS =     -1772.36163738
  atomic energy  EATOM  =      7277.57480299
  Solvation  Ediel_sol  =         0.00000000
  ---------------------------------------------------
  free energy    TOTEN  =      -102.02212834 eV

  energy without entropy =     -102.02212834  energy(sigma->0) =     -102.02212834


--------------------------------------------------------------------------------------------------------




--------------------------------------- Iteration      1(   5)  ---------------------------------------


     EDDAV:  cpu time    3.5192: real time    3.5379
 BZINTS: Fermi energy: -3.417607;144.000000 electrons
         Band energy:***********;  BLOECHL correction:  0.000000
       DOS:  cpu time    0.0024: real time    0.0024
    CHARGE:  cpu time    0.1520: real time    0.1665
    MIXING:  cpu time    0.0052: real time    0.0144
    --------------------------------------------
      LOOP:  cpu time    3.6788: real time    3.7212

 eigenvalue-minimisations  :  4168
 total energy-change (2. order) :-0.2689672E+00  (-0.2688801E+00)
 number of electron     143.9999996 magnetization 
 augmentation part      -17.7557519 magnetization 

 Broyden mixing:
  rms(total) = 0.93118E+00    rms(broyden)= 0.93117E+00
  rms(prec ) = 0.12024E+01
  weight for this iteration     100.00

 Free energy of the ion-electron system (eV)
  ---------------------------------------------------
  alpha Z        PSCENC =       170.45750602
  Ewald energy   TEWEN  =     11139.36097651
  -Hartree energ DENC   =    -17262.94656820
  -exchange      EXHF   =         0.00000000
  -V(xc)+E(xc)   XCENC  =        28.67726860
  PAW double counting   =      3700.71972520    -3383.50420208
  entropy T*S    EENTRO =         0.00000000
  eigenvalues    EBANDS =     -1772.63060454
  atomic energy  EATOM  =      7277.57480299
  Solvation  Ediel_sol  =         0.00000000
  ---------------------------------------------------
  free energy    TOTEN  =      -102.29109550 eV

  energy without entropy =     -102.29109550  energy(sigma->0) =     -102.29109550


--------------------------------------------------------------------------------------------------------




--------------------------------------- Iteration      1(   6)  ---------------------------------------


    POTLOK:  cpu time    2.3574: real time    2.3744
    SETDIJ:  cpu time    0.1873: real time    0.1877
     EDDAV:  cpu time    2.9145: real time    2.9213
 BZINTS: Fermi energy: -2.328184;144.000000 electrons
         Band energy:***********;  BLOECHL correction:  0.000000
       DOS:  cpu time    0.0023: real time    0.0023
    CHARGE:  cpu time    0.1706: real time    0.1710
    MIXING:  cpu time    0.0086: real time    0.0086
    --------------------------------------------
      LOOP:  cpu time    5.6407: real time    5.6654

 eigenvalue-minimisations  :  3032
 total energy-change (2. order) : 0.8399293E+01  (-0.2126314E+01)
 number of electron     143.9999996 magnetization 
 augmentation part      -17.6164215 magnetization 

 Broyden mixing:
  rms(total) = 0.47284E+00    rms(broyden)= 0.47284E+00
  rms(prec ) = 0.58918E+00
  weight for this iteration     100.00

 eigenvalues of (default mixing * dielectric matrix)
  average eigenvalue GAMMA=   1.5431
  1.5431

 Free energy of the ion-electron system (eV)
  ---------------------------------------------------
  alpha Z        PSCENC =       170.45750602
  Ewald energy   TEWEN  =     11139.36097651
  -Hartree energ DENC   =    -17353.52404213
  -exchange      EXHF   =         0.00000000
  -V(xc)+E(xc)   XCENC  =        31.60545392
  PAW double counting   =      3733.74826937    -3423.70200601
  entropy T*S    EENTRO =         0.00000000
  eigenvalues    EBANDS =     -1669.41276355
  atomic energy  EATOM  =      7277.57480299
  Solvation  Ediel_sol  =         0.00000000
  ---------------------------------------------------
  free energy    TOTEN  =       -93.89180288 eV

  energy without entropy =      -93.89180288  energy(sigma->0) =      -93.89180288


--------------------------------------------------------------------------------------------------------




--------------------------------------- Iteration      1(   7)  ---------------------------------------


    POTLOK:  cpu time    2.3523: real time    2.3694
    SETDIJ:  cpu time    0.2645: real time    0.2651
     EDDAV:  cpu time    3.1264: real time    3.1339
 BZINTS: Fermi energy: -1.454935;144.000000 electrons
         Band energy:***********;  BLOECHL correction:  0.000000
       DOS:  cpu time    0.0023: real time    0.0023
    CHARGE:  cpu time    0.1677: real time    0.1681
    MIXING:  cpu time    0.0072: real time    0.0074
    --------------------------------------------
      LOOP:  cpu time    5.9204: real time    5.9461

 eigenvalue-minimisations  :  3480
 total energy-change (2. order) : 0.1213569E+01  (-0.1040253E+01)
 number of electron     143.9999996 magnetization 
 augmentation part      -17.6756027 magnetization 

 Broyden mixing:
  rms(total) = 0.25121E+00    rms(broyden)= 0.25121E+00
  rms(prec ) = 0.29911E+00
  weight for this iteration     100.00

 eigenvalues of (default mixing * dielectric matrix)
  average eigenvalue GAMMA=   1.8663
  1.8663  1.8663

 Free energy of the ion-electron system (eV)
  ---------------------------------------------------
  alpha Z        PSCENC =       170.45750602
  Ewald energy   TEWEN  =     11139.36097651
  -Hartree energ DENC   =    -17429.25441382
  -exchange      EXHF   =         0.00000000
  -V(xc)+E(xc)   XCENC  =        33.99314920
  PAW double counting   =      3777.57195193    -3473.29436471
  entropy T*S    EENTRO =         0.00000000
  eigenvalues    EBANDS =     -1589.08784157
  atomic energy  EATOM  =      7277.57480299
  Solvation  Ediel_sol  =         0.00000000
  ---------------------------------------------------
  free energy    TOTEN  =       -92.67823345 eV

  energy without entropy =      -92.67823345  energy(sigma->0) =      -92.67823345


--------------------------------------------------------------------------------------------------------




--------------------------------------- Iteration      1(   8)  ---------------------------------------


    POTLOK:  cpu time    2.4014: real time    2.4191
    SETDIJ:  cpu time    0.4939: real time    0.4951
     EDDAV:  cpu time    2.9079: real time    2.9148
 BZINTS: Fermi energy: -1.333052;144.000000 electrons
         Band energy:***********;  BLOECHL correction:  0.000000
       DOS:  cpu time    0.0028: real time    0.0029
    CHARGE:  cpu time    0.1693: real time    0.1698
    MIXING:  cpu time    0.0062: real time    0.0065
    --------------------------------------------
      LOOP:  cpu time    5.9815: real time    6.0080

 eigenvalue-minimisations  :  3120
 total energy-change (2. order) : 0.2263785E+00  (-0.3732257E+00)
 number of electron     143.9999996 magnetization 
 augmentation part      -17.7967968 magnetization 

 Broyden mixing:
  rms(total) = 0.12077E+00    rms(broyden)= 0.12077E+00
  rms(prec ) = 0.19051E+00
  weight for this iteration     100.00

 eigenvalues of (default mixing * dielectric matrix)
  average eigenvalue GAMMA=   1.6924
  2.6676  1.2048  1.2048

 Free energy of the ion-electron system (eV)
  ---------------------------------------------------
  alpha Z        PSCENC =       170.45750602
  Ewald energy   TEWEN  =     11139.36097651
  -Hartree energ DENC   =    -17461.37599229
  -exchange      EXHF   =         0.00000000
  -V(xc)+E(xc)   XCENC  =        34.97642080
  PAW double counting   =      3827.46532784    -3524.92528188
  entropy T*S    EENTRO =         0.00000000
  eigenvalues    EBANDS =     -1555.98561499
  atomic energy  EATOM  =      7277.57480299
  Solvation  Ediel_sol  =         0.00000000
  ---------------------------------------------------
  free energy    TOTEN  =       -92.45185500 eV

  energy without entropy =      -92.45185500  energy(sigma->0) =      -92.45185500


--------------------------------------------------------------------------------------------------------




--------------------------------------- Iteration      1(   9)  ---------------------------------------


    POTLOK:  cpu time    2.3685: real time    2.3837
    SETDIJ:  cpu time    0.3412: real time    0.3420
     EDDAV:  cpu time    2.7968: real time    2.8035
 BZINTS: Fermi energy: -1.006020;144.000000 electrons
         Band energy:***********;  BLOECHL correction:  0.000000
       DOS:  cpu time    0.0025: real time    0.0025
    CHARGE:  cpu time    0.1581: real time    0.1584
    MIXING:  cpu time    0.0047: real time    0.0047
    --------------------------------------------
      LOOP:  cpu time    5.6717: real time    5.6948

 eigenvalue-minimisations  :  3104
 total energy-change (2. order) : 0.2855986E+00  (-0.1131192E+00)
 number of electron     143.9999996 magnetization 
 augmentation part      -17.7582410 magnetization 

 Broyden mixing:
  rms(total) = 0.54386E-01    rms(broyden)= 0.54385E-01
  rms(prec ) = 0.77563E-01
  weight for this iteration     100.00

 eigenvalues of (default mixing * dielectric matrix)
  average eigenvalue GAMMA=   1.4123
  2.6104  1.2169  1.2169  0.6051

 Free energy of the ion-electron system (eV)
  ---------------------------------------------------
  alpha Z        PSCENC =       170.45750602
  Ewald energy   TEWEN  =     11139.36097651
  -Hartree energ DENC   =    -17500.48670267
  -exchange      EXHF   =         0.00000000
  -V(xc)+E(xc)   XCENC  =        35.96081447
  PAW double counting   =      3838.98006275    -3537.81420292
  entropy T*S    EENTRO =         0.00000000
  eigenvalues    EBANDS =     -1516.19951360
  atomic energy  EATOM  =      7277.57480299
  Solvation  Ediel_sol  =         0.00000000
  ---------------------------------------------------
  free energy    TOTEN  =       -92.16625645 eV

  energy without entropy =      -92.16625645  energy(sigma->0) =      -92.16625645


--------------------------------------------------------------------------------------------------------




--------------------------------------- Iteration      1(  10)  ---------------------------------------


    POTLOK:  cpu time    2.3447: real time    2.3614
    SETDIJ:  cpu time    0.2751: real time    0.2757
     EDDAV:  cpu time    3.0864: real time    3.0936
 BZINTS: Fermi energy: -0.871417;144.000000 electrons
         Band energy:***********;  BLOECHL correction:  0.000000
       DOS:  cpu time    0.0024: real time    0.0024
    CHARGE:  cpu time    0.1412: real time    0.1415
    MIXING:  cpu time    0.0061: real time    0.0062
    --------------------------------------------
      LOOP:  cpu time    5.8558: real time    5.8808

 eigenvalue-minimisations  :  3608
 total energy-change (2. order) : 0.1152147E-01  (-0.2601239E-01)
 number of electron     143.9999996 magnetization 
 augmentation part      -17.7695775 magnetization 

 Broyden mixing:
  rms(total) = 0.41292E-01    rms(broyden)= 0.41292E-01
  rms(prec ) = 0.60840E-01
  weight for this iteration     100.00

 eigenvalues of (default mixing * dielectric matrix)
  average eigenvalue GAMMA=   1.5720
  2.5542  2.2546  1.1694  0.9409  0.9409

 Free energy of the ion-electron system (eV)
  ---------------------------------------------------
  alpha Z        PSCENC =       170.45750602
  Ewald energy   TEWEN  =     11139.36097651
  -Hartree energ DENC   =    -17509.56947247
  -exchange      EXHF   =         0.00000000
  -V(xc)+E(xc)   XCENC  =        35.99345477
  PAW double counting   =      3833.91529576    -3532.47961478
  entropy T*S    EENTRO =         0.00000000
  eigenvalues    EBANDS =     -1507.40768377
  atomic energy  EATOM  =      7277.57480299
  Solvation  Ediel_sol  =         0.00000000
  ---------------------------------------------------
  free energy    TOTEN  =       -92.15473497 eV

  energy without entropy =      -92.15473497  energy(sigma->0) =      -92.15473497


--------------------------------------------------------------------------------------------------------




--------------------------------------- Iteration      1(  11)  ---------------------------------------


    POTLOK:  cpu time    2.3576: real time    2.3728
    SETDIJ:  cpu time    0.3786: real time    0.3795
     EDDAV:  cpu time    2.8820: real time    2.8889
 BZINTS: Fermi energy: -0.853146;144.000000 electrons
         Band energy:***********;  BLOECHL correction:  0.000000
       DOS:  cpu time    0.0020: real time    0.0021
    CHARGE:  cpu time    0.1731: real time    0.1735
    MIXING:  cpu time    0.0062: real time    0.0063
    --------------------------------------------
      LOOP:  cpu time    5.7996: real time    5.8230

 eigenvalue-minimisations  :  3256
 total energy-change (2. order) : 0.2800466E-01  (-0.6726714E-02)
 number of electron     143.9999996 magnetization 
 augmentation part      -17.7780348 magnetization 

 Broyden mixing:
  rms(total) = 0.15622E-01    rms(broyden)= 0.15622E-01
  rms(prec ) = 0.31113E-01
  weight for this iteration     100.00

 eigenvalues of (default mixing * dielectric matrix)
  average eigenvalue GAMMA=   1.6041
  2.8062  2.8062  1.0870  1.0870  0.9193  0.9193

 Free energy of the ion-electron system (eV)
  ---------------------------------------------------
  alpha Z        PSCENC =       170.45750602
  Ewald energy   TEWEN  =     11139.36097651
  -Hartree energ DENC   =    -17524.90224015
  -exchange      EXHF   =         0.00000000
  -V(xc)+E(xc)   XCENC  =        36.13652877
  PAW double counting   =      3834.76391311    -3533.03587902
  entropy T*S    EENTRO =         0.00000000
  eigenvalues    EBANDS =     -1492.48233855
  atomic energy  EATOM  =      7277.57480299
  Solvation  Ediel_sol  =         0.00000000
  ---------------------------------------------------
  free energy    TOTEN  =       -92.12673031 eV

  energy without entropy =      -92.12673031  energy(sigma->0) =      -92.12673031


--------------------------------------------------------------------------------------------------------




--------------------------------------- Iteration      1(  12)  ---------------------------------------


    POTLOK:  cpu time    2.3334: real time    2.3504
    SETDIJ:  cpu time    0.3089: real time    0.3096
     EDDAV:  cpu time    2.9619: real time    2.9689
 BZINTS: Fermi energy: -0.778654;144.000000 electrons
         Band energy:***********;  BLOECHL correction:  0.000000
       DOS:  cpu time    0.0022: real time    0.0022
    CHARGE:  cpu time    0.1700: real time    0.1704
    MIXING:  cpu time    0.0058: real time    0.0058
    --------------------------------------------
      LOOP:  cpu time    5.7821: real time    5.8073

 eigenvalue-minimisations  :  3376
 total energy-change (2. order) :-0.1241650E-01  (-0.1467418E-02)
 number of electron     143.9999996 magnetization 
 augmentation part      -17.7739184 magnetization 

 Broyden mixing:
  rms(total) = 0.11780E-01    rms(broyden)= 0.11780E-01
  rms(prec ) = 0.20339E-01
  weight for this iteration     100.00

 eigenvalues of (default mixing * dielectric matrix)
  average eigenvalue GAMMA=   1.7099
  3.4214  2.5931  1.9548  1.1214  1.1214  0.8786  0.8786

 Free energy of the ion-electron system (eV)
  ---------------------------------------------------
  alpha Z        PSCENC =       170.45750602
  Ewald energy   TEWEN  =     11139.36097651
  -Hartree energ DENC   =    -17536.60911921
  -exchange      EXHF   =         0.00000000
  -V(xc)+E(xc)   XCENC  =        36.16643101
  PAW double counting   =      3832.24547392    -3530.32315952
  entropy T*S    EENTRO =         0.00000000
  eigenvalues    EBANDS =     -1481.01205854
  atomic energy  EATOM  =      7277.57480299
  Solvation  Ediel_sol  =         0.00000000
  ---------------------------------------------------
  free energy    TOTEN  =       -92.13914681 eV

  energy without entropy =      -92.13914681  energy(sigma->0) =      -92.13914681


--------------------------------------------------------------------------------------------------------




--------------------------------------- Iteration      1(  13)  ---------------------------------------


    POTLOK:  cpu time    2.3704: real time    2.3878
    SETDIJ:  cpu time    0.3901: real time    0.3910
     EDDAV:  cpu time    2.8902: real time    2.8971
 BZINTS: Fermi energy: -0.636771;144.000000 electrons
         Band energy:***********;  BLOECHL correction:  0.000000
       DOS:  cpu time    0.0025: real time    0.0025
    CHARGE:  cpu time    0.1437: real time    0.1440
    MIXING:  cpu time    0.0069: real time    0.0070
    --------------------------------------------
      LOOP:  cpu time    5.8038: real time    5.8294

 eigenvalue-minimisations  :  3216
 total energy-change (2. order) : 0.8512981E-02  (-0.8566363E-03)
 number of electron     143.9999996 magnetization 
 augmentation part      -17.7738763 magnetization 

 Broyden mixing:
  rms(total) = 0.63289E-02    rms(broyden)= 0.63289E-02
  rms(prec ) = 0.11099E-01
  weight for this iteration     100.00

 eigenvalues of (default mixing * dielectric matrix)
  average eigenvalue GAMMA=   1.7840
  4.0333  2.7903  2.4122  1.2087  1.2087  0.8887  0.8650  0.8650

 Free energy of the ion-electron system (eV)
  ---------------------------------------------------
  alpha Z        PSCENC =       170.45750602
  Ewald energy   TEWEN  =     11139.36097651
  -Hartree energ DENC   =    -17545.95623869
  -exchange      EXHF   =         0.00000000
  -V(xc)+E(xc)   XCENC  =        36.23681406
  PAW double counting   =      3830.95775075    -3529.14351949
  entropy T*S    EENTRO =         0.00000000
  eigenvalues    EBANDS =     -1471.61872598
  atomic energy  EATOM  =      7277.57480299
  Solvation  Ediel_sol  =         0.00000000
  ---------------------------------------------------
  free energy    TOTEN  =       -92.13063383 eV

  energy without entropy =      -92.13063383  energy(sigma->0) =      -92.13063383


--------------------------------------------------------------------------------------------------------




--------------------------------------- Iteration      1(  14)  ---------------------------------------


    POTLOK:  cpu time    2.4322: real time    2.4472
    SETDIJ:  cpu time    0.2438: real time    0.2444
     EDDAV:  cpu time    2.6954: real time    2.7018
 BZINTS: Fermi energy: -0.616525;144.000000 electrons
         Band energy:***********;  BLOECHL correction:  0.000000
       DOS:  cpu time    0.0024: real time    0.0024
    CHARGE:  cpu time    0.1509: real time    0.1512
    MIXING:  cpu time    0.0092: real time    0.0093
    --------------------------------------------
      LOOP:  cpu time    5.5339: real time    5.5563

 eigenvalue-minimisations  :  3032
 total energy-change (2. order) : 0.3976731E-02  (-0.2694890E-03)
 number of electron     143.9999996 magnetization 
 augmentation part      -17.7750622 magnetization 

 Broyden mixing:
  rms(total) = 0.51554E-02    rms(broyden)= 0.51554E-02
  rms(prec ) = 0.83166E-02
  weight for this iteration     100.00

 eigenvalues of (default mixing * dielectric matrix)
  average eigenvalue GAMMA=   1.8242
  4.5141  3.0466  2.1120  1.4095  1.4095  0.8859  0.8859  1.0770  1.0770

 Free energy of the ion-electron system (eV)
  ---------------------------------------------------
  alpha Z        PSCENC =       170.45750602
  Ewald energy   TEWEN  =     11139.36097651
  -Hartree energ DENC   =    -17549.46829279
  -exchange      EXHF   =         0.00000000
  -V(xc)+E(xc)   XCENC  =        36.25011291
  PAW double counting   =      3830.27626008    -3528.47484700
  entropy T*S    EENTRO =         0.00000000
  eigenvalues    EBANDS =     -1468.10317583
  atomic energy  EATOM  =      7277.57480299
  Solvation  Ediel_sol  =         0.00000000
  ---------------------------------------------------
  free energy    TOTEN  =       -92.12665710 eV

  energy without entropy =      -92.12665710  energy(sigma->0) =      -92.12665710


--------------------------------------------------------------------------------------------------------




--------------------------------------- Iteration      1(  15)  ---------------------------------------


    POTLOK:  cpu time    2.3480: real time    2.3652
    SETDIJ:  cpu time    0.2696: real time    0.2703
     EDDAV:  cpu time    2.6418: real time    2.6480
 BZINTS: Fermi energy: -0.606284;144.000000 electrons
         Band energy:***********;  BLOECHL correction:  0.000000
       DOS:  cpu time    0.0023: real time    0.0023
    CHARGE:  cpu time    0.1721: real time    0.1725
    MIXING:  cpu time    0.0076: real time    0.0077
    --------------------------------------------
      LOOP:  cpu time    5.4414: real time    5.4660

 eigenvalue-minimisations  :  2864
 total energy-change (2. order) :-0.1137106E-02  (-0.2263070E-03)
 number of electron     143.9999996 magnetization 
 augmentation part      -17.7765080 magnetization 

 Broyden mixing:
  rms(total) = 0.19820E-02    rms(broyden)= 0.19820E-02
  rms(prec ) = 0.38925E-02
  weight for this iteration     100.00

 eigenvalues of (default mixing * dielectric matrix)
  average eigenvalue GAMMA=   1.9283
  5.3484  3.2996  2.5800  1.6198  0.8835  0.8835  1.2659  1.2659  0.9871  1.1491

 Free energy of the ion-electron system (eV)
  ---------------------------------------------------
  alpha Z        PSCENC =       170.45750602
  Ewald energy   TEWEN  =     11139.36097651
  -Hartree energ DENC   =    -17550.99239931
  -exchange      EXHF   =         0.00000000
  -V(xc)+E(xc)   XCENC  =        36.24090509
  PAW double counting   =      3830.63294226    -3528.80461845
  entropy T*S    EENTRO =         0.00000000
  eigenvalues    EBANDS =     -1466.59790932
  atomic energy  EATOM  =      7277.57480299
  Solvation  Ediel_sol  =         0.00000000
  ---------------------------------------------------
  free energy    TOTEN  =       -92.12779421 eV

  energy without entropy =      -92.12779421  energy(sigma->0) =      -92.12779421


--------------------------------------------------------------------------------------------------------




--------------------------------------- Iteration      1(  16)  ---------------------------------------


    POTLOK:  cpu time    2.3722: real time    2.3876
    SETDIJ:  cpu time    0.3615: real time    0.3624
     EDDAV:  cpu time    2.7218: real time    2.7282
 BZINTS: Fermi energy: -0.596331;144.000000 electrons
         Band energy:***********;  BLOECHL correction:  0.000000
       DOS:  cpu time    0.0024: real time    0.0024
    CHARGE:  cpu time    0.1468: real time    0.1471
    MIXING:  cpu time    0.0070: real time    0.0071
    --------------------------------------------
      LOOP:  cpu time    5.6117: real time    5.6348

 eigenvalue-minimisations  :  3080
 total energy-change (2. order) : 0.1169233E-02  (-0.1587766E-03)
 number of electron     143.9999996 magnetization 
 augmentation part      -17.7762633 magnetization 

 Broyden mixing:
  rms(total) = 0.14721E-02    rms(broyden)= 0.14721E-02
  rms(prec ) = 0.26532E-02
  weight for this iteration     100.00

 eigenvalues of (default mixing * dielectric matrix)
  average eigenvalue GAMMA=   1.9877
  5.6647  3.7562  2.5833  1.7485  1.7485  0.8857  0.8857  1.2705  1.2705  1.0122
  1.0388

 Free energy of the ion-electron system (eV)
  ---------------------------------------------------
  alpha Z        PSCENC =       170.45750602
  Ewald energy   TEWEN  =     11139.36097651
  -Hartree energ DENC   =    -17552.60554961
  -exchange      EXHF   =         0.00000000
  -V(xc)+E(xc)   XCENC  =        36.24529642
  PAW double counting   =      3830.90509369    -3529.09112519
  entropy T*S    EENTRO =         0.00000000
  eigenvalues    EBANDS =     -1464.97362580
  atomic energy  EATOM  =      7277.57480299
  Solvation  Ediel_sol  =         0.00000000
  ---------------------------------------------------
  free energy    TOTEN  =       -92.12662497 eV

  energy without entropy =      -92.12662497  energy(sigma->0) =      -92.12662497


--------------------------------------------------------------------------------------------------------




--------------------------------------- Iteration      1(  17)  ---------------------------------------


    POTLOK:  cpu time    2.3544: real time    2.3703
    SETDIJ:  cpu time    0.3431: real time    0.3439
     EDDAV:  cpu time    2.7168: real time    2.7232
 BZINTS: Fermi energy: -0.589456;144.000000 electrons
         Band energy:***********;  BLOECHL correction:  0.000000
       DOS:  cpu time    0.0028: real time    0.0028
    CHARGE:  cpu time    0.1413: real time    0.1416
    MIXING:  cpu time    0.0072: real time    0.0072
    --------------------------------------------
      LOOP:  cpu time    5.5655: real time    5.5891

 eigenvalue-minimisations  :  2952
 total energy-change (2. order) : 0.6130169E-03  (-0.9527711E-04)
 number of electron     143.9999996 magnetization 
 augmentation part      -17.7762340 magnetization 

 Broyden mixing:
  rms(total) = 0.97184E-03    rms(broyden)= 0.97184E-03
  rms(prec ) = 0.17768E-02
  weight for this iteration     100.00

 eigenvalues of (default mixing * dielectric matrix)
  average eigenvalue GAMMA=   2.0191
  6.0745  3.9433  2.7851  2.2264  0.8845  0.8845  1.4681  1.4681  0.9889  1.1439
  1.1439  1.2176

 Free energy of the ion-electron system (eV)
  ---------------------------------------------------
  alpha Z        PSCENC =       170.45750602
  Ewald energy   TEWEN  =     11139.36097651
  -Hartree energ DENC   =    -17553.66364850
  -exchange      EXHF   =         0.00000000
  -V(xc)+E(xc)   XCENC  =        36.24718763
  PAW double counting   =      3830.87888920    -3529.06051676
  entropy T*S    EENTRO =         0.00000000
  eigenvalues    EBANDS =     -1463.92120906
  atomic energy  EATOM  =      7277.57480299
  Solvation  Ediel_sol  =         0.00000000
  ---------------------------------------------------
  free energy    TOTEN  =       -92.12601196 eV

  energy without entropy =      -92.12601196  energy(sigma->0) =      -92.12601196


--------------------------------------------------------------------------------------------------------




--------------------------------------- Iteration      1(  18)  ---------------------------------------


    POTLOK:  cpu time    2.3908: real time    2.4083
    SETDIJ:  cpu time    0.3632: real time    0.3641
     EDDAV:  cpu time    2.7550: real time    2.7616
 BZINTS: Fermi energy: -0.586438;144.000000 electrons
         Band energy:***********;  BLOECHL correction:  0.000000
       DOS:  cpu time    0.0023: real time    0.0023
    CHARGE:  cpu time    0.1506: real time    0.1510
    MIXING:  cpu time    0.0063: real time    0.0063
    --------------------------------------------
      LOOP:  cpu time    5.6683: real time    5.6935

 eigenvalue-minimisations  :  2880
 total energy-change (2. order) :-0.9005173E-03  (-0.4232876E-04)
 number of electron     143.9999996 magnetization 
 augmentation part      -17.7761616 magnetization 

 Broyden mixing:
  rms(total) = 0.58612E-03    rms(broyden)= 0.58612E-03
  rms(prec ) = 0.98206E-03
  weight for this iteration     100.00

 eigenvalues of (default mixing * dielectric matrix)
  average eigenvalue GAMMA=   2.0957
  6.4447  4.6019  2.7390  2.7390  1.8637  0.8843  0.8843  1.3597  1.3597  1.2010
  1.2010  0.9831  0.9831

 Free energy of the ion-electron system (eV)
  ---------------------------------------------------
  alpha Z        PSCENC =       170.45750602
  Ewald energy   TEWEN  =     11139.36097651
  -Hartree energ DENC   =    -17554.39266784
  -exchange      EXHF   =         0.00000000
  -V(xc)+E(xc)   XCENC  =        36.24981207
  PAW double counting   =      3830.80502915    -3528.98348671
  entropy T*S    EENTRO =         0.00000000
  eigenvalues    EBANDS =     -1463.19888467
  atomic energy  EATOM  =      7277.57480299
  Solvation  Ediel_sol  =         0.00000000
  ---------------------------------------------------
  free energy    TOTEN  =       -92.12691248 eV

  energy without entropy =      -92.12691248  energy(sigma->0) =      -92.12691248


--------------------------------------------------------------------------------------------------------




--------------------------------------- Iteration      1(  19)  ---------------------------------------


    POTLOK:  cpu time    2.3632: real time    2.3799
    SETDIJ:  cpu time    0.2592: real time    0.2598
     EDDAV:  cpu time    2.5060: real time    2.5119
 BZINTS: Fermi energy: -0.586907;144.000000 electrons
         Band energy:***********;  BLOECHL correction:  0.000000
       DOS:  cpu time    0.0024: real time    0.0024
    CHARGE:  cpu time    0.1499: real time    0.1502
    MIXING:  cpu time    0.0069: real time    0.0069
    --------------------------------------------
      LOOP:  cpu time    5.2876: real time    5.3112

 eigenvalue-minimisations  :  2600
 total energy-change (2. order) :-0.7872300E-03  (-0.3682087E-04)
 number of electron     143.9999996 magnetization 
 augmentation part      -17.7763635 magnetization 

 Broyden mixing:
  rms(total) = 0.49707E-03    rms(broyden)= 0.49707E-03
  rms(prec ) = 0.72357E-03
  weight for this iteration     100.00

 eigenvalues of (default mixing * dielectric matrix)
  average eigenvalue GAMMA=   2.2090
  7.0502  5.3246  3.0700  2.8604  2.0707  1.6515  1.6515  0.8843  0.8843  1.2454
  1.2454  0.9566  1.0157  1.0157

 Free energy of the ion-electron system (eV)
  ---------------------------------------------------
  alpha Z        PSCENC =       170.45750602
  Ewald energy   TEWEN  =     11139.36097651
  -Hartree energ DENC   =    -17554.52172396
  -exchange      EXHF   =         0.00000000
  -V(xc)+E(xc)   XCENC  =        36.24774510
  PAW double counting   =      3830.73920057    -3528.91580773
  entropy T*S    EENTRO =         0.00000000
  eigenvalues    EBANDS =     -1463.07039921
  atomic energy  EATOM  =      7277.57480299
  Solvation  Ediel_sol  =         0.00000000
  ---------------------------------------------------
  free energy    TOTEN  =       -92.12769971 eV

  energy without entropy =      -92.12769971  energy(sigma->0) =      -92.12769971


--------------------------------------------------------------------------------------------------------




--------------------------------------- Iteration      1(  20)  ---------------------------------------


    POTLOK:  cpu time    2.3850: real time    2.4020
    SETDIJ:  cpu time    0.1811: real time    0.1815
     EDDAV:  cpu time    2.5375: real time    2.5435
 BZINTS: Fermi energy: -0.587939;144.000000 electrons
         Band energy:***********;  BLOECHL correction:  0.000000
       DOS:  cpu time    0.0028: real time    0.0028
    CHARGE:  cpu time    0.1510: real time    0.1513
    MIXING:  cpu time    0.0076: real time    0.0076
    --------------------------------------------
      LOOP:  cpu time    5.2649: real time    5.2887

 eigenvalue-minimisations  :  2648
 total energy-change (2. order) :-0.5382543E-03  (-0.2491125E-04)
 number of electron     143.9999996 magnetization 
 augmentation part      -17.7764613 magnetization 

 Broyden mixing:
  rms(total) = 0.21839E-03    rms(broyden)= 0.21839E-03
  rms(prec ) = 0.32331E-03
  weight for this iteration     100.00

 eigenvalues of (default mixing * dielectric matrix)
  average eigenvalue GAMMA=   2.2849
  7.5081  6.2787  3.0913  3.0913  2.5038  1.5904  1.5904  0.8844  0.8844  1.3155
  1.3155  1.1463  1.1463  0.9637  0.9637

 Free energy of the ion-electron system (eV)
  ---------------------------------------------------
  alpha Z        PSCENC =       170.45750602
  Ewald energy   TEWEN  =     11139.36097651
  -Hartree energ DENC   =    -17554.58500721
  -exchange      EXHF   =         0.00000000
  -V(xc)+E(xc)   XCENC  =        36.24770998
  PAW double counting   =      3830.76852395    -3528.94483517
  entropy T*S    EENTRO =         0.00000000
  eigenvalues    EBANDS =     -1463.00791503
  atomic energy  EATOM  =      7277.57480299
  Solvation  Ediel_sol  =         0.00000000
  ---------------------------------------------------
  free energy    TOTEN  =       -92.12823796 eV

  energy without entropy =      -92.12823796  energy(sigma->0) =      -92.12823796


--------------------------------------------------------------------------------------------------------




--------------------------------------- Iteration      1(  21)  ---------------------------------------


    POTLOK:  cpu time    2.4384: real time    2.4555
    SETDIJ:  cpu time    0.1750: real time    0.1754
     EDDAV:  cpu time    2.3028: real time    2.3083
 BZINTS: Fermi energy: -0.589943;144.000000 electrons
         Band energy:***********;  BLOECHL correction:  0.000000
       DOS:  cpu time    0.0025: real time    0.0025
    CHARGE:  cpu time    0.1762: real time    0.1766
    MIXING:  cpu time    0.0088: real time    0.0088
    --------------------------------------------
      LOOP:  cpu time    5.1038: real time    5.1271

 eigenvalue-minimisations  :  2360
 total energy-change (2. order) :-0.2713389E-03  (-0.1053409E-04)
 number of electron     143.9999996 magnetization 
 augmentation part      -17.7764288 magnetization 

 Broyden mixing:
  rms(total) = 0.11655E-03    rms(broyden)= 0.11655E-03
  rms(prec ) = 0.14227E-03
  weight for this iteration     100.00

 eigenvalues of (default mixing * dielectric matrix)
  average eigenvalue GAMMA=   2.3360
  8.4828  6.4932  3.2466  3.2466  2.4250  1.8964  1.8964  0.8844  0.8844  1.2941
  1.2941  1.2204  1.0851  1.0851  0.9704  0.9704

 Free energy of the ion-electron system (eV)
  ---------------------------------------------------
  alpha Z        PSCENC =       170.45750602
  Ewald energy   TEWEN  =     11139.36097651
  -Hartree energ DENC   =    -17554.48197053
  -exchange      EXHF   =         0.00000000
  -V(xc)+E(xc)   XCENC  =        36.24693705
  PAW double counting   =      3830.78874156    -3528.96614169
  entropy T*S    EENTRO =         0.00000000
  eigenvalues    EBANDS =     -1463.10936121
  atomic energy  EATOM  =      7277.57480299
  Solvation  Ediel_sol  =         0.00000000
  ---------------------------------------------------
  free energy    TOTEN  =       -92.12850930 eV

  energy without entropy =      -92.12850930  energy(sigma->0) =      -92.12850930


--------------------------------------------------------------------------------------------------------




--------------------------------------- Iteration      1(  22)  ---------------------------------------


    POTLOK:  cpu time    2.3493: real time    2.3665
    SETDIJ:  cpu time    0.2858: real time    0.2865
     EDDAV:  cpu time    2.0948: real time    2.0997
 BZINTS: Fermi energy: -0.591387;144.000000 electrons
         Band energy:***********;  BLOECHL correction:  0.000000
       DOS:  cpu time    0.0025: real time    0.0025
    CHARGE:  cpu time    0.1533: real time    0.1537
    MIXING:  cpu time    0.0114: real time    0.0115
    --------------------------------------------
      LOOP:  cpu time    4.8971: real time    4.9204

 eigenvalue-minimisations  :  2096
 total energy-change (2. order) :-0.2207407E-04  (-0.3577645E-05)
 number of electron     143.9999996 magnetization 
 augmentation part      -17.7764034 magnetization 

 Broyden mixing:
  rms(total) = 0.69791E-04    rms(broyden)= 0.69791E-04
  rms(prec ) = 0.89785E-04
  weight for this iteration     100.00

 eigenvalues of (default mixing * dielectric matrix)
  average eigenvalue GAMMA=   2.3227
  8.5891  6.9908  3.3192  3.3192  2.6047  1.8917  1.8917  0.8844  0.8844  1.4334
  1.2039  1.2039  0.9660  0.9660  1.0784  1.1292  1.1292

 Free energy of the ion-electron system (eV)
  ---------------------------------------------------
  alpha Z        PSCENC =       170.45750602
  Ewald energy   TEWEN  =     11139.36097651
  -Hartree energ DENC   =    -17554.48839293
  -exchange      EXHF   =         0.00000000
  -V(xc)+E(xc)   XCENC  =        36.24665518
  PAW double counting   =      3830.76743506    -3528.94462227
  entropy T*S    EENTRO =         0.00000000
  eigenvalues    EBANDS =     -1463.10289194
  atomic energy  EATOM  =      7277.57480299
  Solvation  Ediel_sol  =         0.00000000
  ---------------------------------------------------
  free energy    TOTEN  =       -92.12853137 eV

  energy without entropy =      -92.12853137  energy(sigma->0) =      -92.12853137


--------------------------------------------------------------------------------------------------------




--------------------------------------- Iteration      1(  23)  ---------------------------------------


    POTLOK:  cpu time    2.3414: real time    2.3623
    SETDIJ:  cpu time    0.3480: real time    0.3488
     EDDAV:  cpu time    2.1635: real time    2.1686
 BZINTS: Fermi energy: -0.593325;144.000000 electrons
         Band energy:***********;  BLOECHL correction:  0.000000
       DOS:  cpu time    0.0023: real time    0.0023
    CHARGE:  cpu time    0.1499: real time    0.1502
    MIXING:  cpu time    0.0114: real time    0.0115
    --------------------------------------------
      LOOP:  cpu time    5.0165: real time    5.0437

 eigenvalue-minimisations  :  2080
 total energy-change (2. order) : 0.2218101E-04  (-0.3449102E-05)
 number of electron     143.9999996 magnetization 
 augmentation part      -17.7763887 magnetization 

 Broyden mixing:
  rms(total) = 0.41074E-04    rms(broyden)= 0.41073E-04
  rms(prec ) = 0.55085E-04
  weight for this iteration     100.00

 eigenvalues of (default mixing * dielectric matrix)
  average eigenvalue GAMMA=   2.3192
  8.6125  7.1827  3.4331  3.4331  2.6700  1.9389  1.9389  1.8389  0.8844  0.8844
  1.2605  1.2605  1.2385  1.1428  1.1428  0.9573  0.9573  0.9693

 Free energy of the ion-electron system (eV)
  ---------------------------------------------------
  alpha Z        PSCENC =       170.45750602
  Ewald energy   TEWEN  =     11139.36097651
  -Hartree energ DENC   =    -17554.46522597
  -exchange      EXHF   =         0.00000000
  -V(xc)+E(xc)   XCENC  =        36.24652815
  PAW double counting   =      3830.76636151    -3528.94375514
  entropy T*S    EENTRO =         0.00000000
  eigenvalues    EBANDS =     -1463.12570326
  atomic energy  EATOM  =      7277.57480299
  Solvation  Ediel_sol  =         0.00000000
  ---------------------------------------------------
  free energy    TOTEN  =       -92.12850919 eV

  energy without entropy =      -92.12850919  energy(sigma->0) =      -92.12850919


--------------------------------------------------------------------------------------------------------




--------------------------------------- Iteration      1(  24)  ---------------------------------------


    POTLOK:  cpu time    2.3552: real time    2.3717
    SETDIJ:  cpu time    0.3495: real time    0.3503
     EDDAV:  cpu time    2.4672: real time    2.4731
 BZINTS: Fermi energy: -0.607758;144.000000 electrons
         Band energy:***********;  BLOECHL correction:  0.000000
       DOS:  cpu time    0.0024: real time    0.0024
    CHARGE:  cpu time    0.1422: real time    0.1426
    MIXING:  cpu time    0.0067: real time    0.0067
    --------------------------------------------
      LOOP:  cpu time    5.3232: real time    5.3468

 eigenvalue-minimisations  :  2624
 total energy-change (2. order) : 0.1201537E-04  (-0.2287102E-05)
 number of electron     143.9999996 magnetization 
 augmentation part      -17.7763778 magnetization 

 Broyden mixing:
  rms(total) = 0.24943E-04    rms(broyden)= 0.24939E-04
  rms(prec ) = 0.34553E-04
  weight for this iteration     100.00

 eigenvalues of (default mixing * dielectric matrix)
  average eigenvalue GAMMA=   2.3100
  8.3978  7.4789  3.5997  3.5997  2.7927  2.2014  2.2014  1.8063  0.8844  0.8844
  1.2225  1.2225  1.2952  1.1410  1.1410  0.9525  0.9525  1.0579  1.0579

 Free energy of the ion-electron system (eV)
  ---------------------------------------------------
  alpha Z        PSCENC =       170.45750602
[...]
      7     -28.3143      2.00000
      8     -28.3140      2.00000
      9     -15.0151      2.00000
     10     -15.0149      2.00000
     11     -14.9508      2.00000
     12     -14.9508      2.00000
     13     -14.8821      2.00000
     14     -14.8821      2.00000
     15     -14.1989      2.00000
     16     -14.1986      2.00000
     17     -14.1778      2.00000
     18     -14.1721      2.00000
     19     -14.1158      2.00000
     20     -14.1144      2.00000
     21     -14.0660      2.00000
     22     -14.0583      2.00000
     23     -14.0228      2.00000
     24     -14.0209      2.00000
     25     -14.0199      2.00000
     26     -14.0184      2.00000
     27     -13.6180      2.00000
     28     -13.6112      2.00000
     29     -13.5627      2.00000
     30     -13.5553      2.00000
     31     -13.5405      2.00000
     32     -13.5376      2.00000
     33     -11.0254      2.00000
     34     -11.0165      2.00000
     35     -10.7146      2.00000
     36     -10.7015      2.00000
     37      -6.5268      2.00000
     38      -6.5141      2.00000
     39      -6.2798      2.00000
     40      -6.2708      2.00000
     41      -6.1888      2.00000
     42      -6.1837      2.00000
     43      -6.0039      2.00000
     44      -5.9907      2.00000
     45      -5.9414      2.00000
     46      -5.9045      2.00000
     47      -5.8651      2.00000
     48      -5.7567      2.00000
     49      -2.8425      2.00000
     50      -2.7585      2.00000
     51      -2.6343      2.00000
     52      -2.5890      2.00000
     53      -2.2702      2.00000
     54      -2.1910      2.00000
     55      -2.1804      2.00000
     56      -2.1510      2.00000
     57      -2.0220      2.00000
     58      -2.0002      2.00000
     59      -1.8880      2.00000
     60      -1.8137      2.00000
     61      -1.7511      2.00000
     62      -1.6573      2.00000
     63      -1.5560      2.00000
     64      -1.5187      2.00000
     65      -1.3684      2.00000
     66      -1.3080      2.00000
     67      -1.2648      2.00000
     68      -1.1299      2.00000
     69      -1.0323      2.00000
     70      -0.9888      2.00000
     71      -0.9338      2.00000
     72      -0.8856      2.00000
     73       0.2008      0.00000
     74       0.2401      0.00000
     75       0.3933      0.00000
     76       0.4382      0.00000
     77       0.5509      0.00000
     78       0.6142      0.00000
     79       0.7573      0.00000
     80       0.7801      0.00000
     81       0.8338      0.00000
     82       0.8736      0.00000
     83       1.0285      0.00000
     84       1.0620      0.00000
     85       1.1698      0.00000
     86       1.3054      0.00000
     87       1.4082      0.00000
     88       1.5171      0.00000

 k-point    15 :       0.0000    0.5000    0.4000
  band No.  band energies     occupation 
      1     -29.7223      2.00000
      2     -29.7223      2.00000
      3     -28.8662      2.00000
      4     -28.8662      2.00000
      5     -28.8090      2.00000
      6     -28.8089      2.00000
      7     -28.3142      2.00000
      8     -28.3142      2.00000
      9     -15.0146      2.00000
     10     -15.0145      2.00000
     11     -14.9516      2.00000
     12     -14.9515      2.00000
     13     -14.8840      2.00000
     14     -14.8840      2.00000
     15     -14.1982      2.00000
     16     -14.1982      2.00000
     17     -14.1757      2.00000
     18     -14.1756      2.00000
     19     -14.1175      2.00000
     20     -14.1175      2.00000
     21     -14.0638      2.00000
     22     -14.0638      2.00000
     23     -14.0234      2.00000
     24     -14.0234      2.00000
     25     -14.0186      2.00000
     26     -14.0186      2.00000
     27     -13.6141      2.00000
     28     -13.6141      2.00000
     29     -13.5600      2.00000
     30     -13.5600      2.00000
     31     -13.5380      2.00000
     32     -13.5380      2.00000
     33     -11.0150      2.00000
     34     -11.0150      2.00000
     35     -10.6989      2.00000
     36     -10.6989      2.00000
     37      -6.5501      2.00000
     38      -6.5501      2.00000
     39      -6.2589      2.00000
     40      -6.2588      2.00000
     41      -6.1793      2.00000
     42      -6.1793      2.00000
     43      -5.9738      2.00000
     44      -5.9738      2.00000
     45      -5.9346      2.00000
     46      -5.9346      2.00000
     47      -5.8026      2.00000
     48      -5.8025      2.00000
     49      -2.7520      2.00000
     50      -2.7520      2.00000
     51      -2.6316      2.00000
     52      -2.6316      2.00000
     53      -2.2200      2.00000
     54      -2.2200      2.00000
     55      -2.1810      2.00000
     56      -2.1810      2.00000
     57      -2.0229      2.00000
     58      -2.0229      2.00000
     59      -1.7988      2.00000
     60      -1.7988      2.00000
     61      -1.6156      2.00000
     62      -1.6156      2.00000
     63      -1.5871      2.00000
     64      -1.5871      2.00000
     65      -1.3523      2.00000
     66      -1.3523      2.00000
     67      -1.2044      2.00000
     68      -1.2044      2.00000
     69      -1.0224      2.00000
     70      -1.0224      2.00000
     71      -0.9173      2.00000
     72      -0.9173      2.00000
     73       0.1490      0.00000
     74       0.1491      0.00000
     75       0.3796      0.00000
     76       0.3796      0.00000
     77       0.6035      0.00000
     78       0.6035      0.00000
     79       0.7061      0.00000
     80       0.7062      0.00000
     81       0.7999      0.00000
     82       0.7999      0.00000
     83       1.0629      0.00000
     84       1.0630      0.00000
     85       1.2461      0.00000
     86       1.2466      0.00000
     87       1.3859      0.00000
     88       1.3859      0.00000


--------------------------------------------------------------------------------------------------------


 soft charge-density along one line, spin component           1
         0         1         2         3         4         5         6         7         8         9
 total charge-density along one line
 
 pseudopotential strength for first ion, spin component:           1
  4.879  -5.537  -0.000  -0.005  -0.021  -0.000  -0.005  -0.024
 -5.537  -2.772   0.000   0.001   0.002  -0.000  -0.001  -0.004
 -0.000   0.000  -6.751  -0.000  -0.000   1.895  -0.000  -0.000
 -0.005   0.001  -0.000  -6.746  -0.001  -0.000   1.906  -0.003
 -0.021   0.002  -0.000  -0.001  -6.747  -0.000  -0.003   1.906
 -0.000  -0.000   1.895  -0.000  -0.000   7.250  -0.000  -0.000
 -0.005  -0.001  -0.000   1.906  -0.003  -0.000   7.251  -0.000
 -0.024  -0.004  -0.000  -0.003   1.906  -0.000  -0.000   7.251
 -0.000   0.000  -0.013  -0.000  -0.000  -0.010  -0.000  -0.000
 -0.000   0.000  -0.000  -0.000  -0.000  -0.000  -0.000  -0.000
  0.002  -0.001   0.000  -0.005   0.007   0.000  -0.003   0.005
 -0.002   0.001  -0.000  -0.012  -0.002  -0.000  -0.009  -0.002
  0.003  -0.001   0.000  -0.001  -0.011   0.000  -0.001  -0.009
  0.000   0.000   0.001   0.000   0.000   0.000   0.000   0.000
  0.000   0.000   0.000   0.000   0.000  -0.000   0.000   0.000
 -0.000  -0.000  -0.000   0.000  -0.000  -0.000   0.000  -0.000
  0.000   0.000   0.000   0.001   0.000   0.000   0.000   0.000
 -0.000  -0.000  -0.000   0.000   0.001  -0.000   0.000   0.000
 total augmentation occupancy for first ion, spin component:           1
  2.113  -0.265   0.000   0.012   0.052   0.000  -0.005  -0.019   0.000  -0.000   0.015  -0.007   0.032   0.000   0.000  -0.008
 -0.265   0.639   0.000  -0.031  -0.134   0.000   0.011   0.032  -0.000   0.000  -0.025   0.006  -0.063   0.000   0.000   0.035
  0.000   0.000   2.014   0.000   0.000  -0.016  -0.000   0.000  -0.080   0.023   0.000   0.000   0.000   0.070  -0.043   0.000
  0.012  -0.031   0.000   2.000   0.003   0.000  -0.007  -0.002   0.000   0.000  -0.044  -0.065  -0.014   0.000   0.000   0.045
  0.052  -0.134   0.000   0.003   1.995   0.000  -0.002  -0.005   0.000   0.000   0.033  -0.006  -0.050   0.000   0.000  -0.028
  0.000   0.000  -0.016   0.000   0.000   0.008   0.000  -0.000   0.022  -0.009   0.000   0.000   0.000  -0.030   0.013   0.000
 -0.005   0.011   0.000  -0.007  -0.002  -0.000   0.005   0.001   0.000   0.000   0.016   0.015   0.005  -0.000   0.000  -0.022
 -0.019   0.032  -0.000  -0.002  -0.005   0.000   0.001   0.004   0.000   0.000  -0.006  -0.000   0.008   0.000   0.000   0.008
  0.000   0.000  -0.080   0.000   0.000   0.022  -0.000   0.000   0.150  -0.015   0.000   0.000   0.000  -0.188   0.020   0.000
  0.000   0.000   0.023   0.000   0.000  -0.009  -0.000   0.000  -0.015   0.068   0.000   0.000  -0.000   0.019  -0.085   0.000
  0.015  -0.025   0.000  -0.044   0.033   0.000   0.016  -0.006   0.000   0.000   0.120   0.051   0.020   0.000   0.000  -0.149
 -0.007   0.006   0.000  -0.065  -0.006  -0.000   0.015  -0.000   0.000   0.000   0.051   0.088   0.008   0.000   0.000  -0.071
  0.032  -0.063   0.000  -0.014  -0.050   0.000   0.005   0.008  -0.000   0.000   0.020   0.008   0.091   0.000  -0.000  -0.026
  0.000   0.000   0.070   0.000  -0.000  -0.030   0.000  -0.000  -0.188   0.019   0.000   0.000  -0.000   0.265  -0.034  -0.000
 -0.000   0.000  -0.043   0.000   0.000   0.013  -0.000   0.000   0.020  -0.085   0.000   0.000  -0.000  -0.034   0.115   0.000
 -0.008   0.035   0.000   0.045  -0.028  -0.000  -0.022   0.008   0.000   0.000  -0.149  -0.071  -0.026  -0.000   0.000   0.205
  0.005  -0.024   0.000   0.057  -0.000   0.000  -0.023  -0.000   0.000   0.000  -0.069  -0.112  -0.010   0.000  -0.000   0.107
 -0.024   0.076   0.000   0.023   0.044   0.000  -0.008  -0.012  -0.000   0.000  -0.028  -0.012  -0.121  -0.000   0.000   0.043


------------------------ aborting loop because EDIFF is reached ----------------------------------------


    CHARGE:  cpu time    0.1466: real time    0.1469
    FORLOC:  cpu time    0.0092: real time    0.0093
    FORNL :  cpu time    0.5652: real time    0.5666
    STRESS:  cpu time    1.5394: real time    1.5432
    FORCOR:  cpu time    2.3437: real time    2.3492
    FORHAR:  cpu time    0.0219: real time    0.0219
    MIXING:  cpu time    0.2136: real time    0.2142
    OFIELD:  cpu time    0.0000: real time    0.0000

  FORCE on cell =-STRESS in cart. coord.  units (eV):
  Direction    XX          YY          ZZ          XY          YZ          ZX
  --------------------------------------------------------------------------------------
  Alpha Z   170.45751   170.45751   170.45751
  Ewald  -18886.32769 15281.77376 14743.90147    -0.00002     0.00000   132.26195
  Hartree-15824.62184 16897.98022 16481.08589     0.00000    -0.00000   102.05358
  E(xc)    -466.08311  -467.21475  -467.31497     0.00000    -0.00000     0.04627
  Local   33294.98146-33616.42270-32653.65023     0.00001    -0.00000  -232.25446
  n-local   340.44370   340.14684   341.49048     0.06064    -0.21337    -1.27529
  augment  -167.32604  -167.75081  -167.67857     0.00000    -0.00000     0.26940
  Kinetic  1527.51161  1548.33989  1539.22646    -0.04931    -0.83445    -0.88564
  Fock        0.00000     0.00000     0.00000     0.00000     0.00000     0.00000
  -------------------------------------------------------------------------------------
  Total     -10.96442   -12.69005   -12.48196     0.00000     0.00000     0.21581
  in kB      -9.30430   -10.76865   -10.59207     0.00000     0.00000     0.18313
  external pressure =      -10.22 kB  Pullay stress =        0.00 kB


 VOLUME and BASIS-vectors are now :
 -----------------------------------------------------------------------------
  energy-cutoff  :      500.00
  volume of cell :     1888.05
      direct lattice vectors                 reciprocal lattice vectors
    24.009468079  0.000000000  0.000000000     0.041650236  0.000000000  0.000000000
     0.000000000  6.777849674  0.000000000     0.000000000  0.147539419  0.000000000
     0.000000000  0.000000000 11.602143288     0.000000000  0.000000000  0.086190971

  length of vectors
    24.009468079  6.777849674 11.602143288     0.041650236  0.147539419  0.086190971


 FORCES acting on ions
    electron-ion (+dipol)            ewald-force                    non-local-force                 convergence-correction
 -----------------------------------------------------------------------------------------------
   0.765E+03 0.101E-04 0.426E+02   -.760E+03 0.983E-05 -.418E+02   -.403E+01 0.949E-19 -.769E+00   0.738E-04 -.363E-09 -.386E-05
   -.765E+03 -.632E-04 -.426E+02   0.760E+03 -.127E-04 0.418E+02   0.403E+01 0.435E-19 0.769E+00   -.738E-04 0.293E-09 0.386E-05
   0.871E+02 -.616E-04 -.363E+02   -.869E+02 -.174E-04 0.350E+02   0.208E+00 0.205E-18 0.125E+01   0.573E-04 0.515E-09 -.633E-04
   -.871E+02 0.108E-04 0.363E+02   0.869E+02 0.125E-04 -.350E+02   -.208E+00 -.192E-18 -.125E+01   -.573E-04 -.574E-09 0.633E-04
   0.612E+03 -.613E-04 -.478E+02   -.609E+03 -.163E-04 0.483E+02   -.165E+01 0.249E-18 -.404E+00   0.161E-03 0.387E-09 -.760E-04
   -.612E+03 0.904E-05 0.478E+02   0.609E+03 0.142E-04 -.483E+02   0.165E+01 0.530E-18 0.404E+00   -.161E-03 -.455E-09 0.760E-04
   0.351E+03 0.111E-04 -.796E+01   -.350E+03 0.130E-04 0.736E+01   -.367E+00 -.308E-18 0.607E+00   0.138E-03 -.550E-09 -.152E-04
   -.351E+03 -.622E-04 0.796E+01   0.350E+03 -.133E-04 -.736E+01   0.367E+00 0.147E-17 -.607E+00   -.138E-03 0.467E-09 0.152E-04
   0.270E+03 0.347E+02 -.453E+02   -.270E+03 -.368E+02 0.464E+02   -.105E+00 0.201E+01 -.105E+01   0.118E-03 0.385E-04 -.257E-04
   -.270E+03 -.347E+02 0.453E+02   0.270E+03 0.368E+02 -.464E+02   0.105E+00 -.201E+01 0.105E+01   -.118E-03 -.385E-04 0.257E-04
   0.116E+03 -.312E+02 0.158E+01   -.116E+03 0.328E+02 -.246E+00   -.813E-01 -.165E+01 -.133E+01   0.263E-04 -.531E-04 -.122E-04
   -.116E+03 0.312E+02 -.158E+01   0.116E+03 -.328E+02 0.246E+00   0.813E-01 0.165E+01 0.133E+01   -.263E-04 0.531E-04 0.122E-04
   -.270E+03 0.347E+02 0.453E+02   0.270E+03 -.368E+02 -.464E+02   0.105E+00 0.201E+01 0.105E+01   -.118E-03 0.385E-04 0.257E-04
   0.270E+03 -.347E+02 -.453E+02   -.270E+03 0.368E+02 0.464E+02   -.105E+00 -.201E+01 -.105E+01   0.118E-03 -.385E-04 -.257E-04
   -.116E+03 -.312E+02 -.158E+01   0.116E+03 0.328E+02 0.246E+00   0.813E-01 -.165E+01 0.133E+01   -.263E-04 -.531E-04 0.122E-04
   0.116E+03 0.312E+02 0.158E+01   -.116E+03 -.328E+02 -.246E+00   -.813E-01 0.165E+01 -.133E+01   0.263E-04 0.531E-04 -.122E-04
   0.324E+03 -.499E-05 0.455E+02   -.326E+03 -.607E-05 -.459E+02   0.164E+01 -.928E-18 0.469E+00   0.937E-04 0.157E-09 0.267E-04
   -.324E+03 0.651E-05 -.455E+02   0.326E+03 0.626E-05 0.459E+02   -.164E+01 -.108E-17 -.469E+00   -.937E-04 -.150E-09 -.267E-04
   0.338E+02 0.885E-05 -.972E+01   -.316E+02 0.739E-05 0.912E+01   -.180E+01 0.251E-18 0.599E+00   0.144E-04 -.209E-09 0.109E-05
   -.338E+02 -.450E-05 0.972E+01   0.316E+02 -.708E-05 -.912E+01   0.180E+01 0.242E-18 -.599E+00   -.144E-04 0.211E-09 -.109E-05
   0.234E+03 0.498E-05 0.125E+02   -.235E+03 0.801E-05 -.143E+02   -.809E-01 0.247E-17 0.180E+01   0.978E-04 -.177E-09 0.270E-04
   -.234E+03 -.587E-05 -.125E+02   0.235E+03 -.807E-05 0.143E+02   0.809E-01 0.199E-17 -.180E+01   -.978E-04 0.186E-09 -.270E-04
   0.152E+03 -.556E-05 0.562E+02   -.152E+03 -.751E-05 -.584E+02   -.734E+00 0.332E-17 0.224E+01   0.338E-04 0.206E-09 0.751E-04
   -.152E+03 0.309E-05 -.562E+02   0.152E+03 0.735E-05 0.584E+02   0.734E+00 -.299E-17 -.224E+01   -.338E-04 -.194E-09 -.751E-04
 -----------------------------------------------------------------------------------------------
   0.109E-03 -.214E-03 0.126E-03   -.227E-12 0.137E-13 -.355E-13   0.888E-15 -.441E-15 -.444E-15   -.166E-07 -.243E-09 -.419E-08
 
 
 POSITION                                       TOTAL-FORCE (eV/Angst)
 -----------------------------------------------------------------------------------
      0.13670      1.69446      8.16400         0.753977     -0.000000     -0.000015
      9.32277      5.08339      3.43814        -0.753977     -0.000000      0.000015
      4.36803      5.08339      2.15579         0.391044      0.000000     -0.000138
      5.09143      1.69446      9.44635        -0.391044     -0.000000      0.000138
      1.43529      5.08339     10.61358         0.661888      0.000000      0.000428
      8.02418      1.69446      0.98856        -0.661888      0.000000     -0.000428
      3.06944      1.69446      4.61332         0.503956     -0.000000      0.000024
      6.39002      5.08339      6.98883        -0.503956     -0.000000     -0.000024
      1.75027      0.48660      1.65744        -0.148100     -0.000023     -0.000174
      7.70920      6.29125      9.94470         0.148100      0.000023      0.000174
      2.75446      6.30344      7.64517         0.324460      0.000136      0.000294
      6.70500      0.47441      3.95698        -0.324460     -0.000136     -0.000294
      7.70920      3.87552      9.94470         0.148100     -0.000023      0.000174
      1.75027      2.90233      1.65744        -0.148100      0.000023     -0.000174
      6.70500      2.91452      3.95698        -0.324460      0.000136     -0.000294
      2.75446      3.86333      7.64517         0.324460     -0.000136      0.000294
      0.74693      5.08339      6.94676        -0.323777      0.000000      0.000389
      8.71254      1.69446      4.65538         0.323777     -0.000000     -0.000389
      3.75780      1.69446      0.93133         0.390586     -0.000000     -0.000123
      5.70166      5.08339     10.67081        -0.390586      0.000000      0.000123
      1.78112      1.69446     11.12980        -0.181787     -0.000000     -0.000959
      7.67835      5.08339      0.47234         0.181787      0.000000      0.000959
      2.72362      5.08339      5.51738        -0.092708     -0.000000      0.000265
      6.73585      1.69446      6.08476         0.092708     -0.000000     -0.000265
 -----------------------------------------------------------------------------------
    total drift:                                0.000109     -0.000214      0.000126


--------------------------------------------------------------------------------------------------------



  FREE ENERGIE OF THE ION-ELECTRON SYSTEM (eV)
  ---------------------------------------------------
  free  energy   TOTEN  =       -92.12849246 eV

  energy  without entropy=      -92.12849246  energy(sigma->0) =      -92.12849246
 


--------------------------------------------------------------------------------------------------------


    POTLOK:  cpu time    2.7337: real time    2.7402


--------------------------------------------------------------------------------------------------------


 writing wavefunctions
     LOOP+:  cpu time14272.5775: real time14318.6512
    4ORBIT:  cpu time    0.0000: real time    0.0000
 BZINTS: Fermi energy: -0.593459;144.000000 electrons
         Band energy:***********;  BLOECHL correction:  0.000000

 total amount of memory used by VASP MPI-rank0    79353. kBytes
=======================================================================

   base      :      30000. kBytes
   nonlr-proj:       2647. kBytes
   fftplans  :       5898. kBytes
   grid      :       8824. kBytes
   one-center:         93. kBytes
   wavefun   :      31891. kBytes
 
  
  
 General timing and accounting informations for this job:
 ========================================================
  
                  Total CPU time used (sec):    14280.871
                            User time (sec):    14248.546
                          System time (sec):       32.325
                         Elapsed time (sec):    14330.390
  
                   Maximum memory used (kb):      302972.
                   Average memory used (kb):           0.
  
                          Minor page faults:       112270
                          Major page faults:          224
                 Voluntary context switches:        13893
