 vasp.5.4.4.18Apr17-6-g9f103f2a35 (build Nov 21 2017 15:30:27) complex          
  
 executed on             LinuxIFC date 2020.09.16  14:48:39
 running on   64 total cores
 distrk:  each k-point on   32 cores,    2 groups
 distr:  one band on NCORES_PER_BAND=   4 cores,    8 groups


--------------------------------------------------------------------------------------------------------


 INCAR:
 POTCAR:   PAW_PBE Ba_sv 06Sep2000                
 POTCAR:   PAW_PBE Si 05Jan2001                   

 ----------------------------------------------------------------------------- 
|                                                                             |
|           W    W    AA    RRRRR   N    N  II  N    N   GGGG   !!!           |
|           W    W   A  A   R    R  NN   N  II  NN   N  G    G  !!!           |
|           W    W  A    A  R    R  N N  N  II  N N  N  G       !!!           |
|           W WW W  AAAAAA  RRRRR   N  N N  II  N  N N  G  GGG   !            |
|           WW  WW  A    A  R   R   N   NN  II  N   NN  G    G                |
|           W    W  A    A  R    R  N    N  II  N    N   GGGG   !!!           |
|                                                                             |
|      You have enabled k-point parallelism (KPAR>1).                         |
|      This developmental code was originally  written by Paul Kent at ORNL,  |
|      and carefully double checked in Vienna.                                |
|      GW as well as linear response parallelism added by Martijn Marsman     |
|      and Georg Kresse.                                                      |
|      Carefully verify results versus KPAR=1.                                |
|      Report problems to Paul Kent and Vienna.                               |
|                                                                             |
 ----------------------------------------------------------------------------- 


 ----------------------------------------------------------------------------- 
|                                                                             |
|  ADVICE TO THIS USER RUNNING 'VASP/VAMP'   (HEAR YOUR MASTER'S VOICE ...):  |
|                                                                             |
|      You have switched on vdW-DFT.                                          |
|      This routine was written and supplied by Jiri Klimes.                  |
|      We recommed that you carefully read and cite the following             |
|      publication                                                            |
|      J. Klimes, D.R. Bowler, A. Michelides                                  |
|        J. Phys.: Cond Matt. 22 022201 (2010)                                |
|      J. Klimes, D.R. Bowler, A. Michelides                                  |
|        Phys. Rev. B. 83, 195131 (2011)                                      |
|      and references therein.                                                |
|                                                                             |
 ----------------------------------------------------------------------------- 

 POTCAR:   PAW_PBE Ba_sv 06Sep2000                
   VRHFIN =Ba: 5s5p6s                                                           
   LEXCH  = PE                                                                  
   EATOM  =   700.2255 eV,   51.4651 Ry                                         
                                                                                
   TITEL  = PAW_PBE Ba_sv 06Sep2000                                             
   LULTRA =        F    use ultrasoft PP ?                                      
   IUNSCR =        1    unscreen: 0-lin 1-nonlin 2-no                           
   RPACOR =    2.400    partial core radius                                     
   POMASS =  137.327; ZVAL   =   10.000    mass and valenz                      
   RCORE  =    2.800    outmost cutoff radius                                   
   RWIGS  =    3.740; RWIGS  =    1.979    wigner-seitz radius (au A)           
   ENMAX  =  187.210; ENMIN  =  140.408 eV                                      
   RCLOC  =    2.516    cutoff for local pot                                    
   LCOR   =        T    correct aug charges                                     
   LPAW   =        T    paw PP                                                  
   EAUG   =  351.165                                                            
   DEXC   =     .000                                                            
   RMAX   =    3.370    core radius for proj-oper                               
   RAUG   =    1.300    factor for augmentation sphere                          
   RDEP   =    2.976    radius for radial grids                                 
   QCUT   =   -3.709; QGAM   =    7.419    optimization parameters              
                                                                                
   Description                                                                  
     l     E      TYP  RCUT    TYP  RCUT                                        
     0   .000     23  2.800                                                     
     0   .000     23  2.800                                                     
     1   .000     23  2.700                                                     
     1  2.000     23  2.700                                                     
     2   .000     23  2.700                                                     
     2   .000     23  2.700                                                     
  local pseudopotential read in
  partial core-charges read in
  atomic valenz-charges read in
  non local Contribution for L=           0  read in
    real space projection operators read in
  non local Contribution for L=           0  read in
    real space projection operators read in
  non local Contribution for L=           1  read in
    real space projection operators read in
  non local Contribution for L=           1  read in
    real space projection operators read in
  non local Contribution for L=           2  read in
    real space projection operators read in
  non local Contribution for L=           2  read in
    real space projection operators read in
    PAW grid and wavefunctions read in
 
   number of l-projection  operators is LMAX  =           6
   number of lm-projection operators is LMMAX =          18
 
 POTCAR:   PAW_PBE Si 05Jan2001                   
   VRHFIN =Si: s2p2                                                             
   LEXCH  = PE                                                                  
   EATOM  =   103.0669 eV,    7.5752 Ry                                         
                                                                                
   TITEL  = PAW_PBE Si 05Jan2001                                                
   LULTRA =        F    use ultrasoft PP ?                                      
   IUNSCR =        1    unscreen: 0-lin 1-nonlin 2-no                           
   RPACOR =    1.500    partial core radius                                     
   POMASS =   28.085; ZVAL   =    4.000    mass and valenz                      
   RCORE  =    1.900    outmost cutoff radius                                   
   RWIGS  =    2.480; RWIGS  =    1.312    wigner-seitz radius (au A)           
   ENMAX  =  245.345; ENMIN  =  184.009 eV                                      
   ICORE  =        2    local potential                                         
   LCOR   =        T    correct aug charges                                     
   LPAW   =        T    paw PP                                                  
   EAUG   =  322.069                                                            
   DEXC   =    -.007                                                            
   RMAX   =    2.944    core radius for proj-oper                               
   RAUG   =    1.300    factor for augmentation sphere                          
   RDEP   =    1.993    radius for radial grids                                 
   QCUT   =   -4.246; QGAM   =    8.493    optimization parameters              
                                                                                
   Description                                                                  
     l     E      TYP  RCUT    TYP  RCUT                                        
     0   .000     23  1.900                                                     
     0   .000     23  1.900                                                     
     1   .000     23  1.900                                                     
     1   .000     23  1.900                                                     
     2   .000      7  1.900                                                     
  local pseudopotential read in
  partial core-charges read in
  atomic valenz-charges read in
  non local Contribution for L=           0  read in
    real space projection operators read in
  non local Contribution for L=           0  read in
    real space projection operators read in
  non local Contribution for L=           1  read in
    real space projection operators read in
  non local Contribution for L=           1  read in
    real space projection operators read in
    PAW grid and wavefunctions read in
 
   number of l-projection  operators is LMAX  =           4
   number of lm-projection operators is LMMAX =           8
 
 Optimization of the real space projectors (new method)

 maximal supplied QI-value         = 13.42
 optimisation between [QCUT,QGAM] = [ 11.40, 22.81] = [ 36.42,145.68] Ry 
 Optimized for a Real-space Cutoff    1.56 Angstroem

   l    n(q)    QCUT    max X(q) W(low)/X(q) W(high)/X(q)  e(spline) 
   0     11    11.404     7.198    0.14E-04    0.26E-04    0.99E-07
   0     11    11.404    15.603    0.29E-04    0.72E-04    0.44E-06
   1     10    11.404     3.746    0.20E-04    0.24E-04    0.43E-07
   1     10    11.404     4.362    0.22E-03    0.97E-04    0.22E-06
   2     10    11.404     5.782    0.83E-04    0.62E-05    0.27E-06
   2     10    11.404    65.505    0.42E-03    0.31E-04    0.12E-05
 Optimization of the real space projectors (new method)

 maximal supplied QI-value         = 19.84
 optimisation between [QCUT,QGAM] = [ 11.31, 22.82] = [ 35.82,145.81] Ry 
 Optimized for a Real-space Cutoff    1.16 Angstroem

   l    n(q)    QCUT    max X(q) W(low)/X(q) W(high)/X(q)  e(spline) 
   0      8    11.310     8.708    0.14E-04    0.11E-04    0.43E-08
   0      8    11.310   106.241    0.27E-03    0.30E-03    0.38E-07
   1      7    11.310     5.901    0.82E-05    0.48E-04    0.19E-07
   1      7    11.310    73.241    0.27E-03    0.27E-03    0.74E-07

 ----------------------------------------------------------------------------- 
|                                                                             |
|  ADVICE TO THIS USER RUNNING 'VASP/VAMP'   (HEAR YOUR MASTER'S VOICE ...):  |
|                                                                             |
|      You enforced a specific xc-type in the INCAR file,                     |
|      a different type was found on the POTCAR file                          |
|          I HOPE YOU KNOW, WHAT YOU ARE  DOING                               |
|                                                                             |
 ----------------------------------------------------------------------------- 

 PAW_PBE Ba_sv 06Sep2000                :
 energy of atom  1       EATOM= -700.2255
 kinetic energy error for atom=    0.0005 (will be added to EATOM!!)
 PAW_PBE Si 05Jan2001                   :
 energy of atom  2       EATOM= -103.0669
 kinetic energy error for atom=    0.0006 (will be added to EATOM!!)
 
 
 POSCAR: ba8 si16                                
  positions in direct lattice
  velocities in cartesian coordinates
 exchange correlation table for  LEXCH =       42
   RHO(1)=    0.500       N(1)  =     2000
   RHO(2)=  100.500       N(2)  =     4000
 


--------------------------------------------------------------------------------------------------------


 ion  position               nearest neighbor table
   1  0.006  0.250  0.703-  21 3.39  16 3.44  11 3.44  17 3.65  17 3.65   5 4.38   5 4.38   7 4.60

   2  0.390  0.750  0.297-  22 3.39  12 3.44  15 3.44  18 3.65  18 3.65   6 4.38   6 4.38   8 4.60

   3  0.182  0.750  0.185-  20 3.37   9 3.44  14 3.44  19 3.66  19 3.66  12 3.70  15 3.70  23 3.74
                            22 3.76   5 4.30   7 4.38   7 4.38
   4  0.214  0.250  0.815-  19 3.37  13 3.44  10 3.44  20 3.66  20 3.66  16 3.70  11 3.70  24 3.74
                            21 3.76   6 4.30   8 4.38   8 4.38
   5  0.060  0.750  0.914-   9 3.45  14 3.45  21 3.45  21 3.45  11 3.47  16 3.47  17 3.73   3 4.30
                             1 4.38   1 4.38
   6  0.336  0.250  0.086-  13 3.45  10 3.45  22 3.45  22 3.45  15 3.47  12 3.47  18 3.73   4 4.30
                             2 4.38   2 4.38
   7  0.128  0.250  0.397-  14 3.45   9 3.45  23 3.53  23 3.53  16 3.74  11 3.74  19 3.75  15 3.94
                            12 3.94   3 4.38   3 4.38   1 4.60
   8  0.268  0.750  0.603-  10 3.45  13 3.45  24 3.53  24 3.53  12 3.74  15 3.74  20 3.75  11 3.94
                            16 3.94   4 4.38   4 4.38   2 4.60
   9  0.073  0.072  0.143-  14 2.42  21 2.45  19 2.45   3 3.44   5 3.45   7 3.45
  10  0.323  0.928  0.857-  13 2.42  22 2.45  20 2.45   4 3.44   6 3.45   8 3.45
  11  0.115  0.930  0.659-  16 2.44  17 2.45  23 2.45   1 3.44   5 3.47   4 3.70   7 3.74   8 3.94

  12  0.281  0.070  0.341-  15 2.44  18 2.45  24 2.45   2 3.44   6 3.47   3 3.70   8 3.74   7 3.94

  13  0.323  0.572  0.857-  10 2.42  22 2.45  20 2.45   4 3.44   6 3.45   8 3.45
  14  0.073  0.428  0.143-   9 2.42  21 2.45  19 2.45   3 3.44   5 3.45   7 3.45
  15  0.281  0.430  0.341-  12 2.44  18 2.45  24 2.45   2 3.44   6 3.47   3 3.70   8 3.74   7 3.94

  16  0.115  0.570  0.659-  11 2.44  17 2.45  23 2.45   1 3.44   5 3.47   4 3.70   7 3.74   8 3.94

  17  0.031  0.750  0.599-  23 2.44  11 2.45  16 2.45   1 3.65   1 3.65   5 3.73
  18  0.365  0.250  0.401-  24 2.44  15 2.45  12 2.45   2 3.65   2 3.65   6 3.73
  19  0.157  0.250  0.080-  21 2.42  14 2.45   9 2.45   4 3.37   3 3.66   3 3.66   7 3.75
  20  0.240  0.750  0.920-  22 2.42  10 2.45  13 2.45   3 3.37   4 3.66   4 3.66   8 3.75
  21  0.074  0.250  0.959-  19 2.42  14 2.45   9 2.45   1 3.39   5 3.45   5 3.45   4 3.76
  22  0.322  0.750  0.041-  20 2.42  10 2.45  13 2.45   2 3.39   6 3.45   6 3.45   3 3.76
  23  0.113  0.750  0.475-  17 2.44  11 2.45  16 2.45   7 3.53   7 3.53   3 3.74
  24  0.283  0.250  0.525-  18 2.44  15 2.45  12 2.45   8 3.53   8 3.53   4 3.74
 
  LATTYP: Found a simple orthorhombic cell.
 ALAT       =     6.7778496742
 B/A-ratio  =     1.7117734747
 C/A-ratio  =     3.5423429602
  
  Lattice vectors:
  
 A1 = (   0.0000000000,   6.7778496742,   0.0000000000)
 A2 = (   0.0000000000,   0.0000000000, -11.6021432877)
 A3 = ( -24.0094680786,   0.0000000000,   0.0000000000)


Analysis of symmetry for initial positions (statically):
=====================================================================
 Subroutine PRICEL returns:
 Original cell was already a primitive cell.
 

 Routine SETGRP: Setting up the symmetry group for a 
 simple orthorhombic supercell.


 Subroutine GETGRP returns: Found  4 space group operations
 (whereof  1 operations were pure point group operations)
 out of a pool of  8 trial point group operations.


The static configuration has the point symmetry C_1 .
 The point group associated with its full space group is C_2h.


Analysis of symmetry for dynamics (positions and initial velocities):
=====================================================================
 Subroutine PRICEL returns:
 Original cell was already a primitive cell.
 

 Routine SETGRP: Setting up the symmetry group for a 
 simple orthorhombic supercell.


 Subroutine GETGRP returns: Found  4 space group operations
 (whereof  1 operations were pure point group operations)
 out of a pool of  8 trial point group operations.


The dynamic configuration has the point symmetry C_1 .
 The point group associated with its full space group is C_2h.


Analysis of constrained symmetry for selective dynamics:
=====================================================================
 Subroutine PRICEL returns:
 Original cell was already a primitive cell.
 

 Routine SETGRP: Setting up the symmetry group for a 
 simple orthorhombic supercell.


 Subroutine GETGRP returns: Found  4 space group operations
 (whereof  1 operations were pure point group operations)
 out of a pool of  8 trial point group operations.


The constrained configuration has the point symmetry C_1 .
 The point group associated with its full space group is C_2h.


 Subroutine INISYM returns: Found  4 space group operations
 (whereof  1 operations are pure point group operations),
 and found     1 'primitive' translations

 
 
 KPOINTS: k-density: 8.0                          

Automatic generation of k-mesh.
Space group operators:
 irot       det(A)        alpha          n_x          n_y          n_z        tau_x        tau_y        tau_z
    1     1.000000     0.000000     1.000000     0.000000     0.000000     0.000000     0.000000     0.000000
    2    -1.000000     0.000000     1.000000     0.000000     0.000000    -0.603928     0.000000     0.000000
    3     1.000000   180.000000     0.000000     1.000000     0.000000    -0.603928     0.500000     0.000000
    4    -1.000000   180.000000     0.000000     1.000000     0.000000     0.000000     0.500000     0.000000
 
 Subroutine IBZKPT returns following result:
 ===========================================
 
 Found     15 irreducible k-points:
 
 Following reciprocal coordinates:
            Coordinates               Weight
  0.000000  0.000000  0.000000      1.000000
  0.000000  0.125000  0.000000      2.000000
  0.000000  0.250000  0.000000      2.000000
  0.000000  0.375000  0.000000      2.000000
  0.000000  0.500000  0.000000      1.000000
  0.000000  0.000000  0.200000      2.000000
  0.000000  0.125000  0.200000      4.000000
  0.000000  0.250000  0.200000      4.000000
  0.000000  0.375000  0.200000      4.000000
  0.000000  0.500000  0.200000      2.000000
  0.000000  0.000000  0.400000      2.000000
  0.000000  0.125000  0.400000      4.000000
  0.000000  0.250000  0.400000      4.000000
  0.000000  0.375000  0.400000      4.000000
  0.000000  0.500000  0.400000      2.000000
 
 Following cartesian coordinates:
            Coordinates               Weight
  0.000000  0.000000  0.000000      1.000000
  0.000000  0.018442  0.000000      2.000000
  0.000000  0.036885  0.000000      2.000000
  0.000000  0.055327  0.000000      2.000000
  0.000000  0.073770  0.000000      1.000000
  0.000000  0.000000  0.017238      2.000000
  0.000000  0.018442  0.017238      4.000000
  0.000000  0.036885  0.017238      4.000000
  0.000000  0.055327  0.017238      4.000000
  0.000000  0.073770  0.017238      2.000000
  0.000000  0.000000  0.034476      2.000000
  0.000000  0.018442  0.034476      4.000000
  0.000000  0.036885  0.034476      4.000000
  0.000000  0.055327  0.034476      4.000000
  0.000000  0.073770  0.034476      2.000000
 
 TETIRR: Found    108 inequivalent tetrahedra from      240


--------------------------------------------------------------------------------------------------------




 Dimension of arrays:
   k-points           NKPTS =     15   k-points in BZ     NKDIM =     15   number of bands    NBANDS=     88
   number of dos      NEDOS =    301   number of ions     NIONS =     24
   non local maximal  LDIM  =      6   non local SUM 2l+1 LMDIM =     18
   total plane-waves  NPLWV = 358400
   max r-space proj   IRMAX =   3093   max aug-charges    IRDMAX=  12081
   dimension x,y,z NGX =   140 NGY =   40 NGZ =   64
   dimension x,y,z NGXF=   280 NGYF=   80 NGZF=  128
   support grid    NGXF=   280 NGYF=   80 NGZF=  128
   ions per type =               8  16
   NGX,Y,Z   is equivalent  to a cutoff of   9.69,  9.81,  9.17 a.u.
   NGXF,Y,Z  is equivalent  to a cutoff of  19.39, 19.62, 18.34 a.u.

 SYSTEM =  unknown system                          
 POSCAR =  ba8 si16                                

 Startparameter for this run:
   NWRITE =      2    write-flag & timer
   PREC   = normal    normal or accurate (medium, high low for compatibility)
   ISTART =      0    job   : 0-new  1-cont  2-samecut
   ICHARG =      2    charge: 1-file 2-atom 10-const
   ISPIN  =      1    spin polarized calculation?
   LNONCOLLINEAR =      F non collinear calculations
   LSORBIT =      F    spin-orbit coupling
   INIWAV =      1    electr: 0-lowe 1-rand  2-diag
   LASPH  =      T    aspherical Exc in radial PAW
   METAGGA=      F    non-selfconsistent MetaGGA calc.

 Electronic Relaxation 1
   ENCUT  =  500.0 eV  36.75 Ry    6.06 a.u.  43.77 12.36 21.15*2*pi/ulx,y,z
   ENINI  =  500.0     initial cutoff
   ENAUG  =  351.2 eV  augmentation charge cutoff
   NELM   =    100;   NELMIN=  2; NELMDL= -5     # of ELM steps 
   EDIFF  = 0.1E-05   stopping-criterion for ELM
   LREAL  =      T    real-space projection
   NLSPLINE    = F    spline interpolate recip. space projectors
   LCOMPAT=      F    compatible to vasp.4.4
   GGA_COMPAT  = T    GGA compatible to vasp.4.4-vasp.4.6
   LMAXPAW     = -100 max onsite density
   LMAXMIX     =    2 max onsite mixed and CHGCAR
   VOSKOWN=      0    Vosko Wilk Nusair interpolation
   ROPT   =   -0.00050  -0.00050
 Ionic relaxation
   EDIFFG = -.1E-02   stopping-criterion for IOM
   NSW    =      0    number of steps for IOM
   NBLOCK =      1;   KBLOCK =      1    inner block; outer block 
   IBRION =     -1    ionic relax: 0-MD 1-quasi-New 2-CG
   NFREE  =      0    steps in history (QN), initial steepest desc. (CG)
   ISIF   =      2    stress and relaxation
   IWAVPR =     10    prediction:  0-non 1-charg 2-wave 3-comb
   ISYM   =      2    0-nonsym 1-usesym 2-fastsym
   LCORR  =      T    Harris-Foulkes like correction to forces

   POTIM  = 0.3000    time-step for ionic-motion
   TEIN   =    0.0    initial temperature
   TEBEG  =    0.0;   TEEND  =   0.0 temperature during run
   SMASS  =  -3.00    Nose mass-parameter (am)
   estimated Nose-frequenzy (Omega)   =  0.10E-29 period in steps =****** mass=  -0.132E-25a.u.
   SCALEE = 1.0000    scale energy and forces
   NPACO  =    256;   APACO  = 16.0  distance and # of slots for P.C.
   PSTRESS=    0.0 pullay stress

  Mass of Ions in am
   POMASS = 137.33 28.09
  Ionic Valenz
   ZVAL   =  10.00  4.00
  Atomic Wigner-Seitz radii
   RWIGS  =  -1.00 -1.00
  virtual crystal weights 
   VCA    =   1.00  1.00
   NELECT =     144.0000    total number of electrons
   NUPDOWN=      -1.0000    fix difference up-down

 DOS related values:
   EMIN   =  10.00;   EMAX   =-10.00  energy-range for DOS
   EFERMI =   0.00
   ISMEAR =    -5;   SIGMA  =   0.01  broadening in eV -4-tet -1-fermi 0-gaus

 Electronic relaxation 2 (details)
   IALGO  =     38    algorithm
   LDIAG  =      T    sub-space diagonalisation (order eigenvalues)
   LSUBROT=      F    optimize rotation matrix (better conditioning)
   TURBO    =      0    0=normal 1=particle mesh
   IRESTART =      0    0=no restart 2=restart with 2 vectors
   NREBOOT  =      0    no. of reboots
   NMIN     =      0    reboot dimension
   EREF     =   0.00    reference energy to select bands
   IMIX   =      4    mixing-type and parameters
     AMIX     =   0.40;   BMIX     =  1.00
     AMIX_MAG =   1.60;   BMIX_MAG =  1.00
     AMIN     =   0.10
     WC   =   100.;   INIMIX=   1;  MIXPRE=   1;  MAXMIX= -45

 Intra band minimization:
   WEIMIN = 0.0000     energy-eigenvalue tresh-hold
   EBREAK =  0.28E-08  absolut break condition
   DEPER  =   0.30     relativ break condition  

   TIME   =   0.40     timestep for ELM

  volume/ion in A,a.u.               =      78.67       530.88
  Fermi-wavevector in a.u.,A,eV,Ry     =   0.694264  1.311969  6.558046  0.482003
  Thomas-Fermi vector in A             =   1.776709
 
 Write flags
   LWAVE        =      T    write WAVECAR
   LDOWNSAMPLE  =      F    k-point downsampling of WAVECAR
   LCHARG       =      T    write CHGCAR
   LVTOT        =      F    write LOCPOT, total local potential
   LVHAR        =      F    write LOCPOT, Hartree potential only
   LELF         =      F    write electronic localiz. function (ELF)
   LORBIT       =      0    0 simple, 1 ext, 2 COOP (PROOUT), +10 PAW based schemes


 Dipole corrections
   LMONO  =      F    monopole corrections only (constant potential shift)
   LDIPOL =      F    correct potential (dipole corrections)
   IDIPOL =      0    1-x, 2-y, 3-z, 4-all directions 
   EPSILON=  1.0000000 bulk dielectric constant

 Exchange correlation treatment:
   GGA     =    BO    GGA type
   LEXCH   =    42    internal setting for exchange type
   VOSKOWN=      0    Vosko Wilk Nusair interpolation
   LHFCALC =     F    Hartree Fock is set to
   LHFONE  =     F    Hartree Fock one center treatment
   AEXX    =    0.0000 exact exchange contribution

 vdW DFT:
   LUSE_VDW   =     T    switch on vdW DFT
   Zab_VDW    =-.8491    correlation parameter
   PARAM1     =0.1833
   PARAM2     =0.2200
   PARAM3     =0.0000
   -- rVV10 --
   BPARAM     = 6.3000
   CPARAM     = 0.0093

 Linear response parameters
   LEPSILON=     F    determine dielectric tensor
   LRPA    =     F    only Hartree local field effects (RPA)
   LNABLA  =     F    use nabla operator in PAW spheres
   LVEL    =     F    velocity operator in full k-point grid
   LINTERFAST=   F  fast interpolation
   KINTER  =     0    interpolate to denser k-point grid
   CSHIFT  =0.1000    complex shift for real part using Kramers Kronig
   OMEGAMAX=  -1.0    maximum frequency
   DEG_THRESHOLD= 0.2000000E-02 threshold for treating states as degnerate
   RTIME   =   -0.100 relaxation time in fs
  (WPLASMAI=    0.000 imaginary part of plasma frequency in eV, 0.658/RTIME)
   DFIELD  = 0.0000000 0.0000000 0.0000000 field for delta impulse in time
 
 Orbital magnetization related:
   ORBITALMAG=     F  switch on orbital magnetization
   LCHIMAG   =     F  perturbation theory with respect to B field
   DQ        =  0.001000  dq finite difference perturbation B field
   LLRAUG    =     F  two centre corrections for induced B field



--------------------------------------------------------------------------------------------------------


 Static calculation
 charge density and potential will be updated during run
 non-spin polarized calculation
 Variant of blocked Davidson
 Davidson routine will perform the subspace rotation
 perform sub-space diagonalisation
    after iterative eigenvector-optimisation
 modified Broyden-mixing scheme, WC =      100.0
 initial mixing is a Kerker type mixing with AMIX =  0.4000 and BMIX =      1.0000
 Hartree-type preconditioning will be used
 using additional bands           16
 real space projection scheme for non local part
 use partial core corrections
 calculate Harris-corrections to forces 
   (improved forces if not selfconsistent)
 use gradient corrections 
 use of overlap-Matrix (Vanderbilt PP)
 Fermi weights with tetrahedron method with Bloechl corrections


--------------------------------------------------------------------------------------------------------


  energy-cutoff  :      500.00
  volume of cell :     1888.05
      direct lattice vectors                 reciprocal lattice vectors
    24.009468079  0.000000000  0.000000000     0.041650236  0.000000000  0.000000000
     0.000000000  6.777849674  0.000000000     0.000000000  0.147539419  0.000000000
     0.000000000  0.000000000 11.602143288     0.000000000  0.000000000  0.086190971

  length of vectors
    24.009468079  6.777849674 11.602143288     0.041650236  0.147539419  0.086190971


 
 k-points in units of 2pi/SCALE and weight: k-density: 8.0                          
   0.00000000  0.00000000  0.00000000       0.025
   0.00000000  0.01844243  0.00000000       0.050
   0.00000000  0.03688485  0.00000000       0.050
   0.00000000  0.05532728  0.00000000       0.050
   0.00000000  0.07376971  0.00000000       0.025
   0.00000000  0.00000000  0.01723819       0.050
   0.00000000  0.01844243  0.01723819       0.100
   0.00000000  0.03688485  0.01723819       0.100
   0.00000000  0.05532728  0.01723819       0.100
   0.00000000  0.07376971  0.01723819       0.050
   0.00000000  0.00000000  0.03447639       0.050
   0.00000000  0.01844243  0.03447639       0.100
   0.00000000  0.03688485  0.03447639       0.100
   0.00000000  0.05532728  0.03447639       0.100
   0.00000000  0.07376971  0.03447639       0.050
 
 k-points in reciprocal lattice and weights: k-density: 8.0                          
   0.00000000  0.00000000  0.00000000       0.025
   0.00000000  0.12500000  0.00000000       0.050
   0.00000000  0.25000000  0.00000000       0.050
   0.00000000  0.37500000  0.00000000       0.050
   0.00000000  0.50000000  0.00000000       0.025
   0.00000000  0.00000000  0.20000000       0.050
   0.00000000  0.12500000  0.20000000       0.100
   0.00000000  0.25000000  0.20000000       0.100
   0.00000000  0.37500000  0.20000000       0.100
   0.00000000  0.50000000  0.20000000       0.050
   0.00000000  0.00000000  0.40000000       0.050
   0.00000000  0.12500000  0.40000000       0.100
   0.00000000  0.25000000  0.40000000       0.100
   0.00000000  0.37500000  0.40000000       0.100
   0.00000000  0.50000000  0.40000000       0.050
 
 position of ions in fractional coordinates (direct lattice) 
   0.00569361  0.25000000  0.70317431
   0.39037797  0.75000002  0.29682569
   0.18192962  0.75000002  0.18545680
   0.21414196  0.25000000  0.81454318
   0.05978014  0.75000002  0.91436760
   0.33629144  0.25000000  0.08563238
   0.12784309  0.25000000  0.39727626
   0.26822849  0.75000002  0.60272378
   0.07289913  0.07182106  0.14259249
   0.32317245  0.92817893  0.85740749
   0.11472410  0.93021544  0.65878501
   0.28134748  0.06978455  0.34121499
   0.32317245  0.57182107  0.85740749
   0.07289913  0.42817893  0.14259249
   0.28134748  0.43021544  0.34121499
   0.11472410  0.56978456  0.65878501
   0.03110981  0.75000002  0.59862462
   0.36496177  0.25000000  0.40137538
   0.15651343  0.25000000  0.07967243
   0.23955817  0.75000002  0.92032755
   0.07418398  0.25000000  0.95903360
   0.32188760  0.75000002  0.04096642
   0.11343925  0.75000002  0.47543546
   0.28263233  0.25000000  0.52456446
 
 position of ions in cartesian coordinates  (Angst):
   0.13670066  1.69446242  8.15832907
   9.37276745  5.08338737  3.44381422
   4.36803341  5.08338737  2.15169635
   5.14143467  1.69446242  9.45044670
   1.43528938  5.08338737 10.60862393
   8.07417870  1.69446242  0.99351912
   3.06944466  1.69446242  4.60925609
   6.44002342  5.08338737  6.99288767
   1.75026941  0.48679233  1.65437845
   7.75919867  6.29105728  9.94776460
   2.75446463  6.30486043  7.64331804
   6.75500345  0.47298919  3.95882525
   7.75919867  3.87571723  9.94776460
   1.75026941  2.90213245  1.65437845
   6.75500345  2.91593559  3.95882525
   2.75446463  3.86191408  7.64331804
   0.74692994  5.08338737  6.94532860
   8.76253796  1.69446242  4.65681469
   3.75780416  1.69446242  0.92437098
   5.75166416  5.08338737 10.67777207
   1.78111780  1.69446242 11.12684522
   7.72835016  5.08338737  0.47529825
   2.72361612  5.08338737  5.51607036
   6.78585196  1.69446242  6.08607198
 


--------------------------------------------------------------------------------------------------------


 k-point  1 :   0.0000 0.0000 0.0000  plane waves:   47989
 k-point  2 :   0.0000 0.1250 0.0000  plane waves:   47929
 k-point  3 :   0.0000 0.2500 0.0000  plane waves:   47901
 k-point  4 :   0.0000 0.3750 0.0000  plane waves:   47910
 k-point  5 :   0.0000 0.5000 0.0000  plane waves:   47868
 k-point  6 :   0.0000 0.0000 0.2000  plane waves:   48006
 k-point  7 :   0.0000 0.1250 0.2000  plane waves:   47967
 k-point  8 :   0.0000 0.2500 0.2000  plane waves:   47907
 k-point  9 :   0.0000 0.3750 0.2000  plane waves:   47884
 k-point 10 :   0.0000 0.5000 0.2000  plane waves:   47884
 k-point 11 :   0.0000 0.0000 0.4000  plane waves:   47922
 k-point 12 :   0.0000 0.1250 0.4000  plane waves:   47954
 k-point 13 :   0.0000 0.2500 0.4000  plane waves:   47967
 k-point 14 :   0.0000 0.3750 0.4000  plane waves:   47928
 k-point 15 :   0.0000 0.5000 0.4000  plane waves:   47890

 maximum and minimum number of plane-waves per node :     12077    11868

 maximum number of plane-waves:     48006
 maximum index in each direction: 
   IXMAX=   43   IYMAX=   12   IZMAX=   21
   IXMIN=  -43   IYMIN=  -12   IZMIN=  -21


 real space projection operators:
  total allocation   :       4533.22 KBytes
  max/ min on nodes  :       1135.48       1131.50


 parallel 3D FFT for wavefunctions:
    minimum data exchange during FFTs selected (reduces bandwidth)
 parallel 3D FFT for charge:
    minimum data exchange during FFTs selected (reduces bandwidth)


 total amount of memory used by VASP MPI-rank0    79352. kBytes
=======================================================================

   base      :      30000. kBytes
   nonlr-proj:       2646. kBytes
   fftplans  :       5898. kBytes
   grid      :       8824. kBytes
   one-center:         93. kBytes
   wavefun   :      31891. kBytes
 
     INWAV:  cpu time    0.0000: real time    0.0000
 Broyden mixing: mesh for mixing (old mesh)
   NGX = 87   NGY = 25   NGZ = 43
  (NGX  =280   NGY  = 80   NGZ  =128)
  gives a total of  93525 points

 initial charge density was supplied:
 charge density of overlapping atoms calculated
 number of electron     144.0000000 magnetization 
 keeping initial charge density in first step


--------------------------------------------------------------------------------------------------------


 Maximum index for non-local projection operator          743
 Maximum index for augmentation-charges          607 (set IRDMAX)


--------------------------------------------------------------------------------------------------------


 First call to EWALD:  gamma=   0.143
 Maximum number of real-space cells 2x 5x 3
 Maximum number of reciprocal cells 5x 2x 3

    FEWALD:  cpu time    0.0019: real time    0.0019


--------------------------------------- Iteration      1(   1)  ---------------------------------------


    POTLOK:  cpu time13712.9803: real time13745.4441
    SETDIJ:  cpu time  279.7091: real time  280.3866
     EDDAV:  cpu time    2.4012: real time    2.6493
 BZINTS: Fermi energy:  6.741544;144.000000 electrons
         Band energy:-481.358040;  BLOECHL correction: -0.038104
       DOS:  cpu time    0.0122: real time    0.0251
    --------------------------------------------
      LOOP:  cpu time13995.1030: real time14028.5050

 eigenvalue-minimisations  :  2768
 total energy-change (2. order) : 0.1187484E+04  (-0.4767106E+04)
 number of electron     144.0000000 magnetization 
 augmentation part      144.0000000 magnetization 

 Free energy of the ion-electron system (eV)
  ---------------------------------------------------
  alpha Z        PSCENC =       170.45750602
  Ewald energy   TEWEN  =     10974.29577158
  -Hartree energ DENC   =    -17099.23110830
  -exchange      EXHF   =         0.00000000
  -V(xc)+E(xc)   XCENC  =        28.52905456
  PAW double counting   =      3700.71972520    -3383.50420208
  entropy T*S    EENTRO =         0.00000000
  eigenvalues    EBANDS =      -481.35804011
  atomic energy  EATOM  =      7277.57480299
  Solvation  Ediel_sol  =         0.00000000
  ---------------------------------------------------
  free energy    TOTEN  =      1187.48350986 eV

  energy without entropy =     1187.48350986  energy(sigma->0) =     1187.48350986


--------------------------------------------------------------------------------------------------------




--------------------------------------- Iteration      1(   2)  ---------------------------------------


     EDDAV:  cpu time    3.7155: real time    3.8873
 BZINTS: Fermi energy: -1.907039;144.000000 electrons
         Band energy:***********;  BLOECHL correction:  0.000000
       DOS:  cpu time    0.0036: real time    0.0036
    --------------------------------------------
      LOOP:  cpu time    3.7190: real time    3.8909

 eigenvalue-minimisations  :  3880
 total energy-change (2. order) :-0.1115381E+04  (-0.1089198E+04)
 number of electron     144.0000000 magnetization 
 augmentation part      144.0000000 magnetization 

 Free energy of the ion-electron system (eV)
  ---------------------------------------------------
  alpha Z        PSCENC =       170.45750602
  Ewald energy   TEWEN  =     10974.29577158
  -Hartree energ DENC   =    -17099.23110830
  -exchange      EXHF   =         0.00000000
  -V(xc)+E(xc)   XCENC  =        28.52905456
  PAW double counting   =      3700.71972520    -3383.50420208
  entropy T*S    EENTRO =         0.00000000
  eigenvalues    EBANDS =     -1596.73950690
  atomic energy  EATOM  =      7277.57480299
  Solvation  Ediel_sol  =         0.00000000
  ---------------------------------------------------
  free energy    TOTEN  =        72.10204307 eV

  energy without entropy =       72.10204307  energy(sigma->0) =       72.10204307


--------------------------------------------------------------------------------------------------------




--------------------------------------- Iteration      1(   3)  ---------------------------------------


     EDDAV:  cpu time    2.8427: real time    2.8974
 BZINTS: Fermi energy: -3.335507;144.000000 electrons
         Band energy:***********;  BLOECHL correction:  0.000000
       DOS:  cpu time    0.0022: real time    0.0022
    --------------------------------------------
      LOOP:  cpu time    2.8449: real time    2.8996

 eigenvalue-minimisations  :  3208
 total energy-change (2. order) :-0.1681412E+03  (-0.1675207E+03)
 number of electron     144.0000000 magnetization 
 augmentation part      144.0000000 magnetization 

 Free energy of the ion-electron system (eV)
  ---------------------------------------------------
  alpha Z        PSCENC =       170.45750602
  Ewald energy   TEWEN  =     10974.29577158
  -Hartree energ DENC   =    -17099.23110830
  -exchange      EXHF   =         0.00000000
  -V(xc)+E(xc)   XCENC  =        28.52905456
  PAW double counting   =      3700.71972520    -3383.50420208
  entropy T*S    EENTRO =         0.00000000
  eigenvalues    EBANDS =     -1764.88071442
  atomic energy  EATOM  =      7277.57480299
  Solvation  Ediel_sol  =         0.00000000
  ---------------------------------------------------
  free energy    TOTEN  =       -96.03916446 eV

  energy without entropy =      -96.03916446  energy(sigma->0) =      -96.03916446


--------------------------------------------------------------------------------------------------------




--------------------------------------- Iteration      1(   4)  ---------------------------------------


     EDDAV:  cpu time    3.3260: real time    3.3675
 BZINTS: Fermi energy: -3.396478;144.000000 electrons
         Band energy:***********;  BLOECHL correction:  0.000000
       DOS:  cpu time    0.0019: real time    0.0019
    --------------------------------------------
      LOOP:  cpu time    3.3280: real time    3.3694

 eigenvalue-minimisations  :  3752
 total energy-change (2. order) :-0.5885301E+01  (-0.5868642E+01)
 number of electron     144.0000000 magnetization 
 augmentation part      144.0000000 magnetization 

 Free energy of the ion-electron system (eV)
  ---------------------------------------------------
  alpha Z        PSCENC =       170.45750602
  Ewald energy   TEWEN  =     10974.29577158
  -Hartree energ DENC   =    -17099.23110830
  -exchange      EXHF   =         0.00000000
  -V(xc)+E(xc)   XCENC  =        28.52905456
  PAW double counting   =      3700.71972520    -3383.50420208
  entropy T*S    EENTRO =         0.00000000
  eigenvalues    EBANDS =     -1770.76601550
  atomic energy  EATOM  =      7277.57480299
  Solvation  Ediel_sol  =         0.00000000
  ---------------------------------------------------
  free energy    TOTEN  =      -101.92446553 eV

  energy without entropy =     -101.92446553  energy(sigma->0) =     -101.92446553


--------------------------------------------------------------------------------------------------------




--------------------------------------- Iteration      1(   5)  ---------------------------------------


     EDDAV:  cpu time    3.5553: real time    3.5747
 BZINTS: Fermi energy: -3.382152;144.000000 electrons
         Band energy:***********;  BLOECHL correction:  0.000000
       DOS:  cpu time    0.0023: real time    0.0023
    CHARGE:  cpu time    0.1521: real time    0.1768
    MIXING:  cpu time    0.0086: real time    0.0357
    --------------------------------------------
      LOOP:  cpu time    3.7183: real time    3.7895

 eigenvalue-minimisations  :  4160
 total energy-change (2. order) :-0.2655650E+00  (-0.2654772E+00)
 number of electron     143.9999982 magnetization 
 augmentation part      -17.7538690 magnetization 

 Broyden mixing:
  rms(total) = 0.93345E+00    rms(broyden)= 0.93344E+00
  rms(prec ) = 0.12035E+01
  weight for this iteration     100.00

 Free energy of the ion-electron system (eV)
  ---------------------------------------------------
  alpha Z        PSCENC =       170.45750602
  Ewald energy   TEWEN  =     10974.29577158
  -Hartree energ DENC   =    -17099.23110830
  -exchange      EXHF   =         0.00000000
  -V(xc)+E(xc)   XCENC  =        28.52905456
  PAW double counting   =      3700.71972520    -3383.50420208
  entropy T*S    EENTRO =         0.00000000
  eigenvalues    EBANDS =     -1771.03158051
  atomic energy  EATOM  =      7277.57480299
  Solvation  Ediel_sol  =         0.00000000
  ---------------------------------------------------
  free energy    TOTEN  =      -102.19003055 eV

  energy without entropy =     -102.19003055  energy(sigma->0) =     -102.19003055


--------------------------------------------------------------------------------------------------------




--------------------------------------- Iteration      1(   6)  ---------------------------------------


    POTLOK:  cpu time    2.4481: real time    2.4653
    SETDIJ:  cpu time    0.1087: real time    0.1090
     EDDAV:  cpu time    2.8102: real time    2.8169
 BZINTS: Fermi energy: -2.292406;144.000000 electrons
         Band energy:***********;  BLOECHL correction:  0.000000
       DOS:  cpu time    0.0022: real time    0.0022
    CHARGE:  cpu time    0.1679: real time    0.1683
    MIXING:  cpu time    0.0059: real time    0.0060
    --------------------------------------------
      LOOP:  cpu time    5.5431: real time    5.5677

 eigenvalue-minimisations  :  3024
 total energy-change (2. order) : 0.8435585E+01  (-0.2138698E+01)
 number of electron     143.9999982 magnetization 
 augmentation part      -17.6126269 magnetization 

 Broyden mixing:
  rms(total) = 0.47326E+00    rms(broyden)= 0.47326E+00
  rms(prec ) = 0.58913E+00
  weight for this iteration     100.00

 eigenvalues of (default mixing * dielectric matrix)
  average eigenvalue GAMMA=   1.5427
  1.5427

 Free energy of the ion-electron system (eV)
  ---------------------------------------------------
  alpha Z        PSCENC =       170.45750602
  Ewald energy   TEWEN  =     10974.29577158
  -Hartree energ DENC   =    -17188.79138445
  -exchange      EXHF   =         0.00000000
  -V(xc)+E(xc)   XCENC  =        31.48029781
  PAW double counting   =      3733.16980509    -3423.12454692
  entropy T*S    EENTRO =         0.00000000
  eigenvalues    EBANDS =     -1668.81669728
  atomic energy  EATOM  =      7277.57480299
  Solvation  Ediel_sol  =         0.00000000
  ---------------------------------------------------
  free energy    TOTEN  =       -93.75444516 eV

  energy without entropy =      -93.75444516  energy(sigma->0) =      -93.75444516


--------------------------------------------------------------------------------------------------------




--------------------------------------- Iteration      1(   7)  ---------------------------------------


    POTLOK:  cpu time    2.3869: real time    2.4043
    SETDIJ:  cpu time    0.4307: real time    0.4317
     EDDAV:  cpu time    2.9042: real time    2.9115
 BZINTS: Fermi energy: -1.467091;144.000000 electrons
         Band energy:***********;  BLOECHL correction:  0.000000
       DOS:  cpu time    0.0023: real time    0.0023
    CHARGE:  cpu time    0.1380: real time    0.1383
    MIXING:  cpu time    0.0056: real time    0.0059
    --------------------------------------------
      LOOP:  cpu time    5.8676: real time    5.8940

 eigenvalue-minimisations  :  3480
 total energy-change (2. order) : 0.1206479E+01  (-0.1047514E+01)
 number of electron     143.9999982 magnetization 
 augmentation part      -17.6727799 magnetization 

 Broyden mixing:
  rms(total) = 0.25151E+00    rms(broyden)= 0.25151E+00
  rms(prec ) = 0.29931E+00
  weight for this iteration     100.00

 eigenvalues of (default mixing * dielectric matrix)
  average eigenvalue GAMMA=   1.8672
  1.8672  1.8672

 Free energy of the ion-electron system (eV)
  ---------------------------------------------------
  alpha Z        PSCENC =       170.45750602
  Ewald energy   TEWEN  =     10974.29577158
  -Hartree energ DENC   =    -17263.89541321
  -exchange      EXHF   =         0.00000000
  -V(xc)+E(xc)   XCENC  =        33.87475472
  PAW double counting   =      3776.36660436    -3472.08160382
  entropy T*S    EENTRO =         0.00000000
  eigenvalues    EBANDS =     -1589.14038902
  atomic energy  EATOM  =      7277.57480299
  Solvation  Ediel_sol  =         0.00000000
  ---------------------------------------------------
  free energy    TOTEN  =       -92.54796638 eV

  energy without entropy =      -92.54796638  energy(sigma->0) =      -92.54796638


--------------------------------------------------------------------------------------------------------




--------------------------------------- Iteration      1(   8)  ---------------------------------------


    POTLOK:  cpu time    2.5079: real time    2.5259
    SETDIJ:  cpu time    0.0025: real time    0.0025
     EDDAV:  cpu time    2.7495: real time    2.7561
 BZINTS: Fermi energy: -1.337118;144.000000 electrons
         Band energy:***********;  BLOECHL correction:  0.000000
       DOS:  cpu time    0.0031: real time    0.0031
    CHARGE:  cpu time    0.1539: real time    0.1542
    MIXING:  cpu time    0.0079: real time    0.0083
    --------------------------------------------
      LOOP:  cpu time    5.4248: real time    5.4500

 eigenvalue-minimisations  :  3112
 total energy-change (2. order) : 0.2233859E+00  (-0.3736038E+00)
 number of electron     143.9999982 magnetization 
 augmentation part      -17.7949627 magnetization 

 Broyden mixing:
  rms(total) = 0.12085E+00    rms(broyden)= 0.12085E+00
  rms(prec ) = 0.18999E+00
  weight for this iteration     100.00

 eigenvalues of (default mixing * dielectric matrix)
  average eigenvalue GAMMA=   1.6932
  2.6688  1.2055  1.2055

 Free energy of the ion-electron system (eV)
  ---------------------------------------------------
  alpha Z        PSCENC =       170.45750602
  Ewald energy   TEWEN  =     10974.29577158
  -Hartree energ DENC   =    -17295.81716403
  -exchange      EXHF   =         0.00000000
  -V(xc)+E(xc)   XCENC  =        34.85253414
  PAW double counting   =      3826.18228828    -3523.62604068
  entropy T*S    EENTRO =         0.00000000
  eigenvalues    EBANDS =     -1556.24427878
  atomic energy  EATOM  =      7277.57480299
  Solvation  Ediel_sol  =         0.00000000
  ---------------------------------------------------
  free energy    TOTEN  =       -92.32458048 eV

  energy without entropy =      -92.32458048  energy(sigma->0) =      -92.32458048


--------------------------------------------------------------------------------------------------------




--------------------------------------- Iteration      1(   9)  ---------------------------------------


    POTLOK:  cpu time    2.4502: real time    2.4707
    SETDIJ:  cpu time    0.5514: real time    0.5527
     EDDAV:  cpu time    2.9509: real time    2.9580
 BZINTS: Fermi energy: -1.013227;144.000000 electrons
         Band energy:***********;  BLOECHL correction:  0.000000
       DOS:  cpu time    0.0024: real time    0.0024
    CHARGE:  cpu time    0.1649: real time    0.1653
    MIXING:  cpu time    0.0045: real time    0.0046
    --------------------------------------------
      LOOP:  cpu time    6.1244: real time    6.1536

 eigenvalue-minimisations  :  3104
 total energy-change (2. order) : 0.2848476E+00  (-0.1122134E+00)
 number of electron     143.9999982 magnetization 
 augmentation part      -17.7559429 magnetization 

 Broyden mixing:
  rms(total) = 0.54186E-01    rms(broyden)= 0.54186E-01
  rms(prec ) = 0.77490E-01
  weight for this iteration     100.00

 eigenvalues of (default mixing * dielectric matrix)
  average eigenvalue GAMMA=   1.4131
  2.6130  1.2183  1.2183  0.6028

 Free energy of the ion-electron system (eV)
  ---------------------------------------------------
  alpha Z        PSCENC =       170.45750602
  Ewald energy   TEWEN  =     10974.29577158
  -Hartree energ DENC   =    -17334.63762788
  -exchange      EXHF   =         0.00000000
  -V(xc)+E(xc)   XCENC  =        35.84288977
  PAW double counting   =      3837.69294112    -3536.51107816
  entropy T*S    EENTRO =         0.00000000
  eigenvalues    EBANDS =     -1516.75493835
  atomic energy  EATOM  =      7277.57480299
  Solvation  Ediel_sol  =         0.00000000
  ---------------------------------------------------
  free energy    TOTEN  =       -92.03973290 eV

  energy without entropy =      -92.03973290  energy(sigma->0) =      -92.03973290


--------------------------------------------------------------------------------------------------------




--------------------------------------- Iteration      1(  10)  ---------------------------------------


    POTLOK:  cpu time    2.4337: real time    2.4503
    SETDIJ:  cpu time    0.5218: real time    0.5230
     EDDAV:  cpu time    2.9845: real time    2.9915
 BZINTS: Fermi energy: -0.879624;144.000000 electrons
         Band energy:***********;  BLOECHL correction:  0.000000
       DOS:  cpu time    0.0023: real time    0.0023
    CHARGE:  cpu time    0.1482: real time    0.1486
    MIXING:  cpu time    0.0056: real time    0.0057
    --------------------------------------------
      LOOP:  cpu time    6.0962: real time    6.1215

 eigenvalue-minimisations  :  3584
 total energy-change (2. order) : 0.1161926E-01  (-0.2610175E-01)
 number of electron     143.9999982 magnetization 
 augmentation part      -17.7666705 magnetization 

 Broyden mixing:
  rms(total) = 0.41277E-01    rms(broyden)= 0.41277E-01
  rms(prec ) = 0.60749E-01
  weight for this iteration     100.00

 eigenvalues of (default mixing * dielectric matrix)
  average eigenvalue GAMMA=   1.5760
  2.5495  2.2765  1.1681  0.9428  0.9428

 Free energy of the ion-electron system (eV)
  ---------------------------------------------------
  alpha Z        PSCENC =       170.45750602
  Ewald energy   TEWEN  =     10974.29577158
  -Hartree energ DENC   =    -17343.86792620
  -exchange      EXHF   =         0.00000000
  -V(xc)+E(xc)   XCENC  =        35.87985069
  PAW double counting   =      3832.63716382    -3531.19197612
  entropy T*S    EENTRO =         0.00000000
  eigenvalues    EBANDS =     -1507.81330642
  atomic energy  EATOM  =      7277.57480299
  Solvation  Ediel_sol  =         0.00000000
  ---------------------------------------------------
  free energy    TOTEN  =       -92.02811365 eV

  energy without entropy =      -92.02811365  energy(sigma->0) =      -92.02811365


--------------------------------------------------------------------------------------------------------




--------------------------------------- Iteration      1(  11)  ---------------------------------------


    POTLOK:  cpu time    2.3874: real time    2.4060
    SETDIJ:  cpu time    0.4041: real time    0.4050
     EDDAV:  cpu time    2.8000: real time    2.8066
 BZINTS: Fermi energy: -0.861821;144.000000 electrons
         Band energy:***********;  BLOECHL correction:  0.000000
       DOS:  cpu time    0.0021: real time    0.0021
    CHARGE:  cpu time    0.1660: real time    0.1664
    MIXING:  cpu time    0.0083: real time    0.0083
    --------------------------------------------
      LOOP:  cpu time    5.7678: real time    5.7945

 eigenvalue-minimisations  :  3256
 total energy-change (2. order) : 0.2736864E-01  (-0.6833493E-02)
 number of electron     143.9999982 magnetization 
 augmentation part      -17.7757034 magnetization 

 Broyden mixing:
  rms(total) = 0.15481E-01    rms(broyden)= 0.15481E-01
  rms(prec ) = 0.30890E-01
  weight for this iteration     100.00

 eigenvalues of (default mixing * dielectric matrix)
  average eigenvalue GAMMA=   1.6060
  2.8115  2.8115  1.0887  1.0887  0.9178  0.9178

 Free energy of the ion-electron system (eV)
  ---------------------------------------------------
  alpha Z        PSCENC =       170.45750602
  Ewald energy   TEWEN  =     10974.29577158
  -Hartree energ DENC   =    -17359.22351484
  -exchange      EXHF   =         0.00000000
  -V(xc)+E(xc)   XCENC  =        36.02073853
  PAW double counting   =      3833.48021816    -3531.73759928
  entropy T*S    EENTRO =         0.00000000
  eigenvalues    EBANDS =     -1492.86866817
  atomic energy  EATOM  =      7277.57480299
  Solvation  Ediel_sol  =         0.00000000
  ---------------------------------------------------
  free energy    TOTEN  =       -92.00074500 eV

  energy without entropy =      -92.00074500  energy(sigma->0) =      -92.00074500


--------------------------------------------------------------------------------------------------------




--------------------------------------- Iteration      1(  12)  ---------------------------------------


    POTLOK:  cpu time    2.4349: real time    2.4528
    SETDIJ:  cpu time    0.1129: real time    0.1132
     EDDAV:  cpu time    3.1096: real time    3.1170
 BZINTS: Fermi energy: -0.704877;144.000000 electrons
         Band energy:***********;  BLOECHL correction:  0.000000
       DOS:  cpu time    0.0023: real time    0.0023
    CHARGE:  cpu time    0.1628: real time    0.1632
    MIXING:  cpu time    0.0054: real time    0.0054
    --------------------------------------------
      LOOP:  cpu time    5.8279: real time    5.8539

 eigenvalue-minimisations  :  3360
 total energy-change (2. order) :-0.1121601E-01  (-0.1449030E-02)
 number of electron     143.9999982 magnetization 
 augmentation part      -17.7716929 magnetization 

 Broyden mixing:
  rms(total) = 0.11724E-01    rms(broyden)= 0.11724E-01
  rms(prec ) = 0.20217E-01
  weight for this iteration     100.00

 eigenvalues of (default mixing * dielectric matrix)
  average eigenvalue GAMMA=   1.7118
  3.4238  2.5955  1.9606  1.1216  1.1216  0.8797  0.8797

 Free energy of the ion-electron system (eV)
  ---------------------------------------------------
  alpha Z        PSCENC =       170.45750602
  Ewald energy   TEWEN  =     10974.29577158
  -Hartree energ DENC   =    -17370.78706847
  -exchange      EXHF   =         0.00000000
  -V(xc)+E(xc)   XCENC  =        36.05117550
  PAW double counting   =      3831.00613382    -3529.07247548
  entropy T*S    EENTRO =         0.00000000
  eigenvalues    EBANDS =     -1481.53780697
  atomic energy  EATOM  =      7277.57480299
  Solvation  Ediel_sol  =         0.00000000
  ---------------------------------------------------
  free energy    TOTEN  =       -92.01196102 eV

  energy without entropy =      -92.01196102  energy(sigma->0) =      -92.01196102


--------------------------------------------------------------------------------------------------------




--------------------------------------- Iteration      1(  13)  ---------------------------------------


    POTLOK:  cpu time    2.4258: real time    2.4440
    SETDIJ:  cpu time    0.2879: real time    0.2886
     EDDAV:  cpu time    2.7751: real time    2.7817
 BZINTS: Fermi energy: -0.653781;144.000000 electrons
         Band energy:***********;  BLOECHL correction:  0.000000
       DOS:  cpu time    0.0024: real time    0.0024
    CHARGE:  cpu time    0.1393: real time    0.1397
    MIXING:  cpu time    0.0078: real time    0.0078
    --------------------------------------------
      LOOP:  cpu time    5.6383: real time    5.6641

 eigenvalue-minimisations  :  3224
 total energy-change (2. order) : 0.8397860E-02  (-0.8668289E-03)
 number of electron     143.9999982 magnetization 
 augmentation part      -17.7716530 magnetization 

 Broyden mixing:
  rms(total) = 0.63565E-02    rms(broyden)= 0.63565E-02
  rms(prec ) = 0.11176E-01
  weight for this iteration     100.00

 eigenvalues of (default mixing * dielectric matrix)
  average eigenvalue GAMMA=   1.7850
  4.0344  2.7985  2.4113  1.2075  1.2075  0.8898  0.8655  0.8655

 Free energy of the ion-electron system (eV)
  ---------------------------------------------------
  alpha Z        PSCENC =       170.45750602
  Ewald energy   TEWEN  =     10974.29577158
  -Hartree energ DENC   =    -17380.09765641
  -exchange      EXHF   =         0.00000000
  -V(xc)+E(xc)   XCENC  =        36.12232384
  PAW double counting   =      3829.72661529    -3527.90167956
  entropy T*S    EENTRO =         0.00000000
  eigenvalues    EBANDS =     -1472.18124690
  atomic energy  EATOM  =      7277.57480299
  Solvation  Ediel_sol  =         0.00000000
  ---------------------------------------------------
  free energy    TOTEN  =       -92.00356316 eV

  energy without entropy =      -92.00356316  energy(sigma->0) =      -92.00356316


--------------------------------------------------------------------------------------------------------




--------------------------------------- Iteration      1(  14)  ---------------------------------------


    POTLOK:  cpu time    2.4278: real time    2.4452
    SETDIJ:  cpu time    0.5436: real time    0.5449
     EDDAV:  cpu time    2.7594: real time    2.7659
 BZINTS: Fermi energy: -0.634645;144.000000 electrons
         Band energy:***********;  BLOECHL correction:  0.000000
       DOS:  cpu time    0.0023: real time    0.0023
    CHARGE:  cpu time    0.1678: real time    0.1682
    MIXING:  cpu time    0.0077: real time    0.0077
    --------------------------------------------
      LOOP:  cpu time    5.9086: real time    5.9343

 eigenvalue-minimisations  :  3040
 total energy-change (2. order) : 0.3379733E-02  (-0.2627742E-03)
 number of electron     143.9999982 magnetization 
 augmentation part      -17.7729275 magnetization 

 Broyden mixing:
  rms(total) = 0.51395E-02    rms(broyden)= 0.51395E-02
  rms(prec ) = 0.82998E-02
  weight for this iteration     100.00

 eigenvalues of (default mixing * dielectric matrix)
  average eigenvalue GAMMA=   1.8235
  4.5188  3.0438  2.1313  1.3937  1.3937  0.8868  0.8868  1.0782  1.0782

 Free energy of the ion-electron system (eV)
  ---------------------------------------------------
  alpha Z        PSCENC =       170.45750602
  Ewald energy   TEWEN  =     10974.29577158
  -Hartree energ DENC   =    -17383.53944807
  -exchange      EXHF   =         0.00000000
  -V(xc)+E(xc)   XCENC  =        36.13427000
  PAW double counting   =      3829.05131842    -3527.23790481
  entropy T*S    EENTRO =         0.00000000
  eigenvalues    EBANDS =     -1468.73649956
  atomic energy  EATOM  =      7277.57480299
  Solvation  Ediel_sol  =         0.00000000
  ---------------------------------------------------
  free energy    TOTEN  =       -92.00018342 eV

  energy without entropy =      -92.00018342  energy(sigma->0) =      -92.00018342


--------------------------------------------------------------------------------------------------------




--------------------------------------- Iteration      1(  15)  ---------------------------------------


    POTLOK:  cpu time    2.4514: real time    2.4700
    SETDIJ:  cpu time    0.1385: real time    0.1388
     EDDAV:  cpu time    2.5894: real time    2.5956
 BZINTS: Fermi energy: -0.622957;144.000000 electrons
         Band energy:***********;  BLOECHL correction:  0.000000
       DOS:  cpu time    0.0024: real time    0.0024
    CHARGE:  cpu time    0.1762: real time    0.1767
    MIXING:  cpu time    0.0064: real time    0.0064
    --------------------------------------------
      LOOP:  cpu time    5.3643: real time    5.3899

 eigenvalue-minimisations  :  2864
 total energy-change (2. order) :-0.1135581E-02  (-0.2251636E-03)
 number of electron     143.9999982 magnetization 
 augmentation part      -17.7744031 magnetization 

 Broyden mixing:
  rms(total) = 0.20032E-02    rms(broyden)= 0.20032E-02
  rms(prec ) = 0.39438E-02
  weight for this iteration     100.00

 eigenvalues of (default mixing * dielectric matrix)
  average eigenvalue GAMMA=   1.9290
  5.3477  3.3016  2.5824  1.6161  0.8842  0.8842  1.2583  1.2583  0.9851  1.1723

 Free energy of the ion-electron system (eV)
  ---------------------------------------------------
  alpha Z        PSCENC =       170.45750602
  Ewald energy   TEWEN  =     10974.29577158
  -Hartree energ DENC   =    -17385.08371218
  -exchange      EXHF   =         0.00000000
  -V(xc)+E(xc)   XCENC  =        36.12519694
  PAW double counting   =      3829.40775651    -3527.56778166
  entropy T*S    EENTRO =         0.00000000
  eigenvalues    EBANDS =     -1467.21085921
  atomic energy  EATOM  =      7277.57480299
  Solvation  Ediel_sol  =         0.00000000
  ---------------------------------------------------
  free energy    TOTEN  =       -92.00131900 eV

  energy without entropy =      -92.00131900  energy(sigma->0) =      -92.00131900


--------------------------------------------------------------------------------------------------------




--------------------------------------- Iteration      1(  16)  ---------------------------------------


    POTLOK:  cpu time    2.4023: real time    2.4185
    SETDIJ:  cpu time    0.3040: real time    0.3047
     EDDAV:  cpu time    2.5843: real time    2.5905
 BZINTS: Fermi energy: -0.612104;144.000000 electrons
         Band energy:***********;  BLOECHL correction:  0.000000
       DOS:  cpu time    0.0023: real time    0.0023
    CHARGE:  cpu time    0.1582: real time    0.1586
    MIXING:  cpu time    0.0069: real time    0.0069
    --------------------------------------------
      LOOP:  cpu time    5.4580: real time    5.4815

 eigenvalue-minimisations  :  3080
 total energy-change (2. order) : 0.1300282E-02  (-0.1616037E-03)
 number of electron     143.9999982 magnetization 
 augmentation part      -17.7741426 magnetization 

 Broyden mixing:
  rms(total) = 0.14675E-02    rms(broyden)= 0.14675E-02
  rms(prec ) = 0.26573E-02
  weight for this iteration     100.00

 eigenvalues of (default mixing * dielectric matrix)
  average eigenvalue GAMMA=   1.9863
  5.6605  3.7683  2.5912  1.7266  1.7266  0.8865  0.8865  1.2725  1.2725  1.0042
  1.0537

 Free energy of the ion-electron system (eV)
  ---------------------------------------------------
  alpha Z        PSCENC =       170.45750602
  Ewald energy   TEWEN  =     10974.29577158
  -Hartree energ DENC   =    -17386.72768667
  -exchange      EXHF   =         0.00000000
  -V(xc)+E(xc)   XCENC  =        36.12963372
  PAW double counting   =      3829.68393481    -3527.85802576
  entropy T*S    EENTRO =         0.00000000
  eigenvalues    EBANDS =     -1465.55595542
  atomic energy  EATOM  =      7277.57480299
  Solvation  Ediel_sol  =         0.00000000
  ---------------------------------------------------
  free energy    TOTEN  =       -92.00001872 eV

  energy without entropy =      -92.00001872  energy(sigma->0) =      -92.00001872


--------------------------------------------------------------------------------------------------------




--------------------------------------- Iteration      1(  17)  ---------------------------------------


    POTLOK:  cpu time    2.4241: real time    2.4407
    SETDIJ:  cpu time    0.2565: real time    0.2571
     EDDAV:  cpu time    2.9359: real time    2.9428
 BZINTS: Fermi energy: -0.604123;144.000000 electrons
         Band energy:***********;  BLOECHL correction:  0.000000
       DOS:  cpu time    0.0029: real time    0.0029
    CHARGE:  cpu time    0.1729: real time    0.1733
    MIXING:  cpu time    0.0067: real time    0.0067
    --------------------------------------------
      LOOP:  cpu time    5.7989: real time    5.8235

 eigenvalue-minimisations  :  2944
 total energy-change (2. order) : 0.6836991E-03  (-0.9727760E-04)
 number of electron     143.9999982 magnetization 
 augmentation part      -17.7741139 magnetization 

 Broyden mixing:
  rms(total) = 0.99649E-03    rms(broyden)= 0.99649E-03
  rms(prec ) = 0.18086E-02
  weight for this iteration     100.00

 eigenvalues of (default mixing * dielectric matrix)
  average eigenvalue GAMMA=   2.0263
  6.1035  3.9488  2.7981  2.2533  0.8852  0.8852  1.4679  1.4679  1.2062  1.2062
  0.9928  1.1006

 Free energy of the ion-electron system (eV)
  ---------------------------------------------------
  alpha Z        PSCENC =       170.45750602
  Ewald energy   TEWEN  =     10974.29577158
  -Hartree energ DENC   =    -17387.76009229
  -exchange      EXHF   =         0.00000000
  -V(xc)+E(xc)   XCENC  =        36.13132404
  PAW double counting   =      3829.66392898    -3527.83345637
  entropy T*S    EENTRO =         0.00000000
  eigenvalues    EBANDS =     -1464.52911998
  atomic energy  EATOM  =      7277.57480299
  Solvation  Ediel_sol  =         0.00000000
  ---------------------------------------------------
  free energy    TOTEN  =       -91.99933502 eV

  energy without entropy =      -91.99933502  energy(sigma->0) =      -91.99933502


--------------------------------------------------------------------------------------------------------




--------------------------------------- Iteration      1(  18)  ---------------------------------------


    POTLOK:  cpu time    2.4098: real time    2.4266
    SETDIJ:  cpu time    0.1888: real time    0.1892
     EDDAV:  cpu time    2.5857: real time    2.5918
 BZINTS: Fermi energy: -0.600184;144.000000 electrons
         Band energy:***********;  BLOECHL correction:  0.000000
       DOS:  cpu time    0.0025: real time    0.0025
    CHARGE:  cpu time    0.1576: real time    0.1580
    MIXING:  cpu time    0.0074: real time    0.0074
    --------------------------------------------
      LOOP:  cpu time    5.3517: real time    5.3755

 eigenvalue-minimisations  :  2896
 total energy-change (2. order) :-0.9983062E-03  (-0.4609184E-04)
 number of electron     143.9999982 magnetization 
 augmentation part      -17.7740260 magnetization 

 Broyden mixing:
  rms(total) = 0.59216E-03    rms(broyden)= 0.59216E-03
  rms(prec ) = 0.97916E-03
  weight for this iteration     100.00

 eigenvalues of (default mixing * dielectric matrix)
  average eigenvalue GAMMA=   2.1018
  6.4684  4.6349  2.7472  2.7472  1.8725  0.8850  0.8850  1.3544  1.3544  1.2058
  1.2058  0.9814  0.9814

 Free energy of the ion-electron system (eV)
  ---------------------------------------------------
  alpha Z        PSCENC =       170.45750602
  Ewald energy   TEWEN  =     10974.29577158
  -Hartree energ DENC   =    -17388.54563347
  -exchange      EXHF   =         0.00000000
  -V(xc)+E(xc)   XCENC  =        36.13415595
  PAW double counting   =      3829.57078978    -3527.73683150
  entropy T*S    EENTRO =         0.00000000
  eigenvalues    EBANDS =     -1463.75089469
  atomic energy  EATOM  =      7277.57480299
  Solvation  Ediel_sol  =         0.00000000
  ---------------------------------------------------
  free energy    TOTEN  =       -92.00033333 eV

  energy without entropy =      -92.00033333  energy(sigma->0) =      -92.00033333


--------------------------------------------------------------------------------------------------------




--------------------------------------- Iteration      1(  19)  ---------------------------------------


    POTLOK:  cpu time    2.3904: real time    2.4069
    SETDIJ:  cpu time    0.1892: real time    0.1896
     EDDAV:  cpu time    2.4014: real time    2.4071
 BZINTS: Fermi energy: -0.600686;144.000000 electrons
         Band energy:***********;  BLOECHL correction:  0.000000
       DOS:  cpu time    0.0026: real time    0.0026
    CHARGE:  cpu time    0.1372: real time    0.1375
    MIXING:  cpu time    0.0069: real time    0.0069
    --------------------------------------------
      LOOP:  cpu time    5.1277: real time    5.1507

 eigenvalue-minimisations  :  2608
 total energy-change (2. order) :-0.8455524E-03  (-0.3900587E-04)
 number of electron     143.9999982 magnetization 
 augmentation part      -17.7742300 magnetization 

 Broyden mixing:
  rms(total) = 0.50551E-03    rms(broyden)= 0.50551E-03
  rms(prec ) = 0.73247E-03
  weight for this iteration     100.00

 eigenvalues of (default mixing * dielectric matrix)
  average eigenvalue GAMMA=   2.2250
  7.1428  5.3919  3.0616  2.8862  2.1207  1.6541  1.6541  0.8850  0.8850  1.2395
  1.2395  0.9599  1.0149  1.0149

 Free energy of the ion-electron system (eV)
  ---------------------------------------------------
  alpha Z        PSCENC =       170.45750602
  Ewald energy   TEWEN  =     10974.29577158
  -Hartree energ DENC   =    -17388.61914334
  -exchange      EXHF   =         0.00000000
  -V(xc)+E(xc)   XCENC  =        36.13188343
  PAW double counting   =      3829.51228913    -3527.67690140
  entropy T*S    EENTRO =         0.00000000
  eigenvalues    EBANDS =     -1463.67738729
  atomic energy  EATOM  =      7277.57480299
  Solvation  Ediel_sol  =         0.00000000
  ---------------------------------------------------
  free energy    TOTEN  =       -92.00117888 eV

  energy without entropy =      -92.00117888  energy(sigma->0) =      -92.00117888


--------------------------------------------------------------------------------------------------------




--------------------------------------- Iteration      1(  20)  ---------------------------------------


    POTLOK:  cpu time    2.4452: real time    2.4623
    SETDIJ:  cpu time    0.1620: real time    0.1624
     EDDAV:  cpu time    2.5516: real time    2.5576
 BZINTS: Fermi energy: -0.601605;144.000000 electrons
         Band energy:***********;  BLOECHL correction:  0.000000
       DOS:  cpu time    0.0033: real time    0.0033
    CHARGE:  cpu time    0.1834: real time    0.1838
    MIXING:  cpu time    0.0095: real time    0.0095
    --------------------------------------------
      LOOP:  cpu time    5.3550: real time    5.3790

 eigenvalue-minimisations  :  2696
 total energy-change (2. order) :-0.6153507E-03  (-0.2744821E-04)
 number of electron     143.9999982 magnetization 
 augmentation part      -17.7743312 magnetization 

 Broyden mixing:
  rms(total) = 0.20795E-03    rms(broyden)= 0.20795E-03
  rms(prec ) = 0.30636E-03
  weight for this iteration     100.00

 eigenvalues of (default mixing * dielectric matrix)
  average eigenvalue GAMMA=   2.2889
  7.5361  6.3141  3.0786  3.0786  2.4884  1.5876  1.5876  0.8851  0.8851  1.3179
  1.3179  1.1632  1.1632  0.9647  0.9647

 Free energy of the ion-electron system (eV)
  ---------------------------------------------------
  alpha Z        PSCENC =       170.45750602
  Ewald energy   TEWEN  =     10974.29577158
  -Hartree energ DENC   =    -17388.66596330
  -exchange      EXHF   =         0.00000000
  -V(xc)+E(xc)   XCENC  =        36.13174370
  PAW double counting   =      3829.54503624    -3527.70932817
  entropy T*S    EENTRO =         0.00000000
  eigenvalues    EBANDS =     -1463.63136330
  atomic energy  EATOM  =      7277.57480299
  Solvation  Ediel_sol  =         0.00000000
  ---------------------------------------------------
  free energy    TOTEN  =       -92.00179423 eV

  energy without entropy =      -92.00179423  energy(sigma->0) =      -92.00179423


--------------------------------------------------------------------------------------------------------




--------------------------------------- Iteration      1(  21)  ---------------------------------------


    POTLOK:  cpu time    2.3962: real time    2.4147
    SETDIJ:  cpu time    0.2783: real time    0.2789
     EDDAV:  cpu time    2.1342: real time    2.1392
 BZINTS: Fermi energy: -0.602846;144.000000 electrons
         Band energy:***********;  BLOECHL correction:  0.000000
       DOS:  cpu time    0.0030: real time    0.0031
    CHARGE:  cpu time    0.1384: real time    0.1388
    MIXING:  cpu time    0.0060: real time    0.0060
    --------------------------------------------
      LOOP:  cpu time    4.9562: real time    4.9807

 eigenvalue-minimisations  :  2264
 total energy-change (2. order) :-0.2519472E-03  (-0.1098475E-04)
 number of electron     143.9999982 magnetization 
 augmentation part      -17.7742978 magnetization 

 Broyden mixing:
  rms(total) = 0.10987E-03    rms(broyden)= 0.10987E-03
  rms(prec ) = 0.13690E-03
  weight for this iteration     100.00

 eigenvalues of (default mixing * dielectric matrix)
  average eigenvalue GAMMA=   2.3432
  8.5540  6.5066  3.2558  3.2558  2.4146  1.9037  1.9037  0.8851  0.8851  1.2849
  1.2849  1.2667  1.0782  1.0782  0.9667  0.9667

 Free energy of the ion-electron system (eV)
  ---------------------------------------------------
  alpha Z        PSCENC =       170.45750602
  Ewald energy   TEWEN  =     10974.29577158
  -Hartree energ DENC   =    -17388.56475523
  -exchange      EXHF   =         0.00000000
  -V(xc)+E(xc)   XCENC  =        36.13097648
  PAW double counting   =      3829.56142406    -3527.72667337
  entropy T*S    EENTRO =         0.00000000
  eigenvalues    EBANDS =     -1463.73109871
  atomic energy  EATOM  =      7277.57480299
  Solvation  Ediel_sol  =         0.00000000
  ---------------------------------------------------
  free energy    TOTEN  =       -92.00204618 eV

  energy without entropy =      -92.00204618  energy(sigma->0) =      -92.00204618


--------------------------------------------------------------------------------------------------------




--------------------------------------- Iteration      1(  22)  ---------------------------------------


    POTLOK:  cpu time    2.4432: real time    2.4609
    SETDIJ:  cpu time    0.3025: real time    0.3032
     EDDAV:  cpu time    2.3414: real time    2.3470
 BZINTS: Fermi energy: -0.603705;144.000000 electrons
         Band energy:***********;  BLOECHL correction:  0.000000
       DOS:  cpu time    0.0023: real time    0.0023
    CHARGE:  cpu time    0.1693: real time    0.1697
    MIXING:  cpu time    0.0066: real time    0.0067
    --------------------------------------------
      LOOP:  cpu time    5.2653: real time    5.2898

 eigenvalue-minimisations  :  2104
 total energy-change (2. order) : 0.1363062E-04  (-0.4865879E-05)
 number of electron     143.9999982 magnetization 
 augmentation part      -17.7742775 magnetization 

 Broyden mixing:
  rms(total) = 0.69528E-04    rms(broyden)= 0.69528E-04
  rms(prec ) = 0.91307E-04
  weight for this iteration     100.00

 eigenvalues of (default mixing * dielectric matrix)
  average eigenvalue GAMMA=   2.3230
  8.5573  7.0068  3.2945  3.2945  2.6321  1.8942  1.8942  0.8851  0.8851  1.4687
  1.2149  1.2149  0.9673  0.9673  1.0508  1.1314  1.1314

 Free energy of the ion-electron system (eV)
  ---------------------------------------------------
  alpha Z        PSCENC =       170.45750602
  Ewald energy   TEWEN  =     10974.29577158
  -Hartree energ DENC   =    -17388.57482993
  -exchange      EXHF   =         0.00000000
  -V(xc)+E(xc)   XCENC  =        36.13071906
  PAW double counting   =      3829.54118507    -3527.70620948
  entropy T*S    EENTRO =         0.00000000
  eigenvalues    EBANDS =     -1463.72097786
  atomic energy  EATOM  =      7277.57480299
  Solvation  Ediel_sol  =         0.00000000
  ---------------------------------------------------
  free energy    TOTEN  =       -92.00203255 eV

  energy without entropy =      -92.00203255  energy(sigma->0) =      -92.00203255


--------------------------------------------------------------------------------------------------------




--------------------------------------- Iteration      1(  23)  ---------------------------------------


    POTLOK:  cpu time    2.3952: real time    2.4132
    SETDIJ:  cpu time    0.1841: real time    0.1846
     EDDAV:  cpu time    2.1715: real time    2.1767
 BZINTS: Fermi energy: -0.605487;144.000000 electrons
         Band energy:***********;  BLOECHL correction:  0.000000
       DOS:  cpu time    0.0022: real time    0.0022
    CHARGE:  cpu time    0.1635: real time    0.1639
    MIXING:  cpu time    0.0068: real time    0.0068
    --------------------------------------------
      LOOP:  cpu time    4.9234: real time    4.9474

 eigenvalue-minimisations  :  2392
 total energy-change (2. order) : 0.2222059E-04  (-0.9488385E-06)
 number of electron     143.9999982 magnetization 
 augmentation part      -17.7742589 magnetization 

 Broyden mixing:
  rms(total) = 0.41199E-04    rms(broyden)= 0.41198E-04
  rms(prec ) = 0.54736E-04
  weight for this iteration     100.00

 eigenvalues of (default mixing * dielectric matrix)
  average eigenvalue GAMMA=   2.3231
  8.6406  7.1613  3.4510  3.4510  2.6570  1.9521  1.9521  1.8555  0.8851  0.8851
  1.2634  1.2634  1.2280  1.1501  1.1501  0.9560  0.9560  0.9585

 Free energy of the ion-electron system (eV)
  ---------------------------------------------------
  alpha Z        PSCENC =       170.45750602
  Ewald energy   TEWEN  =     10974.29577158
  -Hartree energ DENC   =    -17388.55646907
  -exchange      EXHF   =         0.00000000
  -V(xc)+E(xc)   XCENC  =        36.13064485
  PAW double counting   =      3829.54041283    -3527.70568171
  entropy T*S    EENTRO =         0.00000000
  eigenvalues    EBANDS =     -1463.73899782
  atomic energy  EATOM  =      7277.57480299
  Solvation  Ediel_sol  =         0.00000000
  ---------------------------------------------------
  free energy    TOTEN  =       -92.00201033 eV

  energy without entropy =      -92.00201033  energy(sigma->0) =      -92.00201033


--------------------------------------------------------------------------------------------------------




--------------------------------------- Iteration      1(  24)  ---------------------------------------


    POTLOK:  cpu time    2.4724: real time    2.4892
    SETDIJ:  cpu time    0.0016: real time    0.0016
     EDDAV:  cpu time    2.7544: real time    2.7610
 BZINTS: Fermi energy: -0.625025;144.000000 electrons
         Band energy:***********;  BLOECHL correction:  0.000000
       DOS:  cpu time    0.0024: real time    0.0023
    CHARGE:  cpu time    0.1690: real time    0.1694
    MIXING:  cpu time    0.0074: real time    0.0074
    --------------------------------------------
      LOOP:  cpu time    5.4071: real time    5.4310

 eigenvalue-minimisations  :  2632
 total energy-change (2. order) : 0.1422771E-04  (-0.2450573E-05)
 number of electron     143.9999982 magnetization 
 augmentation part      -17.7742482 magnetization 

 Broyden mixing:
  rms(total) = 0.24102E-04    rms(broyden)= 0.24094E-04
  rms(prec ) = 0.33760E-04
  weight for this iteration     100.00

 eigenvalues of (default mixing * dielectric matrix)
  average eigenvalue GAMMA=   2.3167
  8.3908  7.4611  3.6010  3.6010  2.8485  2.2004  2.2004  1.7965  0.8851  0.8851
  1.2178  1.2178  1.3479  1.1650  1.1650  0.9547  0.9547  1.0624  1.0624

 Free energy of the ion-electron system (eV)
  ---------------------------------------------------
  alpha Z        PSCENC =       170.45750602
[...]
      7     -28.3537      2.00000
      8     -28.3534      2.00000
      9     -15.0111      2.00000
     10     -15.0109      2.00000
     11     -14.9465      2.00000
     12     -14.9465      2.00000
     13     -14.8770      2.00000
     14     -14.8770      2.00000
     15     -14.2089      2.00000
     16     -14.2084      2.00000
     17     -14.1987      2.00000
     18     -14.1941      2.00000
     19     -14.1355      2.00000
     20     -14.1340      2.00000
     21     -14.0856      2.00000
     22     -14.0783      2.00000
     23     -14.0297      2.00000
     24     -14.0284      2.00000
     25     -14.0262      2.00000
     26     -14.0241      2.00000
     27     -13.6524      2.00000
     28     -13.6460      2.00000
     29     -13.5956      2.00000
     30     -13.5885      2.00000
     31     -13.5732      2.00000
     32     -13.5703      2.00000
     33     -11.0134      2.00000
     34     -11.0052      2.00000
     35     -10.7194      2.00000
     36     -10.7068      2.00000
     37      -6.5182      2.00000
     38      -6.5062      2.00000
     39      -6.2717      2.00000
     40      -6.2610      2.00000
     41      -6.1761      2.00000
     42      -6.1726      2.00000
     43      -6.0030      2.00000
     44      -5.9895      2.00000
     45      -5.9411      2.00000
     46      -5.9058      2.00000
     47      -5.8676      2.00000
     48      -5.7610      2.00000
     49      -2.8312      2.00000
     50      -2.7478      2.00000
     51      -2.6292      2.00000
     52      -2.5856      2.00000
     53      -2.2598      2.00000
     54      -2.1825      2.00000
     55      -2.1738      2.00000
     56      -2.1428      2.00000
     57      -2.0177      2.00000
     58      -1.9955      2.00000
     59      -1.8793      2.00000
     60      -1.8096      2.00000
     61      -1.7474      2.00000
     62      -1.6528      2.00000
     63      -1.5495      2.00000
     64      -1.5175      2.00000
     65      -1.3661      2.00000
     66      -1.3061      2.00000
     67      -1.2631      2.00000
     68      -1.1245      2.00000
     69      -1.0349      2.00000
     70      -0.9973      2.00000
     71      -0.9349      2.00000
     72      -0.8877      2.00000
     73       0.2022      0.00000
     74       0.2409      0.00000
     75       0.3938      0.00000
     76       0.4392      0.00000
     77       0.5549      0.00000
     78       0.6121      0.00000
     79       0.7569      0.00000
     80       0.7828      0.00000
     81       0.8382      0.00000
     82       0.8753      0.00000
     83       1.0277      0.00000
     84       1.0611      0.00000
     85       1.1675      0.00000
     86       1.2979      0.00000
     87       1.4035      0.00000
     88       1.5114      0.00000

 k-point    15 :       0.0000    0.5000    0.4000
  band No.  band energies     occupation 
      1     -29.7177      2.00000
      2     -29.7177      2.00000
      3     -28.8901      2.00000
      4     -28.8901      2.00000
      5     -28.8160      2.00000
      6     -28.8160      2.00000
      7     -28.3536      2.00000
      8     -28.3536      2.00000
      9     -15.0106      2.00000
     10     -15.0106      2.00000
     11     -14.9472      2.00000
     12     -14.9472      2.00000
     13     -14.8790      2.00000
     14     -14.8790      2.00000
     15     -14.2084      2.00000
     16     -14.2084      2.00000
     17     -14.1967      2.00000
     18     -14.1967      2.00000
     19     -14.1371      2.00000
     20     -14.1371      2.00000
     21     -14.0832      2.00000
     22     -14.0832      2.00000
     23     -14.0313      2.00000
     24     -14.0313      2.00000
     25     -14.0243      2.00000
     26     -14.0243      2.00000
     27     -13.6487      2.00000
     28     -13.6487      2.00000
     29     -13.5931      2.00000
     30     -13.5931      2.00000
     31     -13.5707      2.00000
     32     -13.5707      2.00000
     33     -11.0033      2.00000
     34     -11.0033      2.00000
     35     -10.7040      2.00000
     36     -10.7040      2.00000
     37      -6.5419      2.00000
     38      -6.5419      2.00000
     39      -6.2511      2.00000
     40      -6.2510      2.00000
     41      -6.1671      2.00000
     42      -6.1670      2.00000
     43      -5.9731      2.00000
     44      -5.9730      2.00000
     45      -5.9346      2.00000
     46      -5.9345      2.00000
     47      -5.8052      2.00000
     48      -5.8052      2.00000
     49      -2.7403      2.00000
     50      -2.7402      2.00000
     51      -2.6274      2.00000
     52      -2.6274      2.00000
     53      -2.2097      2.00000
     54      -2.2097      2.00000
     55      -2.1731      2.00000
     56      -2.1731      2.00000
     57      -2.0205      2.00000
     58      -2.0205      2.00000
     59      -1.7905      2.00000
     60      -1.7905      2.00000
     61      -1.6178      2.00000
     62      -1.6178      2.00000
     63      -1.5800      2.00000
     64      -1.5800      2.00000
     65      -1.3495      2.00000
     66      -1.3495      2.00000
     67      -1.2032      2.00000
     68      -1.2032      2.00000
     69      -1.0257      2.00000
     70      -1.0257      2.00000
     71      -0.9180      2.00000
     72      -0.9180      2.00000
     73       0.1516      0.00000
     74       0.1516      0.00000
     75       0.3789      0.00000
     76       0.3789      0.00000
     77       0.6088      0.00000
     78       0.6088      0.00000
     79       0.7008      0.00000
     80       0.7008      0.00000
     81       0.8048      0.00000
     82       0.8048      0.00000
     83       1.0616      0.00000
     84       1.0616      0.00000
     85       1.2424      0.00000
     86       1.2425      0.00000
     87       1.3816      0.00000
     88       1.3818      0.00000


--------------------------------------------------------------------------------------------------------


 soft charge-density along one line, spin component           1
         0         1         2         3         4         5         6         7         8         9
 total charge-density along one line
 
 pseudopotential strength for first ion, spin component:           1
  4.877  -5.536  -0.000  -0.005  -0.021  -0.000  -0.005  -0.024
 -5.536  -2.772   0.000   0.001   0.002  -0.000  -0.001  -0.004
 -0.000   0.000  -6.751  -0.000  -0.000   1.895  -0.000  -0.000
 -0.005   0.001  -0.000  -6.746  -0.001  -0.000   1.906  -0.003
 -0.021   0.002  -0.000  -0.001  -6.747  -0.000  -0.003   1.905
 -0.000  -0.000   1.895  -0.000  -0.000   7.250  -0.000  -0.000
 -0.005  -0.001  -0.000   1.906  -0.003  -0.000   7.251  -0.000
 -0.024  -0.004  -0.000  -0.003   1.905  -0.000  -0.000   7.251
 -0.000   0.000  -0.013  -0.000  -0.000  -0.010  -0.000  -0.000
 -0.000   0.000  -0.000  -0.000  -0.000  -0.000  -0.000  -0.000
  0.002  -0.001   0.000  -0.005   0.007   0.000  -0.003   0.005
 -0.002   0.001  -0.000  -0.012  -0.002  -0.000  -0.009  -0.002
  0.003  -0.001   0.000  -0.001  -0.011   0.000  -0.001  -0.009
  0.000   0.000   0.001   0.000   0.000   0.000   0.000   0.000
  0.000   0.000   0.000   0.000   0.000  -0.000   0.000   0.000
 -0.000  -0.000  -0.000   0.000  -0.000  -0.000   0.000  -0.000
  0.000   0.000   0.000   0.001   0.000   0.000   0.000   0.000
 -0.000  -0.000  -0.000   0.000   0.001  -0.000   0.000   0.000
 total augmentation occupancy for first ion, spin component:           1
  2.113  -0.265   0.000   0.012   0.052   0.000  -0.005  -0.019   0.000   0.000   0.016  -0.007   0.033   0.000   0.000  -0.008
 -0.265   0.639   0.000  -0.030  -0.134   0.000   0.011   0.032   0.000  -0.000  -0.027   0.006  -0.064   0.000  -0.000   0.036
  0.000   0.000   2.014   0.000  -0.000  -0.016   0.000   0.000  -0.080   0.023   0.000   0.000   0.000   0.070  -0.043  -0.000
  0.012  -0.030   0.000   2.000   0.003   0.000  -0.007  -0.002   0.000   0.000  -0.044  -0.065  -0.014  -0.000   0.000   0.044
  0.052  -0.134   0.000   0.003   1.995  -0.000  -0.002  -0.005   0.000   0.000   0.033  -0.006  -0.050   0.000   0.000  -0.028
  0.000   0.000  -0.016   0.000  -0.000   0.008   0.000  -0.000   0.022  -0.009   0.000   0.000   0.000  -0.030   0.014   0.000
 -0.005   0.011   0.000  -0.007  -0.002   0.000   0.005   0.001   0.000   0.000   0.015   0.015   0.005   0.000   0.000  -0.022
 -0.019   0.032   0.000  -0.002  -0.005   0.000   0.001   0.004  -0.000   0.000  -0.006  -0.000   0.008   0.000   0.000   0.008
  0.000   0.000  -0.080   0.000  -0.000   0.022   0.000   0.000   0.150  -0.015   0.000   0.000  -0.000  -0.189   0.020   0.000
 -0.000   0.000   0.023   0.000   0.000  -0.009  -0.000   0.000  -0.015   0.068  -0.000   0.000   0.000   0.019  -0.085  -0.000
  0.016  -0.027   0.000  -0.044   0.033   0.000   0.015  -0.006   0.000  -0.000   0.119   0.052   0.020   0.000   0.000  -0.148
 -0.007   0.006   0.000  -0.065  -0.006   0.000   0.015  -0.000   0.000   0.000   0.052   0.088   0.007   0.000   0.000  -0.071
  0.033  -0.064   0.000  -0.014  -0.050   0.000   0.005   0.008   0.000   0.000   0.020   0.007   0.091   0.000   0.000  -0.027
  0.000   0.000   0.070   0.000   0.000  -0.030   0.000   0.000  -0.189   0.019   0.000   0.000   0.000   0.266  -0.034   0.000
  0.000   0.000  -0.043   0.000   0.000   0.014   0.000   0.000   0.020  -0.085   0.000   0.000   0.000  -0.034   0.115  -0.000
 -0.008   0.036   0.000   0.044  -0.028   0.000  -0.022   0.008   0.000  -0.000  -0.148  -0.071  -0.027  -0.000   0.000   0.205
  0.005  -0.023   0.000   0.056  -0.001   0.000  -0.022  -0.000   0.000   0.000  -0.069  -0.112  -0.010   0.000   0.000   0.107
 -0.024   0.077   0.000   0.022   0.043   0.000  -0.008  -0.012   0.000  -0.000  -0.028  -0.012  -0.121   0.000  -0.000   0.043


------------------------ aborting loop because EDIFF is reached ----------------------------------------


    CHARGE:  cpu time    0.1502: real time    0.1506
    FORLOC:  cpu time    0.0096: real time    0.0096
    FORNL :  cpu time    0.4984: real time    0.4996
    STRESS:  cpu time    1.4758: real time    1.4973
    FORCOR:  cpu time    2.4063: real time    2.4120
    FORHAR:  cpu time    0.0291: real time    0.0292
    MIXING:  cpu time    0.1303: real time    0.1307
    OFIELD:  cpu time    0.0000: real time    0.0000

  FORCE on cell =-STRESS in cart. coord.  units (eV):
  Direction    XX          YY          ZZ          XY          YZ          ZX
  --------------------------------------------------------------------------------------
  Alpha Z   170.45751   170.45751   170.45751
  Ewald  -18716.42541 15114.25588 14576.45222    -0.00002     0.00000   130.91444
  Hartree-15657.99426 16731.40010 16315.13277     0.00000    -0.00000   101.37894
  E(xc)    -465.98465  -467.09478  -467.20746    -0.00000     0.00000     0.03812
  Local   32958.86215-33282.34584-32320.34715     0.00001    -0.00000  -230.34979
  n-local   340.37294   340.00409   341.57545     0.06078    -0.21410    -1.17158
  augment  -167.30241  -167.74100  -167.69670    -0.00000    -0.00000     0.24963
  Kinetic  1526.73484  1548.00983  1538.81231    -0.05306    -0.83246    -0.78633
  Fock        0.00000     0.00000     0.00000     0.00000     0.00000     0.00000
  -------------------------------------------------------------------------------------
  Total     -11.27930   -13.05421   -12.82106     0.00000     0.00000     0.27342
  in kB      -9.57150   -11.07767   -10.87983     0.00000     0.00000     0.23202
  external pressure =      -10.51 kB  Pullay stress =        0.00 kB


 VOLUME and BASIS-vectors are now :
 -----------------------------------------------------------------------------
  energy-cutoff  :      500.00
  volume of cell :     1888.05
      direct lattice vectors                 reciprocal lattice vectors
    24.009468079  0.000000000  0.000000000     0.041650236  0.000000000  0.000000000
     0.000000000  6.777849674  0.000000000     0.000000000  0.147539419  0.000000000
     0.000000000  0.000000000 11.602143288     0.000000000  0.000000000  0.086190971

  length of vectors
    24.009468079  6.777849674 11.602143288     0.041650236  0.147539419  0.086190971


 FORCES acting on ions
    electron-ion (+dipol)            ewald-force                    non-local-force                 convergence-correction
 -----------------------------------------------------------------------------------------------
   0.761E+03 0.102E-04 0.423E+02   -.756E+03 0.983E-05 -.416E+02   -.404E+01 0.549E-19 -.759E+00   -.760E-04 -.188E-09 -.908E-05
   -.761E+03 -.632E-04 -.423E+02   0.756E+03 -.127E-04 0.416E+02   0.404E+01 0.868E-19 0.759E+00   0.760E-04 0.120E-09 0.908E-05
   0.877E+02 -.617E-04 -.366E+02   -.876E+02 -.172E-04 0.353E+02   0.283E+00 -.372E-19 0.125E+01   0.149E-04 0.238E-09 -.253E-04
   -.877E+02 0.106E-04 0.366E+02   0.876E+02 0.124E-04 -.353E+02   -.283E+00 0.161E-18 -.125E+01   -.149E-04 -.303E-09 0.253E-04
   0.608E+03 -.615E-04 -.474E+02   -.606E+03 -.162E-04 0.478E+02   -.163E+01 0.858E-18 -.375E+00   -.252E-05 0.166E-09 -.693E-04
   -.608E+03 0.894E-05 0.474E+02   0.606E+03 0.141E-04 -.478E+02   0.163E+01 -.464E-18 0.375E+00   0.252E-05 -.231E-09 0.693E-04
   0.348E+03 0.113E-04 -.864E+01   -.347E+03 0.129E-04 0.804E+01   -.275E+00 0.162E-17 0.596E+00   0.256E-04 -.295E-09 -.783E-05
   -.348E+03 -.622E-04 0.864E+01   0.347E+03 -.132E-04 -.804E+01   0.275E+00 -.160E-17 -.596E+00   -.256E-04 0.241E-09 0.785E-05
   0.269E+03 0.348E+02 -.451E+02   -.269E+03 -.368E+02 0.462E+02   -.931E-01 0.201E+01 -.105E+01   0.453E-04 0.206E-04 -.860E-05
   -.269E+03 -.348E+02 0.451E+02   0.269E+03 0.368E+02 -.462E+02   0.931E-01 -.201E+01 0.105E+01   -.453E-04 -.206E-04 0.860E-05
   0.115E+03 -.313E+02 0.128E+01   -.114E+03 0.330E+02 0.539E-01   -.214E-01 -.165E+01 -.133E+01   -.201E-04 -.373E-04 -.136E-04
   -.115E+03 0.313E+02 -.128E+01   0.114E+03 -.330E+02 -.539E-01   0.214E-01 0.165E+01 0.133E+01   0.201E-04 0.373E-04 0.136E-04
   -.269E+03 0.348E+02 0.451E+02   0.269E+03 -.368E+02 -.462E+02   0.931E-01 0.201E+01 0.105E+01   -.453E-04 0.206E-04 0.860E-05
   0.269E+03 -.348E+02 -.451E+02   -.269E+03 0.368E+02 0.462E+02   -.931E-01 -.201E+01 -.105E+01   0.453E-04 -.206E-04 -.860E-05
   -.115E+03 -.313E+02 -.128E+01   0.114E+03 0.330E+02 -.539E-01   0.214E-01 -.165E+01 0.133E+01   0.201E-04 -.373E-04 0.136E-04
   0.115E+03 0.313E+02 0.128E+01   -.114E+03 -.330E+02 0.539E-01   -.214E-01 0.165E+01 -.133E+01   -.201E-04 0.373E-04 -.136E-04
   0.322E+03 -.346E-05 0.453E+02   -.324E+03 -.608E-05 -.458E+02   0.164E+01 -.961E-18 0.465E+00   0.216E-04 0.859E-10 0.187E-04
   -.322E+03 0.540E-05 -.453E+02   0.324E+03 0.626E-05 0.458E+02   -.164E+01 -.128E-17 -.465E+00   -.216E-04 -.674E-10 -.187E-04
   0.338E+02 0.840E-05 -.937E+01   -.315E+02 0.735E-05 0.878E+01   -.181E+01 0.536E-19 0.588E+00   -.263E-05 -.975E-10 0.102E-04
   -.338E+02 -.364E-05 0.937E+01   0.315E+02 -.704E-05 -.878E+01   0.181E+01 -.600E-19 -.588E+00   0.264E-05 0.111E-09 -.102E-04
   0.233E+03 0.426E-05 0.132E+02   -.233E+03 0.800E-05 -.150E+02   -.400E-01 0.695E-18 0.178E+01   0.216E-04 -.805E-10 0.108E-04
   -.233E+03 -.709E-05 -.132E+02   0.233E+03 -.805E-05 0.150E+02   0.400E-01 -.312E-18 -.178E+01   -.216E-04 0.997E-10 -.108E-04
   0.151E+03 -.620E-05 0.558E+02   -.150E+03 -.748E-05 -.580E+02   -.715E+00 0.961E-17 0.224E+01   -.141E-04 0.112E-09 0.558E-04
   -.151E+03 0.346E-05 -.558E+02   0.150E+03 0.732E-05 0.580E+02   0.715E+00 0.848E-17 -.224E+01   0.141E-04 -.953E-10 -.558E-04
 -----------------------------------------------------------------------------------------------
   0.280E-03 -.218E-03 0.734E-04   0.227E-12 0.221E-13 0.213E-13   0.000E+00 0.162E-16 0.000E+00   0.231E-07 -.155E-09 -.567E-08
 
 
 POSITION                                       TOTAL-FORCE (eV/Angst)
 -----------------------------------------------------------------------------------
      0.13670      1.69446      8.15833         0.755747      0.000000      0.000372
      9.37277      5.08339      3.44381        -0.755747     -0.000000     -0.000372
      4.36803      5.08339      2.15170         0.438094     -0.000000     -0.000045
      5.14143      1.69446      9.45045        -0.438094     -0.000000      0.000045
      1.43529      5.08339     10.60862         0.647804      0.000000     -0.000823
      8.07418      1.69446      0.99352        -0.647804     -0.000000      0.000823
      3.06944      1.69446      4.60926         0.505642      0.000000     -0.000437
      6.44002      5.08339      6.99289        -0.505642     -0.000000      0.000437
      1.75027      0.48679      1.65438        -0.142043      0.000198      0.000388
      7.75920      6.29106      9.94776         0.142043     -0.000198     -0.000388
      2.75446      6.30486      7.64332         0.342365     -0.000261     -0.000101
      6.75500      0.47299      3.95883        -0.342365      0.000261      0.000101
      7.75920      3.87572      9.94776         0.142043      0.000198     -0.000388
      1.75027      2.90213      1.65438        -0.142043     -0.000198      0.000388
      6.75500      2.91594      3.95883        -0.342365     -0.000261      0.000101
      2.75446      3.86191      7.64332         0.342365      0.000261     -0.000101
      0.74693      5.08339      6.94533        -0.327824     -0.000000     -0.000334
      8.76254      1.69446      4.65681         0.327824      0.000000      0.000334
      3.75780      1.69446      0.92437         0.405473     -0.000000      0.001053
      5.75166      5.08339     10.67777        -0.405473      0.000000     -0.001053
      1.78112      1.69446     11.12685        -0.181891      0.000000     -0.000242
      7.72835      5.08339      0.47530         0.181891     -0.000000      0.000242
      2.72362      5.08339      5.51607        -0.092215      0.000000      0.000037
      6.78585      1.69446      6.08607         0.092215     -0.000000     -0.000037
 -----------------------------------------------------------------------------------
    total drift:                                0.000280     -0.000218      0.000073


--------------------------------------------------------------------------------------------------------



  FREE ENERGIE OF THE ION-ELECTRON SYSTEM (eV)
  ---------------------------------------------------
  free  energy   TOTEN  =       -92.00199219 eV

  energy  without entropy=      -92.00199219  energy(sigma->0) =      -92.00199219
 


--------------------------------------------------------------------------------------------------------


    POTLOK:  cpu time    2.7228: real time    2.7310


--------------------------------------------------------------------------------------------------------


 writing wavefunctions
     LOOP+:  cpu time14147.9623: real time14185.9729
    4ORBIT:  cpu time    0.0000: real time    0.0000
 BZINTS: Fermi energy: -0.583598;144.000000 electrons
         Band energy:***********;  BLOECHL correction:  0.000000

 total amount of memory used by VASP MPI-rank0    79352. kBytes
=======================================================================

   base      :      30000. kBytes
   nonlr-proj:       2646. kBytes
   fftplans  :       5898. kBytes
   grid      :       8824. kBytes
   one-center:         93. kBytes
   wavefun   :      31891. kBytes
 
  
  
 General timing and accounting informations for this job:
 ========================================================
  
                  Total CPU time used (sec):    14156.543
                            User time (sec):    14138.415
                          System time (sec):       18.128
                         Elapsed time (sec):    14198.689
  
                   Maximum memory used (kb):      308064.
                   Average memory used (kb):           0.
  
                          Minor page faults:       132448
                          Major page faults:          259
                 Voluntary context switches:        15085
