 vasp.5.4.4.18Apr17-6-g9f103f2a35 (build Nov 21 2017 15:30:27) complex          
  
 executed on             LinuxIFC date 2020.09.15  16:20:18
 running on   64 total cores
 distrk:  each k-point on   32 cores,    2 groups
 distr:  one band on NCORES_PER_BAND=   4 cores,    8 groups


--------------------------------------------------------------------------------------------------------


 INCAR:
 POTCAR:   PAW_PBE Ba_sv 06Sep2000                
 POTCAR:   PAW_PBE Si 05Jan2001                   

 ----------------------------------------------------------------------------- 
|                                                                             |
|           W    W    AA    RRRRR   N    N  II  N    N   GGGG   !!!           |
|           W    W   A  A   R    R  NN   N  II  NN   N  G    G  !!!           |
|           W    W  A    A  R    R  N N  N  II  N N  N  G       !!!           |
|           W WW W  AAAAAA  RRRRR   N  N N  II  N  N N  G  GGG   !            |
|           WW  WW  A    A  R   R   N   NN  II  N   NN  G    G                |
|           W    W  A    A  R    R  N    N  II  N    N   GGGG   !!!           |
|                                                                             |
|      You have enabled k-point parallelism (KPAR>1).                         |
|      This developmental code was originally  written by Paul Kent at ORNL,  |
|      and carefully double checked in Vienna.                                |
|      GW as well as linear response parallelism added by Martijn Marsman     |
|      and Georg Kresse.                                                      |
|      Carefully verify results versus KPAR=1.                                |
|      Report problems to Paul Kent and Vienna.                               |
|                                                                             |
 ----------------------------------------------------------------------------- 


 ----------------------------------------------------------------------------- 
|                                                                             |
|  ADVICE TO THIS USER RUNNING 'VASP/VAMP'   (HEAR YOUR MASTER'S VOICE ...):  |
|                                                                             |
|      You have switched on vdW-DFT.                                          |
|      This routine was written and supplied by Jiri Klimes.                  |
|      We recommed that you carefully read and cite the following             |
|      publication                                                            |
|      J. Klimes, D.R. Bowler, A. Michelides                                  |
|        J. Phys.: Cond Matt. 22 022201 (2010)                                |
|      J. Klimes, D.R. Bowler, A. Michelides                                  |
|        Phys. Rev. B. 83, 195131 (2011)                                      |
|      and references therein.                                                |
|                                                                             |
 ----------------------------------------------------------------------------- 

 POTCAR:   PAW_PBE Ba_sv 06Sep2000                
   VRHFIN =Ba: 5s5p6s                                                           
   LEXCH  = PE                                                                  
   EATOM  =   700.2255 eV,   51.4651 Ry                                         
                                                                                
   TITEL  = PAW_PBE Ba_sv 06Sep2000                                             
   LULTRA =        F    use ultrasoft PP ?                                      
   IUNSCR =        1    unscreen: 0-lin 1-nonlin 2-no                           
   RPACOR =    2.400    partial core radius                                     
   POMASS =  137.327; ZVAL   =   10.000    mass and valenz                      
   RCORE  =    2.800    outmost cutoff radius                                   
   RWIGS  =    3.740; RWIGS  =    1.979    wigner-seitz radius (au A)           
   ENMAX  =  187.210; ENMIN  =  140.408 eV                                      
   RCLOC  =    2.516    cutoff for local pot                                    
   LCOR   =        T    correct aug charges                                     
   LPAW   =        T    paw PP                                                  
   EAUG   =  351.165                                                            
   DEXC   =     .000                                                            
   RMAX   =    3.370    core radius for proj-oper                               
   RAUG   =    1.300    factor for augmentation sphere                          
   RDEP   =    2.976    radius for radial grids                                 
   QCUT   =   -3.709; QGAM   =    7.419    optimization parameters              
                                                                                
   Description                                                                  
     l     E      TYP  RCUT    TYP  RCUT                                        
     0   .000     23  2.800                                                     
     0   .000     23  2.800                                                     
     1   .000     23  2.700                                                     
     1  2.000     23  2.700                                                     
     2   .000     23  2.700                                                     
     2   .000     23  2.700                                                     
  local pseudopotential read in
  partial core-charges read in
  atomic valenz-charges read in
  non local Contribution for L=           0  read in
    real space projection operators read in
  non local Contribution for L=           0  read in
    real space projection operators read in
  non local Contribution for L=           1  read in
    real space projection operators read in
  non local Contribution for L=           1  read in
    real space projection operators read in
  non local Contribution for L=           2  read in
    real space projection operators read in
  non local Contribution for L=           2  read in
    real space projection operators read in
    PAW grid and wavefunctions read in
 
   number of l-projection  operators is LMAX  =           6
   number of lm-projection operators is LMMAX =          18
 
 POTCAR:   PAW_PBE Si 05Jan2001                   
   VRHFIN =Si: s2p2                                                             
   LEXCH  = PE                                                                  
   EATOM  =   103.0669 eV,    7.5752 Ry                                         
                                                                                
   TITEL  = PAW_PBE Si 05Jan2001                                                
   LULTRA =        F    use ultrasoft PP ?                                      
   IUNSCR =        1    unscreen: 0-lin 1-nonlin 2-no                           
   RPACOR =    1.500    partial core radius                                     
   POMASS =   28.085; ZVAL   =    4.000    mass and valenz                      
   RCORE  =    1.900    outmost cutoff radius                                   
   RWIGS  =    2.480; RWIGS  =    1.312    wigner-seitz radius (au A)           
   ENMAX  =  245.345; ENMIN  =  184.009 eV                                      
   ICORE  =        2    local potential                                         
   LCOR   =        T    correct aug charges                                     
   LPAW   =        T    paw PP                                                  
   EAUG   =  322.069                                                            
   DEXC   =    -.007                                                            
   RMAX   =    2.944    core radius for proj-oper                               
   RAUG   =    1.300    factor for augmentation sphere                          
   RDEP   =    1.993    radius for radial grids                                 
   QCUT   =   -4.246; QGAM   =    8.493    optimization parameters              
                                                                                
   Description                                                                  
     l     E      TYP  RCUT    TYP  RCUT                                        
     0   .000     23  1.900                                                     
     0   .000     23  1.900                                                     
     1   .000     23  1.900                                                     
     1   .000     23  1.900                                                     
     2   .000      7  1.900                                                     
  local pseudopotential read in
  partial core-charges read in
  atomic valenz-charges read in
  non local Contribution for L=           0  read in
    real space projection operators read in
  non local Contribution for L=           0  read in
    real space projection operators read in
  non local Contribution for L=           1  read in
    real space projection operators read in
  non local Contribution for L=           1  read in
    real space projection operators read in
    PAW grid and wavefunctions read in
 
   number of l-projection  operators is LMAX  =           4
   number of lm-projection operators is LMMAX =           8
 
 Optimization of the real space projectors (new method)

 maximal supplied QI-value         = 13.42
 optimisation between [QCUT,QGAM] = [ 11.40, 22.81] = [ 36.42,145.68] Ry 
 Optimized for a Real-space Cutoff    1.56 Angstroem

   l    n(q)    QCUT    max X(q) W(low)/X(q) W(high)/X(q)  e(spline) 
   0     11    11.404     7.198    0.14E-04    0.26E-04    0.99E-07
   0     11    11.404    15.603    0.29E-04    0.72E-04    0.44E-06
   1     10    11.404     3.746    0.20E-04    0.24E-04    0.43E-07
   1     10    11.404     4.362    0.22E-03    0.97E-04    0.22E-06
   2     10    11.404     5.782    0.83E-04    0.62E-05    0.27E-06
   2     10    11.404    65.505    0.42E-03    0.31E-04    0.12E-05
 Optimization of the real space projectors (new method)

 maximal supplied QI-value         = 19.84
 optimisation between [QCUT,QGAM] = [ 11.31, 22.82] = [ 35.82,145.81] Ry 
 Optimized for a Real-space Cutoff    1.16 Angstroem

   l    n(q)    QCUT    max X(q) W(low)/X(q) W(high)/X(q)  e(spline) 
   0      8    11.310     8.708    0.14E-04    0.11E-04    0.43E-08
   0      8    11.310   106.241    0.27E-03    0.30E-03    0.38E-07
   1      7    11.310     5.901    0.82E-05    0.48E-04    0.19E-07
   1      7    11.310    73.241    0.27E-03    0.27E-03    0.74E-07

 ----------------------------------------------------------------------------- 
|                                                                             |
|  ADVICE TO THIS USER RUNNING 'VASP/VAMP'   (HEAR YOUR MASTER'S VOICE ...):  |
|                                                                             |
|      You enforced a specific xc-type in the INCAR file,                     |
|      a different type was found on the POTCAR file                          |
|          I HOPE YOU KNOW, WHAT YOU ARE  DOING                               |
|                                                                             |
 ----------------------------------------------------------------------------- 

 PAW_PBE Ba_sv 06Sep2000                :
 energy of atom  1       EATOM= -700.2255
 kinetic energy error for atom=    0.0005 (will be added to EATOM!!)
 PAW_PBE Si 05Jan2001                   :
 energy of atom  2       EATOM= -103.0669
 kinetic energy error for atom=    0.0006 (will be added to EATOM!!)
 
 
 POSCAR: ba8 si16                                
  positions in direct lattice
  velocities in cartesian coordinates
 exchange correlation table for  LEXCH =       42
   RHO(1)=    0.500       N(1)  =     2000
   RHO(2)=  100.500       N(2)  =     4000
 


--------------------------------------------------------------------------------------------------------


 ion  position               nearest neighbor table
   1  0.006  0.250  0.706-  21 3.41  16 3.45  11 3.45  17 3.66  17 3.66   5 4.39   5 4.39   7 4.60

   2  0.374  0.750  0.294-  22 3.41  12 3.45  15 3.45  18 3.66  18 3.66   6 4.39   6 4.39   8 4.60

   3  0.182  0.750  0.188-  20 3.32  22 3.44   9 3.44  14 3.44  12 3.45  15 3.45  19 3.64  19 3.64
                            23 3.72   5 4.29   7 4.38   7 4.38
   4  0.197  0.250  0.812-  19 3.32  21 3.44  13 3.44  10 3.44  16 3.45  11 3.45  20 3.64  20 3.64
                            24 3.72   6 4.29   8 4.38   8 4.38
   5  0.060  0.750  0.918-   9 3.44  14 3.44  21 3.45  21 3.45  11 3.51  16 3.51  17 3.77  20 3.92
                             3 4.29   1 4.39   1 4.39
   6  0.320  0.250  0.082-  13 3.44  10 3.44  22 3.45  22 3.45  15 3.51  12 3.51  18 3.77  19 3.92
                             4 4.29   2 4.39   2 4.39
   7  0.128  0.250  0.400-  14 3.44   9 3.44  23 3.52  23 3.52  15 3.57  12 3.57  24 3.62  19 3.71
                            16 3.72  11 3.72   3 4.38   3 4.38   1 4.60
   8  0.252  0.750  0.600-  10 3.44  13 3.44  24 3.52  24 3.52  11 3.57  16 3.57  23 3.62  20 3.71
                            12 3.72  15 3.72   4 4.38   4 4.38   2 4.60
   9  0.073  0.072  0.146-  14 2.42  21 2.44  19 2.45   3 3.44   7 3.44   5 3.44
  10  0.307  0.928  0.854-  13 2.42  22 2.44  20 2.45   4 3.44   8 3.44   6 3.44
  11  0.115  0.929  0.658-  16 2.43  23 2.44  17 2.45   1 3.45   4 3.45   5 3.51   8 3.57   7 3.72

  12  0.265  0.071  0.342-  15 2.43  24 2.44  18 2.45   2 3.45   3 3.45   6 3.51   7 3.57   8 3.72

  13  0.307  0.572  0.854-  10 2.42  22 2.44  20 2.45   4 3.44   8 3.44   6 3.44
  14  0.073  0.428  0.146-   9 2.42  21 2.44  19 2.45   3 3.44   7 3.44   5 3.44
  15  0.265  0.429  0.342-  12 2.43  24 2.44  18 2.45   2 3.45   3 3.45   6 3.51   7 3.57   8 3.72

  16  0.115  0.571  0.658-  11 2.43  23 2.44  17 2.45   1 3.45   4 3.45   5 3.51   8 3.57   7 3.72

  17  0.031  0.750  0.598-  23 2.44  11 2.45  16 2.45   1 3.66   1 3.66   5 3.77
  18  0.348  0.250  0.402-  24 2.44  15 2.45  12 2.45   2 3.66   2 3.66   6 3.77
  19  0.157  0.250  0.085-  21 2.43  14 2.45   9 2.45   4 3.32   3 3.64   3 3.64   7 3.71   6 3.92

  20  0.223  0.750  0.915-  22 2.43  10 2.45  13 2.45   3 3.32   4 3.64   4 3.64   8 3.71   5 3.92

  21  0.074  0.250  0.963-  19 2.43  14 2.44   9 2.44   1 3.41   4 3.44   5 3.45   5 3.45
  22  0.305  0.750  0.037-  20 2.43  10 2.44  13 2.44   2 3.41   3 3.44   6 3.45   6 3.45
  23  0.113  0.750  0.475-  17 2.44  11 2.44  16 2.44   7 3.52   7 3.52   8 3.62   3 3.72
  24  0.266  0.250  0.525-  18 2.44  15 2.44  12 2.44   8 3.52   8 3.52   7 3.62   4 3.72
 
  LATTYP: Found a simple orthorhombic cell.
 ALAT       =     6.7778496742
 B/A-ratio  =     1.7117734747
 C/A-ratio  =     3.5423429602
  
  Lattice vectors:
  
 A1 = (   0.0000000000,   6.7778496742,   0.0000000000)
 A2 = (   0.0000000000,   0.0000000000, -11.6021432877)
 A3 = ( -24.0094680786,   0.0000000000,   0.0000000000)


Analysis of symmetry for initial positions (statically):
=====================================================================
 Subroutine PRICEL returns:
 Original cell was already a primitive cell.
 

 Routine SETGRP: Setting up the symmetry group for a 
 simple orthorhombic supercell.


 Subroutine GETGRP returns: Found  4 space group operations
 (whereof  1 operations were pure point group operations)
 out of a pool of  8 trial point group operations.


The static configuration has the point symmetry C_1 .
 The point group associated with its full space group is C_2h.


Analysis of symmetry for dynamics (positions and initial velocities):
=====================================================================
 Subroutine PRICEL returns:
 Original cell was already a primitive cell.
 

 Routine SETGRP: Setting up the symmetry group for a 
 simple orthorhombic supercell.


 Subroutine GETGRP returns: Found  4 space group operations
 (whereof  1 operations were pure point group operations)
 out of a pool of  8 trial point group operations.


The dynamic configuration has the point symmetry C_1 .
 The point group associated with its full space group is C_2h.


Analysis of constrained symmetry for selective dynamics:
=====================================================================
 Subroutine PRICEL returns:
 Original cell was already a primitive cell.
 

 Routine SETGRP: Setting up the symmetry group for a 
 simple orthorhombic supercell.


 Subroutine GETGRP returns: Found  4 space group operations
 (whereof  1 operations were pure point group operations)
 out of a pool of  8 trial point group operations.


The constrained configuration has the point symmetry C_1 .
 The point group associated with its full space group is C_2h.


 Subroutine INISYM returns: Found  4 space group operations
 (whereof  1 operations are pure point group operations),
 and found     1 'primitive' translations

 
 
 KPOINTS: k-density: 8.0                          

Automatic generation of k-mesh.
Space group operators:
 irot       det(A)        alpha          n_x          n_y          n_z        tau_x        tau_y        tau_z
    1     1.000000     0.000000     1.000000     0.000000     0.000000     0.000000     0.000000     0.000000
    2    -1.000000     0.000000     1.000000     0.000000     0.000000    -0.620589     0.000000     0.000000
    3     1.000000   180.000000     0.000000     1.000000     0.000000    -0.620589     0.500000     0.000000
    4    -1.000000   180.000000     0.000000     1.000000     0.000000     0.000000     0.500000     0.000000
 
 Subroutine IBZKPT returns following result:
 ===========================================
 
 Found     15 irreducible k-points:
 
 Following reciprocal coordinates:
            Coordinates               Weight
  0.000000  0.000000  0.000000      1.000000
  0.000000  0.125000  0.000000      2.000000
  0.000000  0.250000  0.000000      2.000000
  0.000000  0.375000  0.000000      2.000000
  0.000000  0.500000  0.000000      1.000000
  0.000000  0.000000  0.200000      2.000000
  0.000000  0.125000  0.200000      4.000000
  0.000000  0.250000  0.200000      4.000000
  0.000000  0.375000  0.200000      4.000000
  0.000000  0.500000  0.200000      2.000000
  0.000000  0.000000  0.400000      2.000000
  0.000000  0.125000  0.400000      4.000000
  0.000000  0.250000  0.400000      4.000000
  0.000000  0.375000  0.400000      4.000000
  0.000000  0.500000  0.400000      2.000000
 
 Following cartesian coordinates:
            Coordinates               Weight
  0.000000  0.000000  0.000000      1.000000
  0.000000  0.018442  0.000000      2.000000
  0.000000  0.036885  0.000000      2.000000
  0.000000  0.055327  0.000000      2.000000
  0.000000  0.073770  0.000000      1.000000
  0.000000  0.000000  0.017238      2.000000
  0.000000  0.018442  0.017238      4.000000
  0.000000  0.036885  0.017238      4.000000
  0.000000  0.055327  0.017238      4.000000
  0.000000  0.073770  0.017238      2.000000
  0.000000  0.000000  0.034476      2.000000
  0.000000  0.018442  0.034476      4.000000
  0.000000  0.036885  0.034476      4.000000
  0.000000  0.055327  0.034476      4.000000
  0.000000  0.073770  0.034476      2.000000
 
 TETIRR: Found    108 inequivalent tetrahedra from      240


--------------------------------------------------------------------------------------------------------




 Dimension of arrays:
   k-points           NKPTS =     15   k-points in BZ     NKDIM =     15   number of bands    NBANDS=     88
   number of dos      NEDOS =    301   number of ions     NIONS =     24
   non local maximal  LDIM  =      6   non local SUM 2l+1 LMDIM =     18
   total plane-waves  NPLWV = 358400
   max r-space proj   IRMAX =   3093   max aug-charges    IRDMAX=  12081
   dimension x,y,z NGX =   140 NGY =   40 NGZ =   64
   dimension x,y,z NGXF=   280 NGYF=   80 NGZF=  128
   support grid    NGXF=   280 NGYF=   80 NGZF=  128
   ions per type =               8  16
   NGX,Y,Z   is equivalent  to a cutoff of   9.69,  9.81,  9.17 a.u.
   NGXF,Y,Z  is equivalent  to a cutoff of  19.39, 19.62, 18.34 a.u.

 SYSTEM =  unknown system                          
 POSCAR =  ba8 si16                                

 Startparameter for this run:
   NWRITE =      2    write-flag & timer
   PREC   = normal    normal or accurate (medium, high low for compatibility)
   ISTART =      0    job   : 0-new  1-cont  2-samecut
   ICHARG =      2    charge: 1-file 2-atom 10-const
   ISPIN  =      1    spin polarized calculation?
   LNONCOLLINEAR =      F non collinear calculations
   LSORBIT =      F    spin-orbit coupling
   INIWAV =      1    electr: 0-lowe 1-rand  2-diag
   LASPH  =      T    aspherical Exc in radial PAW
   METAGGA=      F    non-selfconsistent MetaGGA calc.

 Electronic Relaxation 1
   ENCUT  =  500.0 eV  36.75 Ry    6.06 a.u.  43.77 12.36 21.15*2*pi/ulx,y,z
   ENINI  =  500.0     initial cutoff
   ENAUG  =  351.2 eV  augmentation charge cutoff
   NELM   =    100;   NELMIN=  2; NELMDL= -5     # of ELM steps 
   EDIFF  = 0.1E-05   stopping-criterion for ELM
   LREAL  =      T    real-space projection
   NLSPLINE    = F    spline interpolate recip. space projectors
   LCOMPAT=      F    compatible to vasp.4.4
   GGA_COMPAT  = T    GGA compatible to vasp.4.4-vasp.4.6
   LMAXPAW     = -100 max onsite density
   LMAXMIX     =    2 max onsite mixed and CHGCAR
   VOSKOWN=      0    Vosko Wilk Nusair interpolation
   ROPT   =   -0.00050  -0.00050
 Ionic relaxation
   EDIFFG = -.1E-02   stopping-criterion for IOM
   NSW    =      0    number of steps for IOM
   NBLOCK =      1;   KBLOCK =      1    inner block; outer block 
   IBRION =     -1    ionic relax: 0-MD 1-quasi-New 2-CG
   NFREE  =      0    steps in history (QN), initial steepest desc. (CG)
   ISIF   =      2    stress and relaxation
   IWAVPR =     10    prediction:  0-non 1-charg 2-wave 3-comb
   ISYM   =      2    0-nonsym 1-usesym 2-fastsym
   LCORR  =      T    Harris-Foulkes like correction to forces

   POTIM  = 0.3000    time-step for ionic-motion
   TEIN   =    0.0    initial temperature
   TEBEG  =    0.0;   TEEND  =   0.0 temperature during run
   SMASS  =  -3.00    Nose mass-parameter (am)
   estimated Nose-frequenzy (Omega)   =  0.10E-29 period in steps =****** mass=  -0.132E-25a.u.
   SCALEE = 1.0000    scale energy and forces
   NPACO  =    256;   APACO  = 16.0  distance and # of slots for P.C.
   PSTRESS=    0.0 pullay stress

  Mass of Ions in am
   POMASS = 137.33 28.09
  Ionic Valenz
   ZVAL   =  10.00  4.00
  Atomic Wigner-Seitz radii
   RWIGS  =  -1.00 -1.00
  virtual crystal weights 
   VCA    =   1.00  1.00
   NELECT =     144.0000    total number of electrons
   NUPDOWN=      -1.0000    fix difference up-down

 DOS related values:
   EMIN   =  10.00;   EMAX   =-10.00  energy-range for DOS
   EFERMI =   0.00
   ISMEAR =    -5;   SIGMA  =   0.01  broadening in eV -4-tet -1-fermi 0-gaus

 Electronic relaxation 2 (details)
   IALGO  =     38    algorithm
   LDIAG  =      T    sub-space diagonalisation (order eigenvalues)
   LSUBROT=      F    optimize rotation matrix (better conditioning)
   TURBO    =      0    0=normal 1=particle mesh
   IRESTART =      0    0=no restart 2=restart with 2 vectors
   NREBOOT  =      0    no. of reboots
   NMIN     =      0    reboot dimension
   EREF     =   0.00    reference energy to select bands
   IMIX   =      4    mixing-type and parameters
     AMIX     =   0.40;   BMIX     =  1.00
     AMIX_MAG =   1.60;   BMIX_MAG =  1.00
     AMIN     =   0.10
     WC   =   100.;   INIMIX=   1;  MIXPRE=   1;  MAXMIX= -45

 Intra band minimization:
   WEIMIN = 0.0000     energy-eigenvalue tresh-hold
   EBREAK =  0.28E-08  absolut break condition
   DEPER  =   0.30     relativ break condition  

   TIME   =   0.40     timestep for ELM

  volume/ion in A,a.u.               =      78.67       530.88
  Fermi-wavevector in a.u.,A,eV,Ry     =   0.694264  1.311969  6.558046  0.482003
  Thomas-Fermi vector in A             =   1.776709
 
 Write flags
   LWAVE        =      T    write WAVECAR
   LDOWNSAMPLE  =      F    k-point downsampling of WAVECAR
   LCHARG       =      T    write CHGCAR
   LVTOT        =      F    write LOCPOT, total local potential
   LVHAR        =      F    write LOCPOT, Hartree potential only
   LELF         =      F    write electronic localiz. function (ELF)
   LORBIT       =      0    0 simple, 1 ext, 2 COOP (PROOUT), +10 PAW based schemes


 Dipole corrections
   LMONO  =      F    monopole corrections only (constant potential shift)
   LDIPOL =      F    correct potential (dipole corrections)
   IDIPOL =      0    1-x, 2-y, 3-z, 4-all directions 
   EPSILON=  1.0000000 bulk dielectric constant

 Exchange correlation treatment:
   GGA     =    BO    GGA type
   LEXCH   =    42    internal setting for exchange type
   VOSKOWN=      0    Vosko Wilk Nusair interpolation
   LHFCALC =     F    Hartree Fock is set to
   LHFONE  =     F    Hartree Fock one center treatment
   AEXX    =    0.0000 exact exchange contribution

 vdW DFT:
   LUSE_VDW   =     T    switch on vdW DFT
   Zab_VDW    =-.8491    correlation parameter
   PARAM1     =0.1833
   PARAM2     =0.2200
   PARAM3     =0.0000
   -- rVV10 --
   BPARAM     = 6.3000
   CPARAM     = 0.0093

 Linear response parameters
   LEPSILON=     F    determine dielectric tensor
   LRPA    =     F    only Hartree local field effects (RPA)
   LNABLA  =     F    use nabla operator in PAW spheres
   LVEL    =     F    velocity operator in full k-point grid
   LINTERFAST=   F  fast interpolation
   KINTER  =     0    interpolate to denser k-point grid
   CSHIFT  =0.1000    complex shift for real part using Kramers Kronig
   OMEGAMAX=  -1.0    maximum frequency
   DEG_THRESHOLD= 0.2000000E-02 threshold for treating states as degnerate
   RTIME   =   -0.100 relaxation time in fs
  (WPLASMAI=    0.000 imaginary part of plasma frequency in eV, 0.658/RTIME)
   DFIELD  = 0.0000000 0.0000000 0.0000000 field for delta impulse in time
 
 Orbital magnetization related:
   ORBITALMAG=     F  switch on orbital magnetization
   LCHIMAG   =     F  perturbation theory with respect to B field
   DQ        =  0.001000  dq finite difference perturbation B field
   LLRAUG    =     F  two centre corrections for induced B field



--------------------------------------------------------------------------------------------------------


 Static calculation
 charge density and potential will be updated during run
 non-spin polarized calculation
 Variant of blocked Davidson
 Davidson routine will perform the subspace rotation
 perform sub-space diagonalisation
    after iterative eigenvector-optimisation
 modified Broyden-mixing scheme, WC =      100.0
 initial mixing is a Kerker type mixing with AMIX =  0.4000 and BMIX =      1.0000
 Hartree-type preconditioning will be used
 using additional bands           16
 real space projection scheme for non local part
 use partial core corrections
 calculate Harris-corrections to forces 
   (improved forces if not selfconsistent)
 use gradient corrections 
 use of overlap-Matrix (Vanderbilt PP)
 Fermi weights with tetrahedron method with Bloechl corrections


--------------------------------------------------------------------------------------------------------


  energy-cutoff  :      500.00
  volume of cell :     1888.05
      direct lattice vectors                 reciprocal lattice vectors
    24.009468079  0.000000000  0.000000000     0.041650236  0.000000000  0.000000000
     0.000000000  6.777849674  0.000000000     0.000000000  0.147539419  0.000000000
     0.000000000  0.000000000 11.602143288     0.000000000  0.000000000  0.086190971

  length of vectors
    24.009468079  6.777849674 11.602143288     0.041650236  0.147539419  0.086190971


 
 k-points in units of 2pi/SCALE and weight: k-density: 8.0                          
   0.00000000  0.00000000  0.00000000       0.025
   0.00000000  0.01844243  0.00000000       0.050
   0.00000000  0.03688485  0.00000000       0.050
   0.00000000  0.05532728  0.00000000       0.050
   0.00000000  0.07376971  0.00000000       0.025
   0.00000000  0.00000000  0.01723819       0.050
   0.00000000  0.01844243  0.01723819       0.100
   0.00000000  0.03688485  0.01723819       0.100
   0.00000000  0.05532728  0.01723819       0.100
   0.00000000  0.07376971  0.01723819       0.050
   0.00000000  0.00000000  0.03447639       0.050
   0.00000000  0.01844243  0.03447639       0.100
   0.00000000  0.03688485  0.03447639       0.100
   0.00000000  0.05532728  0.03447639       0.100
   0.00000000  0.07376971  0.03447639       0.050
 
 k-points in reciprocal lattice and weights: k-density: 8.0                          
   0.00000000  0.00000000  0.00000000       0.025
   0.00000000  0.12500000  0.00000000       0.050
   0.00000000  0.25000000  0.00000000       0.050
   0.00000000  0.37500000  0.00000000       0.050
   0.00000000  0.50000000  0.00000000       0.025
   0.00000000  0.00000000  0.20000000       0.050
   0.00000000  0.12500000  0.20000000       0.100
   0.00000000  0.25000000  0.20000000       0.100
   0.00000000  0.37500000  0.20000000       0.100
   0.00000000  0.50000000  0.20000000       0.050
   0.00000000  0.00000000  0.40000000       0.050
   0.00000000  0.12500000  0.40000000       0.100
   0.00000000  0.25000000  0.40000000       0.100
   0.00000000  0.37500000  0.40000000       0.100
   0.00000000  0.50000000  0.40000000       0.050
 
 position of ions in fractional coordinates (direct lattice) 
   0.00569361  0.25000000  0.70566589
   0.37371788  0.75000002  0.29433411
   0.18192962  0.75000002  0.18754104
   0.19748187  0.25000000  0.81245894
   0.05978014  0.75000002  0.91817494
   0.31963135  0.25000000  0.08182504
   0.12784309  0.25000000  0.39966487
   0.25156840  0.75000002  0.60033517
   0.07289913  0.07176973  0.14623601
   0.30651236  0.92823026  0.85376397
   0.11472410  0.92903414  0.65788912
   0.26468739  0.07096586  0.34211088
   0.30651236  0.57176974  0.85376397
   0.07289913  0.42823026  0.14623601
   0.26468739  0.42903414  0.34211088
   0.11472410  0.57096586  0.65788912
   0.03110981  0.75000002  0.59826411
   0.34830168  0.25000000  0.40173589
   0.15651343  0.25000000  0.08548265
   0.22289807  0.75000002  0.91451733
   0.07418398  0.25000000  0.96310011
   0.30522751  0.75000002  0.03689991
   0.11343925  0.75000002  0.47497151
   0.26597224  0.25000000  0.52502841
 
 position of ions in cartesian coordinates  (Angst):
   0.13670066  1.69446242  8.18723676
   8.97276745  5.08338737  3.41490653
   4.36803341  5.08338737  2.17587797
   4.74143467  1.69446242  9.42626508
   1.43528938  5.08338737 10.65279725
   7.67417870  1.69446242  0.94934580
   3.06944466  1.69446242  4.63696906
   6.04002342  5.08338737  6.96517470
   1.75026941  0.48644446  1.69665119
   7.35919867  6.29140516  9.90549186
   2.75446463  6.29685371  7.63292387
   6.35500345  0.48099590  3.96921942
   7.35919867  3.87536935  9.90549186
   1.75026941  2.90248032  1.69665119
   6.35500345  2.90792887  3.96921942
   2.75446463  3.86992080  7.63292387
   0.74692994  5.08338737  6.94114596
   8.36253796  1.69446242  4.66099733
   3.75780416  1.69446242  0.99178193
   5.35166416  5.08338737 10.61036112
   1.78111780  1.69446242 11.17402548
   7.32835016  5.08338737  0.42811799
   2.72361612  5.08338737  5.51068749
   6.38585195  1.69446242  6.09145485
 


--------------------------------------------------------------------------------------------------------


 k-point  1 :   0.0000 0.0000 0.0000  plane waves:   47989
 k-point  2 :   0.0000 0.1250 0.0000  plane waves:   47929
 k-point  3 :   0.0000 0.2500 0.0000  plane waves:   47901
 k-point  4 :   0.0000 0.3750 0.0000  plane waves:   47910
 k-point  5 :   0.0000 0.5000 0.0000  plane waves:   47868
 k-point  6 :   0.0000 0.0000 0.2000  plane waves:   48006
 k-point  7 :   0.0000 0.1250 0.2000  plane waves:   47967
 k-point  8 :   0.0000 0.2500 0.2000  plane waves:   47907
 k-point  9 :   0.0000 0.3750 0.2000  plane waves:   47884
 k-point 10 :   0.0000 0.5000 0.2000  plane waves:   47884
 k-point 11 :   0.0000 0.0000 0.4000  plane waves:   47922
 k-point 12 :   0.0000 0.1250 0.4000  plane waves:   47954
 k-point 13 :   0.0000 0.2500 0.4000  plane waves:   47967
 k-point 14 :   0.0000 0.3750 0.4000  plane waves:   47928
 k-point 15 :   0.0000 0.5000 0.4000  plane waves:   47890

 maximum and minimum number of plane-waves per node :     12077    11868

 maximum number of plane-waves:     48006
 maximum index in each direction: 
   IXMAX=   43   IYMAX=   12   IZMAX=   21
   IXMIN=  -43   IYMIN=  -12   IZMIN=  -21


 real space projection operators:
  total allocation   :       4535.61 KBytes
  max/ min on nodes  :       1136.58       1132.09


 parallel 3D FFT for wavefunctions:
    minimum data exchange during FFTs selected (reduces bandwidth)
 parallel 3D FFT for charge:
    minimum data exchange during FFTs selected (reduces bandwidth)


 total amount of memory used by VASP MPI-rank0    79349. kBytes
=======================================================================

   base      :      30000. kBytes
   nonlr-proj:       2643. kBytes
   fftplans  :       5898. kBytes
   grid      :       8824. kBytes
   one-center:         93. kBytes
   wavefun   :      31891. kBytes
 
     INWAV:  cpu time    0.0001: real time    0.0002
 Broyden mixing: mesh for mixing (old mesh)
   NGX = 87   NGY = 25   NGZ = 43
  (NGX  =280   NGY  = 80   NGZ  =128)
  gives a total of  93525 points

 initial charge density was supplied:
 charge density of overlapping atoms calculated
 number of electron     144.0000000 magnetization 
 keeping initial charge density in first step


--------------------------------------------------------------------------------------------------------


 Maximum index for non-local projection operator          747
 Maximum index for augmentation-charges          601 (set IRDMAX)


--------------------------------------------------------------------------------------------------------


 First call to EWALD:  gamma=   0.143
 Maximum number of real-space cells 2x 5x 3
 Maximum number of reciprocal cells 5x 2x 3

    FEWALD:  cpu time    0.0137: real time    0.0138


--------------------------------------- Iteration      1(   1)  ---------------------------------------


    POTLOK:  cpu time13420.1576: real time13451.9970
    SETDIJ:  cpu time  143.9124: real time  144.2513
     EDDAV:  cpu time    2.3456: real time    2.3512
 BZINTS: Fermi energy:  6.827975;144.000000 electrons
         Band energy:-482.050122;  BLOECHL correction: -0.028007
       DOS:  cpu time    0.0115: real time    0.0116
    --------------------------------------------
      LOOP:  cpu time13566.4271: real time13598.6112

 eigenvalue-minimisations  :  2768
 total energy-change (2. order) : 0.1201422E+04  (-0.4774863E+04)
 number of electron     144.0000000 magnetization 
 augmentation part      144.0000000 magnetization 

 Free energy of the ion-electron system (eV)
  ---------------------------------------------------
  alpha Z        PSCENC =       170.45750602
  Ewald energy   TEWEN  =     12312.75523476
  -Hartree energ DENC   =    -18424.41710665
  -exchange      EXHF   =         0.00000000
  -V(xc)+E(xc)   XCENC  =        29.88664000
  PAW double counting   =      3700.71972520    -3383.50420208
  entropy T*S    EENTRO =         0.00000000
  eigenvalues    EBANDS =      -482.05012210
  atomic energy  EATOM  =      7277.57480299
  Solvation  Ediel_sol  =         0.00000000
  ---------------------------------------------------
  free energy    TOTEN  =      1201.42247813 eV

  energy without entropy =     1201.42247813  energy(sigma->0) =     1201.42247813


--------------------------------------------------------------------------------------------------------




--------------------------------------- Iteration      1(   2)  ---------------------------------------


     EDDAV:  cpu time    3.0465: real time    3.1032
 BZINTS: Fermi energy: -2.097599;144.000000 electrons
         Band energy:***********;  BLOECHL correction:  0.000000
       DOS:  cpu time    0.0025: real time    0.0025
    --------------------------------------------
      LOOP:  cpu time    3.0489: real time    3.1057

 eigenvalue-minimisations  :  3848
 total energy-change (2. order) :-0.1126790E+04  (-0.1099516E+04)
 number of electron     144.0000000 magnetization 
 augmentation part      144.0000000 magnetization 

 Free energy of the ion-electron system (eV)
  ---------------------------------------------------
  alpha Z        PSCENC =       170.45750602
  Ewald energy   TEWEN  =     12312.75523476
  -Hartree energ DENC   =    -18424.41710665
  -exchange      EXHF   =         0.00000000
  -V(xc)+E(xc)   XCENC  =        29.88664000
  PAW double counting   =      3700.71972520    -3383.50420208
  entropy T*S    EENTRO =         0.00000000
  eigenvalues    EBANDS =     -1608.84008548
  atomic energy  EATOM  =      7277.57480299
  Solvation  Ediel_sol  =         0.00000000
  ---------------------------------------------------
  free energy    TOTEN  =        74.63251475 eV

  energy without entropy =       74.63251475  energy(sigma->0) =       74.63251475


--------------------------------------------------------------------------------------------------------




--------------------------------------- Iteration      1(   3)  ---------------------------------------


     EDDAV:  cpu time    2.6146: real time    2.6318
 BZINTS: Fermi energy: -3.433730;144.000000 electrons
         Band energy:***********;  BLOECHL correction:  0.000000
       DOS:  cpu time    0.0020: real time    0.0020
    --------------------------------------------
      LOOP:  cpu time    2.6166: real time    2.6338

 eigenvalue-minimisations  :  3216
 total energy-change (2. order) :-0.1714684E+03  (-0.1708116E+03)
 number of electron     144.0000000 magnetization 
 augmentation part      144.0000000 magnetization 

 Free energy of the ion-electron system (eV)
  ---------------------------------------------------
  alpha Z        PSCENC =       170.45750602
  Ewald energy   TEWEN  =     12312.75523476
  -Hartree energ DENC   =    -18424.41710665
  -exchange      EXHF   =         0.00000000
  -V(xc)+E(xc)   XCENC  =        29.88664000
  PAW double counting   =      3700.71972520    -3383.50420208
  entropy T*S    EENTRO =         0.00000000
  eigenvalues    EBANDS =     -1780.30851740
  atomic energy  EATOM  =      7277.57480299
  Solvation  Ediel_sol  =         0.00000000
  ---------------------------------------------------
  free energy    TOTEN  =       -96.83591717 eV

  energy without entropy =      -96.83591717  energy(sigma->0) =      -96.83591717


--------------------------------------------------------------------------------------------------------




--------------------------------------- Iteration      1(   4)  ---------------------------------------


     EDDAV:  cpu time    2.9312: real time    2.9497
 BZINTS: Fermi energy: -3.465872;144.000000 electrons
         Band energy:***********;  BLOECHL correction:  0.000000
       DOS:  cpu time    0.0023: real time    0.0024
    --------------------------------------------
      LOOP:  cpu time    2.9336: real time    2.9520

 eigenvalue-minimisations  :  3736
 total energy-change (2. order) :-0.5892239E+01  (-0.5876196E+01)
 number of electron     144.0000000 magnetization 
 augmentation part      144.0000000 magnetization 

 Free energy of the ion-electron system (eV)
  ---------------------------------------------------
  alpha Z        PSCENC =       170.45750602
  Ewald energy   TEWEN  =     12312.75523476
  -Hartree energ DENC   =    -18424.41710665
  -exchange      EXHF   =         0.00000000
  -V(xc)+E(xc)   XCENC  =        29.88664000
  PAW double counting   =      3700.71972520    -3383.50420208
  entropy T*S    EENTRO =         0.00000000
  eigenvalues    EBANDS =     -1786.20075676
  atomic energy  EATOM  =      7277.57480299
  Solvation  Ediel_sol  =         0.00000000
  ---------------------------------------------------
  free energy    TOTEN  =      -102.72815653 eV

  energy without entropy =     -102.72815653  energy(sigma->0) =     -102.72815653


--------------------------------------------------------------------------------------------------------




--------------------------------------- Iteration      1(   5)  ---------------------------------------


     EDDAV:  cpu time    3.2124: real time    3.2318
 BZINTS: Fermi energy: -3.510004;144.000000 electrons
         Band energy:***********;  BLOECHL correction:  0.000000
       DOS:  cpu time    0.0020: real time    0.0020
    CHARGE:  cpu time    0.1416: real time    0.1420
    MIXING:  cpu time    0.0065: real time    0.0066
    --------------------------------------------
      LOOP:  cpu time    3.3625: real time    3.3823

 eigenvalue-minimisations  :  4184
 total energy-change (2. order) :-0.2729311E+00  (-0.2728477E+00)
 number of electron     144.0000004 magnetization 
 augmentation part      -17.7879850 magnetization 

 Broyden mixing:
  rms(total) = 0.92012E+00    rms(broyden)= 0.92011E+00
  rms(prec ) = 0.12059E+01
  weight for this iteration     100.00

 Free energy of the ion-electron system (eV)
  ---------------------------------------------------
  alpha Z        PSCENC =       170.45750602
  Ewald energy   TEWEN  =     12312.75523476
  -Hartree energ DENC   =    -18424.41710665
  -exchange      EXHF   =         0.00000000
  -V(xc)+E(xc)   XCENC  =        29.88664000
  PAW double counting   =      3700.71972520    -3383.50420208
  entropy T*S    EENTRO =         0.00000000
  eigenvalues    EBANDS =     -1786.47368786
  atomic energy  EATOM  =      7277.57480299
  Solvation  Ediel_sol  =         0.00000000
  ---------------------------------------------------
  free energy    TOTEN  =      -103.00108763 eV

  energy without entropy =     -103.00108763  energy(sigma->0) =     -103.00108763


--------------------------------------------------------------------------------------------------------




--------------------------------------- Iteration      1(   6)  ---------------------------------------


    POTLOK:  cpu time    2.8145: real time    2.8336
    SETDIJ:  cpu time    0.0018: real time    0.0018
     EDDAV:  cpu time    2.3365: real time    2.3420
 BZINTS: Fermi energy: -2.321773;144.000000 electrons
         Band energy:***********;  BLOECHL correction:  0.000000
       DOS:  cpu time    0.0023: real time    0.0023
    CHARGE:  cpu time    0.1427: real time    0.1431
    MIXING:  cpu time    0.0059: real time    0.0059
    --------------------------------------------
      LOOP:  cpu time    5.3037: real time    5.3286

 eigenvalue-minimisations  :  3008
 total energy-change (2. order) : 0.8366650E+01  (-0.2097903E+01)
 number of electron     144.0000003 magnetization 
 augmentation part      -17.6531118 magnetization 

 Broyden mixing:
  rms(total) = 0.47115E+00    rms(broyden)= 0.47115E+00
  rms(prec ) = 0.59214E+00
  weight for this iteration     100.00

 eigenvalues of (default mixing * dielectric matrix)
  average eigenvalue GAMMA=   1.5365
  1.5365

 Free energy of the ion-electron system (eV)
  ---------------------------------------------------
  alpha Z        PSCENC =       170.45750602
  Ewald energy   TEWEN  =     12312.75523476
  -Hartree energ DENC   =    -18523.74247148
  -exchange      EXHF   =         0.00000000
  -V(xc)+E(xc)   XCENC  =        32.67044492
  PAW double counting   =      3739.79026936    -3429.74841511
  entropy T*S    EENTRO =         0.00000000
  eigenvalues    EBANDS =     -1674.39180888
  atomic energy  EATOM  =      7277.57480299
  Solvation  Ediel_sol  =         0.00000000
  ---------------------------------------------------
  free energy    TOTEN  =       -94.63443743 eV

  energy without entropy =      -94.63443743  energy(sigma->0) =      -94.63443743


--------------------------------------------------------------------------------------------------------




--------------------------------------- Iteration      1(   7)  ---------------------------------------


    POTLOK:  cpu time    2.7916: real time    2.8096
    SETDIJ:  cpu time    0.0017: real time    0.0017
     EDDAV:  cpu time    2.5952: real time    2.6013
 BZINTS: Fermi energy: -1.454191;144.000000 electrons
         Band energy:***********;  BLOECHL correction:  0.000000
       DOS:  cpu time    0.0019: real time    0.0020
    CHARGE:  cpu time    0.1389: real time    0.1392
    MIXING:  cpu time    0.0068: real time    0.0069
    --------------------------------------------
      LOOP:  cpu time    5.5362: real time    5.5607

 eigenvalue-minimisations  :  3480
 total energy-change (2. order) : 0.1277831E+01  (-0.1011025E+01)
 number of electron     144.0000003 magnetization 
 augmentation part      -17.7062096 magnetization 

 Broyden mixing:
  rms(total) = 0.25148E+00    rms(broyden)= 0.25148E+00
  rms(prec ) = 0.30025E+00
  weight for this iteration     100.00

 eigenvalues of (default mixing * dielectric matrix)
  average eigenvalue GAMMA=   1.8465
  1.8465  1.8465

 Free energy of the ion-electron system (eV)
  ---------------------------------------------------
  alpha Z        PSCENC =       170.45750602
  Ewald energy   TEWEN  =     12312.75523476
  -Hartree energ DENC   =    -18604.16860691
  -exchange      EXHF   =         0.00000000
  -V(xc)+E(xc)   XCENC  =        35.01041126
  PAW double counting   =      3789.04662009    -3484.82549381
  entropy T*S    EENTRO =         0.00000000
  eigenvalues    EBANDS =     -1589.20708118
  atomic energy  EATOM  =      7277.57480299
  Solvation  Ediel_sol  =         0.00000000
  ---------------------------------------------------
  free energy    TOTEN  =       -93.35660678 eV

  energy without entropy =      -93.35660678  energy(sigma->0) =      -93.35660678


--------------------------------------------------------------------------------------------------------




--------------------------------------- Iteration      1(   8)  ---------------------------------------


    POTLOK:  cpu time    2.8025: real time    2.8198
    SETDIJ:  cpu time    0.0020: real time    0.0020
     EDDAV:  cpu time    2.4552: real time    2.4610
 BZINTS: Fermi energy: -1.318800;144.000000 electrons
         Band energy:***********;  BLOECHL correction:  0.000000
       DOS:  cpu time    0.0029: real time    0.0029
    CHARGE:  cpu time    0.1507: real time    0.1510
    MIXING:  cpu time    0.0080: real time    0.0080
    --------------------------------------------
      LOOP:  cpu time    5.4212: real time    5.4447

 eigenvalue-minimisations  :  3120
 total energy-change (2. order) : 0.2462250E+00  (-0.3723702E+00)
 number of electron     144.0000003 magnetization 
 augmentation part      -17.8195188 magnetization 

 Broyden mixing:
  rms(total) = 0.12101E+00    rms(broyden)= 0.12101E+00
  rms(prec ) = 0.19576E+00
  weight for this iteration     100.00

 eigenvalues of (default mixing * dielectric matrix)
  average eigenvalue GAMMA=   1.6870
  2.6619  1.1996  1.1996

 Free energy of the ion-electron system (eV)
  ---------------------------------------------------
  alpha Z        PSCENC =       170.45750602
  Ewald energy   TEWEN  =     12312.75523476
  -Hartree energ DENC   =    -18636.97234962
  -exchange      EXHF   =         0.00000000
  -V(xc)+E(xc)   XCENC  =        36.02852513
  PAW double counting   =      3839.22235397    -3536.79037419
  entropy T*S    EENTRO =         0.00000000
  eigenvalues    EBANDS =     -1555.38608086
  atomic energy  EATOM  =      7277.57480299
  Solvation  Ediel_sol  =         0.00000000
  ---------------------------------------------------
  free energy    TOTEN  =       -93.11038181 eV

  energy without entropy =      -93.11038181  energy(sigma->0) =      -93.11038181


--------------------------------------------------------------------------------------------------------




--------------------------------------- Iteration      1(   9)  ---------------------------------------


    POTLOK:  cpu time    2.8422: real time    2.8599
    SETDIJ:  cpu time    0.0018: real time    0.0018
     EDDAV:  cpu time    2.4846: real time    2.4905
 BZINTS: Fermi energy: -0.870316;144.000000 electrons
         Band energy:***********;  BLOECHL correction:  0.000000
       DOS:  cpu time    0.0027: real time    0.0027
    CHARGE:  cpu time    0.1462: real time    0.1465
    MIXING:  cpu time    0.0054: real time    0.0055
    --------------------------------------------
      LOOP:  cpu time    5.4829: real time    5.5070

 eigenvalue-minimisations  :  3104
 total energy-change (2. order) : 0.2946080E+00  (-0.1245502E+00)
 number of electron     144.0000003 magnetization 
 augmentation part      -17.7847267 magnetization 

 Broyden mixing:
  rms(total) = 0.56552E-01    rms(broyden)= 0.56552E-01
  rms(prec ) = 0.78429E-01
  weight for this iteration     100.00

 eigenvalues of (default mixing * dielectric matrix)
  average eigenvalue GAMMA=   1.4061
  2.5956  1.2113  1.2113  0.6062

 Free energy of the ion-electron system (eV)
  ---------------------------------------------------
  alpha Z        PSCENC =       170.45750602
  Ewald energy   TEWEN  =     12312.75523476
  -Hartree energ DENC   =    -18679.68984980
  -exchange      EXHF   =         0.00000000
  -V(xc)+E(xc)   XCENC  =        37.00797534
  PAW double counting   =      3852.01704775    -3551.01310720
  entropy T*S    EENTRO =         0.00000000
  eigenvalues    EBANDS =     -1511.92538365
  atomic energy  EATOM  =      7277.57480299
  Solvation  Ediel_sol  =         0.00000000
  ---------------------------------------------------
  free energy    TOTEN  =       -92.81577380 eV

  energy without entropy =      -92.81577380  energy(sigma->0) =      -92.81577380


--------------------------------------------------------------------------------------------------------




--------------------------------------- Iteration      1(  10)  ---------------------------------------


    POTLOK:  cpu time    2.8182: real time    2.8375
    SETDIJ:  cpu time    0.0016: real time    0.0016
     EDDAV:  cpu time    2.7106: real time    2.7170
 BZINTS: Fermi energy: -0.832500;144.000000 electrons
         Band energy:***********;  BLOECHL correction:  0.000000
       DOS:  cpu time    0.0025: real time    0.0025
    CHARGE:  cpu time    0.1449: real time    0.1452
    MIXING:  cpu time    0.0082: real time    0.0082
    --------------------------------------------
      LOOP:  cpu time    5.6860: real time    5.7121

 eigenvalue-minimisations  :  3560
 total energy-change (2. order) : 0.1082955E-01  (-0.2466544E-01)
 number of electron     144.0000003 magnetization 
 augmentation part      -17.7994555 magnetization 

 Broyden mixing:
  rms(total) = 0.41368E-01    rms(broyden)= 0.41368E-01
  rms(prec ) = 0.61465E-01
  weight for this iteration     100.00

 eigenvalues of (default mixing * dielectric matrix)
  average eigenvalue GAMMA=   1.5479
  2.5652  2.1413  1.1640  0.9344  0.9344

 Free energy of the ion-electron system (eV)
  ---------------------------------------------------
  alpha Z        PSCENC =       170.45750602
  Ewald energy   TEWEN  =     12312.75523476
  -Hartree energ DENC   =    -18687.09413403
  -exchange      EXHF   =         0.00000000
  -V(xc)+E(xc)   XCENC  =        36.99773115
  PAW double counting   =      3846.69179055    -3545.35044436
  entropy T*S    EENTRO =         0.00000000
  eigenvalues    EBANDS =     -1504.83743134
  atomic energy  EATOM  =      7277.57480299
  Solvation  Ediel_sol  =         0.00000000
  ---------------------------------------------------
  free energy    TOTEN  =       -92.80494425 eV

  energy without entropy =      -92.80494425  energy(sigma->0) =      -92.80494425


--------------------------------------------------------------------------------------------------------




--------------------------------------- Iteration      1(  11)  ---------------------------------------


    POTLOK:  cpu time    2.8206: real time    2.8397
    SETDIJ:  cpu time    0.0018: real time    0.0018
     EDDAV:  cpu time    2.6042: real time    2.6104
 BZINTS: Fermi energy: -0.816919;144.000000 electrons
         Band energy:***********;  BLOECHL correction:  0.000000
       DOS:  cpu time    0.0020: real time    0.0020
    CHARGE:  cpu time    0.1420: real time    0.1424
    MIXING:  cpu time    0.0064: real time    0.0065
    --------------------------------------------
      LOOP:  cpu time    5.5771: real time    5.6028

 eigenvalue-minimisations  :  3240
 total energy-change (2. order) : 0.3233882E-01  (-0.6371802E-02)
 number of electron     144.0000003 magnetization 
 augmentation part      -17.8042388 magnetization 

 Broyden mixing:
  rms(total) = 0.16576E-01    rms(broyden)= 0.16576E-01
  rms(prec ) = 0.32754E-01
  weight for this iteration     100.00

 eigenvalues of (default mixing * dielectric matrix)
  average eigenvalue GAMMA=   1.5935
  2.7604  2.7604  1.2227  0.9439  0.9367  0.9367

 Free energy of the ion-electron system (eV)
  ---------------------------------------------------
  alpha Z        PSCENC =       170.45750602
  Ewald energy   TEWEN  =     12312.75523476
  -Hartree energ DENC   =    -18702.53853894
  -exchange      EXHF   =         0.00000000
  -V(xc)+E(xc)   XCENC  =        37.15273391
  PAW double counting   =      3847.39150615    -3545.78038887
  entropy T*S    EENTRO =         0.00000000
  eigenvalues    EBANDS =     -1489.78546146
  atomic energy  EATOM  =      7277.57480299
  Solvation  Ediel_sol  =         0.00000000
  ---------------------------------------------------
  free energy    TOTEN  =       -92.77260543 eV

  energy without entropy =      -92.77260543  energy(sigma->0) =      -92.77260543


--------------------------------------------------------------------------------------------------------




--------------------------------------- Iteration      1(  12)  ---------------------------------------


    POTLOK:  cpu time    2.8260: real time    2.8443
    SETDIJ:  cpu time    0.0020: real time    0.0020
     EDDAV:  cpu time    2.6494: real time    2.6557
 BZINTS: Fermi energy: -0.653917;144.000000 electrons
         Band energy:***********;  BLOECHL correction:  0.000000
       DOS:  cpu time    0.0023: real time    0.0023
    CHARGE:  cpu time    0.1385: real time    0.1388
    MIXING:  cpu time    0.0063: real time    0.0063
    --------------------------------------------
      LOOP:  cpu time    5.6244: real time    5.6494

 eigenvalue-minimisations  :  3328
 total energy-change (2. order) :-0.2025146E-01  (-0.1585715E-02)
 number of electron     144.0000003 magnetization 
 augmentation part      -17.7988528 magnetization 

 Broyden mixing:
  rms(total) = 0.12012E-01    rms(broyden)= 0.12012E-01
  rms(prec ) = 0.20946E-01
  weight for this iteration     100.00

 eigenvalues of (default mixing * dielectric matrix)
  average eigenvalue GAMMA=   1.7157
  3.4380  2.5880  1.9797  1.1244  1.1244  0.8777  0.8777

 Free energy of the ion-electron system (eV)
  ---------------------------------------------------
  alpha Z        PSCENC =       170.45750602
  Ewald energy   TEWEN  =     12312.75523476
  -Hartree energ DENC   =    -18715.20235778
  -exchange      EXHF   =         0.00000000
  -V(xc)+E(xc)   XCENC  =        37.18535142
  PAW double counting   =      3844.59598553    -3542.79254854
  entropy T*S    EENTRO =         0.00000000
  eigenvalues    EBANDS =     -1477.36683129
  atomic energy  EATOM  =      7277.57480299
  Solvation  Ediel_sol  =         0.00000000
  ---------------------------------------------------
  free energy    TOTEN  =       -92.79285690 eV

  energy without entropy =      -92.79285690  energy(sigma->0) =      -92.79285690


--------------------------------------------------------------------------------------------------------




--------------------------------------- Iteration      1(  13)  ---------------------------------------


    POTLOK:  cpu time    2.8010: real time    2.8213
    SETDIJ:  cpu time    0.0018: real time    0.0018
     EDDAV:  cpu time    2.4708: real time    2.4766
 BZINTS: Fermi energy: -0.605644;144.000000 electrons
         Band energy:***********;  BLOECHL correction:  0.000000
       DOS:  cpu time    0.0023: real time    0.0023
    CHARGE:  cpu time    0.1457: real time    0.1461
    MIXING:  cpu time    0.0053: real time    0.0053
    --------------------------------------------
      LOOP:  cpu time    5.4269: real time    5.4533

 eigenvalue-minimisations  :  3256
 total energy-change (2. order) : 0.8346517E-02  (-0.7921931E-03)
 number of electron     144.0000003 magnetization 
 augmentation part      -17.7995914 magnetization 

 Broyden mixing:
  rms(total) = 0.60085E-02    rms(broyden)= 0.60085E-02
  rms(prec ) = 0.10238E-01
  weight for this iteration     100.00

 eigenvalues of (default mixing * dielectric matrix)
  average eigenvalue GAMMA=   1.7794
  4.0212  2.7986  2.3515  1.2218  1.2218  0.8856  0.8675  0.8675

 Free energy of the ion-electron system (eV)
  ---------------------------------------------------
  alpha Z        PSCENC =       170.45750602
  Ewald energy   TEWEN  =     12312.75523476
  -Hartree energ DENC   =    -18725.01010140
  -exchange      EXHF   =         0.00000000
  -V(xc)+E(xc)   XCENC  =        37.24948284
  PAW double counting   =      3843.19873967    -3541.49452794
  entropy T*S    EENTRO =         0.00000000
  eigenvalues    EBANDS =     -1467.51564732
  atomic energy  EATOM  =      7277.57480299
  Solvation  Ediel_sol  =         0.00000000
  ---------------------------------------------------
  free energy    TOTEN  =       -92.78451038 eV

  energy without entropy =      -92.78451038  energy(sigma->0) =      -92.78451038


--------------------------------------------------------------------------------------------------------




--------------------------------------- Iteration      1(  14)  ---------------------------------------


    POTLOK:  cpu time    2.8424: real time    2.8596
    SETDIJ:  cpu time    0.0017: real time    0.0018
     EDDAV:  cpu time    2.3011: real time    2.3065
 BZINTS: Fermi energy: -0.586443;144.000000 electrons
         Band energy:***********;  BLOECHL correction:  0.000000
       DOS:  cpu time    0.0022: real time    0.0022
    CHARGE:  cpu time    0.1463: real time    0.1467
    MIXING:  cpu time    0.0056: real time    0.0056
    --------------------------------------------
      LOOP:  cpu time    5.2994: real time    5.3224

 eigenvalue-minimisations  :  3144
 total energy-change (2. order) : 0.8486229E-02  (-0.2928630E-03)
 number of electron     144.0000003 magnetization 
 augmentation part      -17.8003010 magnetization 

 Broyden mixing:
  rms(total) = 0.52863E-02    rms(broyden)= 0.52863E-02
  rms(prec ) = 0.84497E-02
  weight for this iteration     100.00

 eigenvalues of (default mixing * dielectric matrix)
  average eigenvalue GAMMA=   1.8387
  4.4559  3.1094  1.9019  1.9019  0.8865  0.8865  1.2967  1.0550  1.0550

 Free energy of the ion-electron system (eV)
  ---------------------------------------------------
  alpha Z        PSCENC =       170.45750602
  Ewald energy   TEWEN  =     12312.75523476
  -Hartree energ DENC   =    -18728.73003737
  -exchange      EXHF   =         0.00000000
  -V(xc)+E(xc)   XCENC  =        37.27043644
  PAW double counting   =      3842.52200423    -3540.83113085
  entropy T*S    EENTRO =         0.00000000
  eigenvalues    EBANDS =     -1463.79484037
  atomic energy  EATOM  =      7277.57480299
  Solvation  Ediel_sol  =         0.00000000
  ---------------------------------------------------
  free energy    TOTEN  =       -92.77602415 eV

  energy without entropy =      -92.77602415  energy(sigma->0) =      -92.77602415


--------------------------------------------------------------------------------------------------------




--------------------------------------- Iteration      1(  15)  ---------------------------------------


    POTLOK:  cpu time    2.8380: real time    2.8570
    SETDIJ:  cpu time    0.0017: real time    0.0017
     EDDAV:  cpu time    2.4249: real time    2.4306
 BZINTS: Fermi energy: -0.586131;144.000000 electrons
         Band energy:***********;  BLOECHL correction:  0.000000
       DOS:  cpu time    0.0023: real time    0.0023
    CHARGE:  cpu time    0.1477: real time    0.1481
    MIXING:  cpu time    0.0077: real time    0.0077
    --------------------------------------------
      LOOP:  cpu time    5.4223: real time    5.4474

 eigenvalue-minimisations  :  2896
 total energy-change (2. order) :-0.1775900E-02  (-0.2427108E-03)
 number of electron     144.0000003 magnetization 
 augmentation part      -17.8017103 magnetization 

 Broyden mixing:
  rms(total) = 0.18282E-02    rms(broyden)= 0.18281E-02
  rms(prec ) = 0.35376E-02
  weight for this iteration     100.00

 eigenvalues of (default mixing * dielectric matrix)
  average eigenvalue GAMMA=   1.9301
  5.3864  3.3238  2.5767  1.5921  0.8858  0.8858  1.3050  1.3050  1.0204  1.0204

 Free energy of the ion-electron system (eV)
  ---------------------------------------------------
  alpha Z        PSCENC =       170.45750602
  Ewald energy   TEWEN  =     12312.75523476
  -Hartree energ DENC   =    -18730.10373376
  -exchange      EXHF   =         0.00000000
  -V(xc)+E(xc)   XCENC  =        37.26088968
  PAW double counting   =      3842.97205423    -3541.25570190
  entropy T*S    EENTRO =         0.00000000
  eigenvalues    EBANDS =     -1462.43885207
  atomic energy  EATOM  =      7277.57480299
  Solvation  Ediel_sol  =         0.00000000
  ---------------------------------------------------
  free energy    TOTEN  =       -92.77780005 eV

  energy without entropy =      -92.77780005  energy(sigma->0) =      -92.77780005


--------------------------------------------------------------------------------------------------------




--------------------------------------- Iteration      1(  16)  ---------------------------------------


    POTLOK:  cpu time    2.8808: real time    2.8983
    SETDIJ:  cpu time    0.0018: real time    0.0018
     EDDAV:  cpu time    2.4761: real time    2.4819
 BZINTS: Fermi energy: -0.582274;144.000000 electrons
         Band energy:***********;  BLOECHL correction:  0.000000
       DOS:  cpu time    0.0023: real time    0.0023
    CHARGE:  cpu time    0.1416: real time    0.1420
    MIXING:  cpu time    0.0093: real time    0.0093
    --------------------------------------------
      LOOP:  cpu time    5.5120: real time    5.5356

 eigenvalue-minimisations  :  3088
 total energy-change (2. order) : 0.5716533E-03  (-0.1320629E-03)
 number of electron     144.0000003 magnetization 
 augmentation part      -17.8015497 magnetization 

 Broyden mixing:
  rms(total) = 0.14289E-02    rms(broyden)= 0.14289E-02
  rms(prec ) = 0.24946E-02
  weight for this iteration     100.00

 eigenvalues of (default mixing * dielectric matrix)
  average eigenvalue GAMMA=   2.0022
  5.7010  3.7127  2.4823  1.9026  1.9026  0.8877  0.8877  1.2882  1.2249  1.0172
  1.0172

 Free energy of the ion-electron system (eV)
  ---------------------------------------------------
  alpha Z        PSCENC =       170.45750602
  Ewald energy   TEWEN  =     12312.75523476
  -Hartree energ DENC   =    -18731.62019356
  -exchange      EXHF   =         0.00000000
  -V(xc)+E(xc)   XCENC  =        37.26610595
  PAW double counting   =      3843.18281233    -3541.48255063
  entropy T*S    EENTRO =         0.00000000
  eigenvalues    EBANDS =     -1460.91094626
  atomic energy  EATOM  =      7277.57480299
  Solvation  Ediel_sol  =         0.00000000
  ---------------------------------------------------
  free energy    TOTEN  =       -92.77722840 eV

  energy without entropy =      -92.77722840  energy(sigma->0) =      -92.77722840


--------------------------------------------------------------------------------------------------------




--------------------------------------- Iteration      1(  17)  ---------------------------------------


    POTLOK:  cpu time    2.8550: real time    2.8738
    SETDIJ:  cpu time    0.0020: real time    0.0020
     EDDAV:  cpu time    2.3515: real time    2.3571
 BZINTS: Fermi energy: -0.575910;144.000000 electrons
         Band energy:***********;  BLOECHL correction:  0.000000
       DOS:  cpu time    0.0025: real time    0.0025
    CHARGE:  cpu time    0.1458: real time    0.1462
    MIXING:  cpu time    0.0063: real time    0.0064
    --------------------------------------------
      LOOP:  cpu time    5.3633: real time    5.3880

 eigenvalue-minimisations  :  2944
 total energy-change (2. order) : 0.3316457E-03  (-0.9534407E-04)
 number of electron     144.0000003 magnetization 
 augmentation part      -17.8015512 magnetization 

 Broyden mixing:
  rms(total) = 0.80010E-03    rms(broyden)= 0.80010E-03
  rms(prec ) = 0.15213E-02
  weight for this iteration     100.00

 eigenvalues of (default mixing * dielectric matrix)
  average eigenvalue GAMMA=   1.9940
  5.9676  3.9262  2.7574  2.1652  1.4501  1.4501  0.8871  0.8871  1.4075  1.0266
  1.0266  0.9769

 Free energy of the ion-electron system (eV)
  ---------------------------------------------------
  alpha Z        PSCENC =       170.45750602
  Ewald energy   TEWEN  =     12312.75523476
  -Hartree energ DENC   =    -18732.70970195
  -exchange      EXHF   =         0.00000000
  -V(xc)+E(xc)   XCENC  =        37.26776977
  PAW double counting   =      3843.10664432    -3541.40147363
  entropy T*S    EENTRO =         0.00000000
  eigenvalues    EBANDS =     -1459.82767902
  atomic energy  EATOM  =      7277.57480299
  Solvation  Ediel_sol  =         0.00000000
  ---------------------------------------------------
  free energy    TOTEN  =       -92.77689675 eV

  energy without entropy =      -92.77689675  energy(sigma->0) =      -92.77689675


--------------------------------------------------------------------------------------------------------




--------------------------------------- Iteration      1(  18)  ---------------------------------------


    POTLOK:  cpu time    2.7431: real time    2.7617
    SETDIJ:  cpu time    0.0016: real time    0.0016
     EDDAV:  cpu time    2.1822: real time    2.1874
 BZINTS: Fermi energy: -0.577092;144.000000 electrons
         Band energy:***********;  BLOECHL correction:  0.000000
       DOS:  cpu time    0.0024: real time    0.0024
    CHARGE:  cpu time    0.1451: real time    0.1454
    MIXING:  cpu time    0.0064: real time    0.0064
    --------------------------------------------
      LOOP:  cpu time    5.0809: real time    5.1049

 eigenvalue-minimisations  :  2600
 total energy-change (2. order) :-0.3812653E-03  (-0.2562825E-04)
 number of electron     144.0000003 magnetization 
 augmentation part      -17.8015030 magnetization 

 Broyden mixing:
  rms(total) = 0.53116E-03    rms(broyden)= 0.53116E-03
  rms(prec ) = 0.98929E-03
  weight for this iteration     100.00

 eigenvalues of (default mixing * dielectric matrix)
  average eigenvalue GAMMA=   2.0673
  6.3462  4.4357  2.6676  2.6676  1.8843  1.4064  1.4064  0.8867  0.8867  1.1662
  1.1662  0.9772  0.9772

 Free energy of the ion-electron system (eV)
  ---------------------------------------------------
  alpha Z        PSCENC =       170.45750602
  Ewald energy   TEWEN  =     12312.75523476
  -Hartree energ DENC   =    -18733.14456916
  -exchange      EXHF   =         0.00000000
  -V(xc)+E(xc)   XCENC  =        37.26968276
  PAW double counting   =      3843.12815526    -3541.42182861
  entropy T*S    EENTRO =         0.00000000
  eigenvalues    EBANDS =     -1459.39626204
  atomic energy  EATOM  =      7277.57480299
  Solvation  Ediel_sol  =         0.00000000
  ---------------------------------------------------
  free energy    TOTEN  =       -92.77727802 eV

  energy without entropy =      -92.77727802  energy(sigma->0) =      -92.77727802


--------------------------------------------------------------------------------------------------------




--------------------------------------- Iteration      1(  19)  ---------------------------------------


    POTLOK:  cpu time    2.7432: real time    2.7614
    SETDIJ:  cpu time    0.0019: real time    0.0019
     EDDAV:  cpu time    2.1459: real time    2.1509
 BZINTS: Fermi energy: -0.577366;144.000000 electrons
         Band energy:***********;  BLOECHL correction:  0.000000
       DOS:  cpu time    0.0022: real time    0.0023
    CHARGE:  cpu time    0.1453: real time    0.1457
    MIXING:  cpu time    0.0068: real time    0.0069
    --------------------------------------------
      LOOP:  cpu time    5.0454: real time    5.0691

 eigenvalue-minimisations  :  2544
 total energy-change (2. order) :-0.5981109E-03  (-0.2179674E-04)
 number of electron     144.0000003 magnetization 
 augmentation part      -17.8016831 magnetization 

 Broyden mixing:
  rms(total) = 0.41794E-03    rms(broyden)= 0.41794E-03
  rms(prec ) = 0.64201E-03
  weight for this iteration     100.00

 eigenvalues of (default mixing * dielectric matrix)
  average eigenvalue GAMMA=   2.1172
  6.6198  4.9207  3.0654  2.7172  1.7807  1.6148  1.6148  0.8868  0.8868  1.2847
  1.2847  0.9489  1.0080  1.0080

 Free energy of the ion-electron system (eV)
  ---------------------------------------------------
  alpha Z        PSCENC =       170.45750602
  Ewald energy   TEWEN  =     12312.75523476
  -Hartree energ DENC   =    -18733.52522060
  -exchange      EXHF   =         0.00000000
  -V(xc)+E(xc)   XCENC  =        37.26851489
  PAW double counting   =      3843.04909568    -3541.33988974
  entropy T*S    EENTRO =         0.00000000
  eigenvalues    EBANDS =     -1459.01792013
  atomic energy  EATOM  =      7277.57480299
  Solvation  Ediel_sol  =         0.00000000
  ---------------------------------------------------
  free energy    TOTEN  =       -92.77787613 eV

  energy without entropy =      -92.77787613  energy(sigma->0) =      -92.77787613


--------------------------------------------------------------------------------------------------------




--------------------------------------- Iteration      1(  20)  ---------------------------------------


    POTLOK:  cpu time    2.7699: real time    2.7876
    SETDIJ:  cpu time    0.0017: real time    0.0017
     EDDAV:  cpu time    2.1836: real time    2.1888
 BZINTS: Fermi energy: -0.580703;144.000000 electrons
         Band energy:***********;  BLOECHL correction:  0.000000
       DOS:  cpu time    0.0027: real time    0.0027
    CHARGE:  cpu time    0.1426: real time    0.1429
    MIXING:  cpu time    0.0088: real time    0.0089
    --------------------------------------------
      LOOP:  cpu time    5.1094: real time    5.1326

 eigenvalue-minimisations  :  2488
 total energy-change (2. order) :-0.4288186E-03  (-0.1638309E-04)
 number of electron     144.0000003 magnetization 
 augmentation part      -17.8017602 magnetization 

 Broyden mixing:
  rms(total) = 0.25407E-03    rms(broyden)= 0.25407E-03
  rms(prec ) = 0.38472E-03
  weight for this iteration     100.00

 eigenvalues of (default mixing * dielectric matrix)
  average eigenvalue GAMMA=   2.2523
  7.1925  6.0850  3.1770  3.1770  2.4725  1.6113  1.6113  0.8869  0.8869  1.3022
  1.3022  1.0793  1.0793  0.9607  0.9607

 Free energy of the ion-electron system (eV)
  ---------------------------------------------------
  alpha Z        PSCENC =       170.45750602
  Ewald energy   TEWEN  =     12312.75523476
  -Hartree energ DENC   =    -18733.65346023
  -exchange      EXHF   =         0.00000000
  -V(xc)+E(xc)   XCENC  =        37.26892660
  PAW double counting   =      3843.06298078    -3541.35316018
  entropy T*S    EENTRO =         0.00000000
  eigenvalues    EBANDS =     -1458.89113568
  atomic energy  EATOM  =      7277.57480299
  Solvation  Ediel_sol  =         0.00000000
  ---------------------------------------------------
  free energy    TOTEN  =       -92.77830495 eV

  energy without entropy =      -92.77830495  energy(sigma->0) =      -92.77830495


--------------------------------------------------------------------------------------------------------




--------------------------------------- Iteration      1(  21)  ---------------------------------------


    POTLOK:  cpu time    2.7707: real time    2.7889
    SETDIJ:  cpu time    0.0017: real time    0.0017
     EDDAV:  cpu time    2.2350: real time    2.2402
 BZINTS: Fermi energy: -0.560695;144.000000 electrons
         Band energy:***********;  BLOECHL correction:  0.000000
       DOS:  cpu time    0.0023: real time    0.0023
    CHARGE:  cpu time    0.1459: real time    0.1462
    MIXING:  cpu time    0.0066: real time    0.0066
    --------------------------------------------
      LOOP:  cpu time    5.1621: real time    5.1860

 eigenvalue-minimisations  :  2568
 total energy-change (2. order) :-0.3830135E-03  (-0.1785382E-04)
 number of electron     144.0000003 magnetization 
 augmentation part      -17.8017785 magnetization 

 Broyden mixing:
  rms(total) = 0.13173E-03    rms(broyden)= 0.13173E-03
  rms(prec ) = 0.15630E-03
  weight for this iteration     100.00

 eigenvalues of (default mixing * dielectric matrix)
  average eigenvalue GAMMA=   2.2869
  7.8340  6.4425  3.2720  3.1856  2.4299  1.8643  1.8643  1.3357  1.3357  0.8868
  0.8868  1.1450  1.1450  0.9889  0.9889  0.9845

 Free energy of the ion-electron system (eV)
  ---------------------------------------------------
  alpha Z        PSCENC =       170.45750602
  Ewald energy   TEWEN  =     12312.75523476
  -Hartree energ DENC   =    -18733.57775696
  -exchange      EXHF   =         0.00000000
  -V(xc)+E(xc)   XCENC  =        37.26813465
  PAW double counting   =      3843.08460229    -3541.37624582
  entropy T*S    EENTRO =         0.00000000
  eigenvalues    EBANDS =     -1458.96496589
  atomic energy  EATOM  =      7277.57480299
  Solvation  Ediel_sol  =         0.00000000
  ---------------------------------------------------
  free energy    TOTEN  =       -92.77868796 eV

  energy without entropy =      -92.77868796  energy(sigma->0) =      -92.77868796


--------------------------------------------------------------------------------------------------------




--------------------------------------- Iteration      1(  22)  ---------------------------------------


    POTLOK:  cpu time    2.7881: real time    2.8054
    SETDIJ:  cpu time    0.0018: real time    0.0018
     EDDAV:  cpu time    1.8132: real time    1.8175
 BZINTS: Fermi energy: -0.565452;144.000000 electrons
         Band energy:***********;  BLOECHL correction:  0.000000
       DOS:  cpu time    0.0019: real time    0.0019
    CHARGE:  cpu time    0.1427: real time    0.1431
    MIXING:  cpu time    0.0070: real time    0.0070
    --------------------------------------------
      LOOP:  cpu time    4.7547: real time    4.7767

 eigenvalue-minimisations  :  2104
 total energy-change (2. order) :-0.3634607E-04  (-0.3117396E-05)
 number of electron     144.0000003 magnetization 
 augmentation part      -17.8017465 magnetization 

 Broyden mixing:
  rms(total) = 0.76047E-04    rms(broyden)= 0.76047E-04
  rms(prec ) = 0.95313E-04
  weight for this iteration     100.00

 eigenvalues of (default mixing * dielectric matrix)
  average eigenvalue GAMMA=   2.3189
  8.5930  6.9176  3.3654  3.3654  2.5063  1.9145  1.9145  0.8869  0.8869  1.2548
  1.2548  1.2307  1.2307  0.9657  0.9657  1.0841  1.0841

 Free energy of the ion-electron system (eV)
  ---------------------------------------------------
  alpha Z        PSCENC =       170.45750602
  Ewald energy   TEWEN  =     12312.75523476
  -Hartree energ DENC   =    -18733.58422453
  -exchange      EXHF   =         0.00000000
  -V(xc)+E(xc)   XCENC  =        37.26791329
  PAW double counting   =      3843.06343395    -3541.35488180
  entropy T*S    EENTRO =         0.00000000
  eigenvalues    EBANDS =     -1458.95850899
  atomic energy  EATOM  =      7277.57480299
  Solvation  Ediel_sol  =         0.00000000
  ---------------------------------------------------
  free energy    TOTEN  =       -92.77872431 eV

  energy without entropy =      -92.77872431  energy(sigma->0) =      -92.77872431


--------------------------------------------------------------------------------------------------------




--------------------------------------- Iteration      1(  23)  ---------------------------------------


    POTLOK:  cpu time    2.7999: real time    2.8179
    SETDIJ:  cpu time    0.0021: real time    0.0021
     EDDAV:  cpu time    1.8931: real time    1.8976
 BZINTS: Fermi energy: -0.573115;144.000000 electrons
         Band energy:***********;  BLOECHL correction:  0.000000
       DOS:  cpu time    0.0021: real time    0.0021
    CHARGE:  cpu time    0.1499: real time    0.1503
    MIXING:  cpu time    0.0078: real time    0.0078
    --------------------------------------------
      LOOP:  cpu time    4.8549: real time    4.8778

 eigenvalue-minimisations  :  2144
 total energy-change (2. order) : 0.3726924E-05  (-0.2447761E-05)
 number of electron     144.0000003 magnetization 
 augmentation part      -17.8017393 magnetization 

 Broyden mixing:
  rms(total) = 0.37345E-04    rms(broyden)= 0.37343E-04
  rms(prec ) = 0.48628E-04
  weight for this iteration     100.00

 eigenvalues of (default mixing * dielectric matrix)
  average eigenvalue GAMMA=   2.3081
  8.6357  7.0974  3.4519  3.4519  2.6393  1.9211  1.9211  0.8868  0.8868  1.4652
  1.4652  1.2709  1.2709  1.1068  1.1068  0.9891  0.9891  0.9906

 Free energy of the ion-electron system (eV)
  ---------------------------------------------------
  alpha Z        PSCENC =       170.45750602
  Ewald energy   TEWEN  =     12312.75523476
  -Hartree energ DENC   =    -18733.55648226
  -exchange      EXHF   =         0.00000000
  -V(xc)+E(xc)   XCENC  =        37.26766001
  PAW double counting   =      3843.06179681    -3541.35324021
  entropy T*S    EENTRO =         0.00000000
  eigenvalues    EBANDS =     -1458.98599870
  atomic energy  EATOM  =      7277.57480299
  Solvation  Ediel_sol  =         0.00000000
  ---------------------------------------------------
  free energy    TOTEN  =       -92.77872058 eV

  energy without entropy =      -92.77872058  energy(sigma->0) =      -92.77872058


--------------------------------------------------------------------------------------------------------




--------------------------------------- Iteration      1(  24)  ---------------------------------------


    POTLOK:  cpu time    2.8259: real time    2.8436
    SETDIJ:  cpu time    0.0019: real time    0.0019
     EDDAV:  cpu time    1.9668: real time    1.9714
 BZINTS: Fermi energy: -0.583847;144.000000 electrons
         Band energy:***********;  BLOECHL correction:  0.000000
       DOS:  cpu time    0.0022: real time    0.0022
    CHARGE:  cpu time    0.1444: real time    0.1448
    MIXING:  cpu time    0.0071: real time    0.0071
    --------------------------------------------
      LOOP:  cpu time    4.9483: real time    4.9710

 eigenvalue-minimisations  :  2288
 total energy-change (2. order) : 0.5664282E-05  (-0.2509566E-05)
 number of electron     144.0000003 magnetization 
 augmentation part      -17.8017328 magnetization 

 Broyden mixing:
  rms(total) = 0.22478E-04    rms(broyden)= 0.22473E-04
  rms(prec ) = 0.31527E-04
  weight for this iteration     100.00

 eigenvalues of (default mixing * dielectric matrix)
  average eigenvalue GAMMA=   2.3104
  8.5544  7.3806  3.5903  3.5903  2.7372  2.1747  2.1747  1.8814  0.8868  0.8868
  1.2435  1.2435  1.1942  1.1942  0.9768  0.9768  1.0202  1.0960  1.0960

 Free energy of the ion-electron system (eV)
[...]
      7     -28.0425      2.00000
      8     -28.0421      2.00000
      9     -15.0595      2.00000
     10     -15.0592      2.00000
     11     -14.9973      2.00000
     12     -14.9973      2.00000
     13     -14.9323      2.00000
     14     -14.9323      2.00000
     15     -14.1527      2.00000
     16     -14.1518      2.00000
     17     -14.0179      2.00000
     18     -14.0147      2.00000
     19     -14.0033      2.00000
     20     -14.0004      2.00000
     21     -13.9653      2.00000
     22     -13.9588      2.00000
     23     -13.9242      2.00000
     24     -13.9228      2.00000
     25     -13.8525      2.00000
     26     -13.8438      2.00000
     27     -13.3912      2.00000
     28     -13.3823      2.00000
     29     -13.3469      2.00000
     30     -13.3396      2.00000
     31     -13.3143      2.00000
     32     -13.3132      2.00000
     33     -11.1072      2.00000
     34     -11.0924      2.00000
     35     -10.7029      2.00000
     36     -10.6865      2.00000
     37      -6.5998      2.00000
     38      -6.5799      2.00000
     39      -6.3504      2.00000
     40      -6.3328      2.00000
     41      -6.2653      2.00000
     42      -6.2451      2.00000
     43      -6.0154      2.00000
     44      -6.0019      2.00000
     45      -5.9496      2.00000
     46      -5.9007      2.00000
     47      -5.8552      2.00000
     48      -5.7415      2.00000
     49      -2.9248      2.00000
     50      -2.8296      2.00000
     51      -2.6720      2.00000
     52      -2.6089      2.00000
     53      -2.3643      2.00000
     54      -2.2608      2.00000
     55      -2.2437      2.00000
     56      -2.2210      2.00000
     57      -2.0399      2.00000
     58      -2.0147      2.00000
     59      -1.9430      2.00000
     60      -1.8628      2.00000
     61      -1.7587      2.00000
     62      -1.7033      2.00000
     63      -1.6157      2.00000
     64      -1.5299      2.00000
     65      -1.4054      2.00000
     66      -1.3360      2.00000
     67      -1.2751      2.00000
     68      -1.1661      2.00000
     69      -1.0400      2.00000
     70      -0.9370      2.00000
     71      -0.9235      2.00000
     72      -0.8558      2.00000
     73       0.1751      0.00000
     74       0.2188      0.00000
     75       0.3724      0.00000
     76       0.4182      0.00000
     77       0.5023      0.00000
     78       0.6235      0.00000
     79       0.7391      0.00000
     80       0.7572      0.00000
     81       0.7927      0.00000
     82       0.8725      0.00000
     83       1.0357      0.00000
     84       1.0718      0.00000
     85       1.1746      0.00000
     86       1.3582      0.00000
     87       1.4310      0.00000
     88       1.5477      0.00000

 k-point    15 :       0.0000    0.5000    0.4000
  band No.  band energies     occupation 
      1     -29.7724      2.00000
      2     -29.7724      2.00000
      3     -28.7785      2.00000
      4     -28.7785      2.00000
      5     -28.6281      2.00000
      6     -28.6281      2.00000
      7     -28.0423      2.00000
      8     -28.0423      2.00000
      9     -15.0589      2.00000
     10     -15.0589      2.00000
     11     -14.9980      2.00000
     12     -14.9980      2.00000
     13     -14.9342      2.00000
     14     -14.9341      2.00000
     15     -14.1516      2.00000
     16     -14.1516      2.00000
     17     -14.0182      2.00000
     18     -14.0182      2.00000
     19     -14.0039      2.00000
     20     -14.0039      2.00000
     21     -13.9626      2.00000
     22     -13.9626      2.00000
     23     -13.9263      2.00000
     24     -13.9263      2.00000
     25     -13.8475      2.00000
     26     -13.8475      2.00000
     27     -13.3866      2.00000
     28     -13.3865      2.00000
     29     -13.3430      2.00000
     30     -13.3430      2.00000
     31     -13.3134      2.00000
     32     -13.3134      2.00000
     33     -11.0939      2.00000
     34     -11.0939      2.00000
     35     -10.6854      2.00000
     36     -10.6853      2.00000
     37      -6.6186      2.00000
     38      -6.6186      2.00000
     39      -6.3184      2.00000
     40      -6.3184      2.00000
     41      -6.2501      2.00000
     42      -6.2501      2.00000
     43      -5.9846      2.00000
     44      -5.9845      2.00000
     45      -5.9377      2.00000
     46      -5.9377      2.00000
     47      -5.7946      2.00000
     48      -5.7946      2.00000
     49      -2.8334      2.00000
     50      -2.8334      2.00000
     51      -2.6586      2.00000
     52      -2.6586      2.00000
     53      -2.3073      2.00000
     54      -2.3073      2.00000
     55      -2.2481      2.00000
     56      -2.2481      2.00000
     57      -2.0283      2.00000
     58      -2.0283      2.00000
     59      -1.8516      2.00000
     60      -1.8516      2.00000
     61      -1.6513      2.00000
     62      -1.6513      2.00000
     63      -1.6049      2.00000
     64      -1.6049      2.00000
     65      -1.3890      2.00000
     66      -1.3890      2.00000
     67      -1.2155      2.00000
     68      -1.2155      2.00000
     69      -1.0315      2.00000
     70      -1.0315      2.00000
     71      -0.8893      2.00000
     72      -0.8893      2.00000
     73       0.1133      0.00000
     74       0.1134      0.00000
     75       0.3620      0.00000
     76       0.3620      0.00000
     77       0.5524      0.00000
     78       0.5524      0.00000
     79       0.7364      0.00000
     80       0.7365      0.00000
     81       0.7657      0.00000
     82       0.7657      0.00000
     83       1.0744      0.00000
     84       1.0745      0.00000
     85       1.2709      0.00000
     86       1.2713      0.00000
     87       1.4086      0.00000
     88       1.4089      0.00000


--------------------------------------------------------------------------------------------------------


 soft charge-density along one line, spin component           1
         0         1         2         3         4         5         6         7         8         9
 total charge-density along one line
 
 pseudopotential strength for first ion, spin component:           1
  4.902  -5.547  -0.000  -0.005  -0.021  -0.000  -0.005  -0.023
 -5.547  -2.772   0.000   0.001   0.002  -0.000  -0.001  -0.004
 -0.000   0.000  -6.745  -0.000  -0.000   1.902  -0.000  -0.000
 -0.005   0.001  -0.000  -6.741  -0.001  -0.000   1.913  -0.003
 -0.021   0.002  -0.000  -0.001  -6.741  -0.000  -0.003   1.913
 -0.000  -0.000   1.902  -0.000  -0.000   7.249  -0.000  -0.000
 -0.005  -0.001  -0.000   1.913  -0.003  -0.000   7.250  -0.000
 -0.023  -0.004  -0.000  -0.003   1.913  -0.000  -0.000   7.250
 -0.000   0.000  -0.013  -0.000  -0.000  -0.009  -0.000  -0.000
 -0.000   0.000  -0.000  -0.000  -0.000  -0.000  -0.000  -0.000
  0.002  -0.001   0.000  -0.005   0.007   0.000  -0.003   0.005
 -0.002   0.001  -0.000  -0.012  -0.002  -0.000  -0.009  -0.002
  0.003  -0.001   0.000  -0.001  -0.011   0.000  -0.001  -0.009
  0.000   0.000   0.001   0.000   0.000   0.000   0.000   0.000
  0.000   0.000   0.000   0.000   0.000  -0.000   0.000   0.000
 -0.000  -0.000  -0.000   0.000  -0.000  -0.000   0.000  -0.000
  0.000   0.000   0.000   0.001   0.000   0.000   0.000   0.000
 -0.000  -0.000  -0.000   0.000   0.001  -0.000   0.000   0.000
 total augmentation occupancy for first ion, spin component:           1
  2.113  -0.263   0.000   0.012   0.051   0.000  -0.005  -0.019  -0.000   0.000   0.013  -0.007   0.030   0.000   0.000  -0.008
 -0.263   0.635   0.000  -0.031  -0.132   0.000   0.012   0.032   0.000   0.000  -0.021   0.006  -0.058   0.000   0.000   0.034
  0.000   0.000   2.013  -0.000   0.000  -0.016   0.000  -0.000  -0.079   0.023  -0.000   0.000   0.000   0.069  -0.044   0.000
  0.012  -0.031   0.000   2.000   0.003   0.000  -0.007  -0.002   0.000   0.000  -0.044  -0.063  -0.015   0.000   0.000   0.044
  0.051  -0.132   0.000   0.003   1.996   0.000  -0.002  -0.005  -0.000   0.000   0.033  -0.006  -0.050   0.000   0.000  -0.028
  0.000   0.000  -0.016   0.000   0.000   0.008  -0.000   0.000   0.022  -0.009   0.000  -0.000   0.000  -0.029   0.014   0.000
 -0.005   0.012   0.000  -0.007  -0.002   0.000   0.005   0.000   0.000   0.000   0.016   0.015   0.005   0.000   0.000  -0.022
 -0.019   0.032  -0.000  -0.002  -0.005   0.000   0.000   0.004   0.000   0.000  -0.007   0.000   0.009  -0.000   0.000   0.009
  0.000   0.000  -0.079   0.000  -0.000   0.022   0.000   0.000   0.144  -0.015  -0.000   0.000   0.000  -0.182   0.021  -0.000
 -0.000   0.000   0.023   0.000   0.000  -0.009   0.000   0.000  -0.015   0.069   0.000   0.000   0.000   0.019  -0.085   0.000
  0.013  -0.021   0.000  -0.044   0.033   0.000   0.016  -0.007   0.000   0.000   0.121   0.048   0.018   0.000   0.000  -0.147
 -0.007   0.006   0.000  -0.063  -0.006   0.000   0.015   0.000   0.000   0.000   0.048   0.087   0.008   0.000  -0.000  -0.067
  0.030  -0.058   0.000  -0.015  -0.050   0.000   0.005   0.009   0.000   0.000   0.018   0.008   0.093  -0.000   0.000  -0.024
  0.000   0.000   0.069  -0.000  -0.000  -0.029   0.000   0.000  -0.182   0.019   0.000  -0.000   0.000   0.258  -0.035   0.000
  0.000   0.000  -0.044   0.000   0.000   0.014   0.000   0.000   0.021  -0.085   0.000   0.000   0.000  -0.035   0.114   0.000
 -0.008   0.034   0.000   0.044  -0.028   0.000  -0.022   0.009   0.000  -0.000  -0.147  -0.067  -0.024   0.000   0.000   0.199
  0.005  -0.022   0.000   0.055  -0.001   0.000  -0.022  -0.000   0.000   0.000  -0.066  -0.110  -0.011   0.000   0.000   0.102
 -0.022   0.068   0.000   0.023   0.043   0.000  -0.008  -0.012  -0.000   0.000  -0.026  -0.013  -0.121   0.000   0.000   0.040


------------------------ aborting loop because EDIFF is reached ----------------------------------------


    CHARGE:  cpu time    0.1922: real time    0.1926
    FORLOC:  cpu time    0.0118: real time    0.0119
    FORNL :  cpu time    0.4709: real time    0.4720
    STRESS:  cpu time    1.4417: real time    1.4451
    FORCOR:  cpu time    2.8915: real time    2.8983
    FORHAR:  cpu time    0.0293: real time    0.0293
    MIXING:  cpu time    0.0086: real time    0.0087
    OFIELD:  cpu time    0.0000: real time    0.0000

  FORCE on cell =-STRESS in cart. coord.  units (eV):
  Direction    XX          YY          ZZ          XY          YZ          ZX
  --------------------------------------------------------------------------------------
  Alpha Z   170.45751   170.45751   170.45751
  Ewald  -20101.18240 16471.94710 15941.97678    -0.00002     0.00000   132.50400
  Hartree-17015.30874 18080.56640 17668.28241     0.00000    -0.00000    99.34978
  E(xc)    -466.92789  -468.26520  -468.31668    -0.00000     0.00000     0.09800
  Local   35697.65360-35989.13312-35038.55347     0.00001    -0.00000  -228.80782
  n-local   340.99763   341.18024   341.40242     0.06017    -0.20139    -1.90829
  augment  -167.54489  -167.83642  -167.63405    -0.00000    -0.00000     0.38600
  Kinetic  1535.58257  1551.23821  1542.83320    -0.01118    -0.82817    -1.47275
  Fock        0.00000     0.00000     0.00000     0.00000     0.00000     0.00000
  -------------------------------------------------------------------------------------
  Total      -6.27262    -9.84528    -9.55189     0.00000     0.00000     0.14893
  in kB      -5.32288    -8.35461    -8.10564     0.00000     0.00000     0.12638
  external pressure =       -7.26 kB  Pullay stress =        0.00 kB


 VOLUME and BASIS-vectors are now :
 -----------------------------------------------------------------------------
  energy-cutoff  :      500.00
  volume of cell :     1888.05
      direct lattice vectors                 reciprocal lattice vectors
    24.009468079  0.000000000  0.000000000     0.041650236  0.000000000  0.000000000
     0.000000000  6.777849674  0.000000000     0.000000000  0.147539419  0.000000000
     0.000000000  0.000000000 11.602143288     0.000000000  0.000000000  0.086190971

  length of vectors
    24.009468079  6.777849674 11.602143288     0.041650236  0.147539419  0.086190971


 FORCES acting on ions
    electron-ion (+dipol)            ewald-force                    non-local-force                 convergence-correction
 -----------------------------------------------------------------------------------------------
   0.792E+03 0.102E-04 0.423E+02   -.787E+03 0.977E-05 -.416E+02   -.398E+01 -.535E-19 -.785E+00   -.985E-04 -.354E-09 0.680E-04
   -.792E+03 -.636E-04 -.423E+02   0.787E+03 -.127E-04 0.416E+02   0.398E+01 0.146E-18 0.785E+00   0.985E-04 0.303E-09 -.680E-04
   0.766E+02 -.600E-04 -.320E+02   -.765E+02 -.191E-04 0.309E+02   -.252E+00 -.107E-19 0.116E+01   0.419E-04 0.495E-09 -.763E-04
   -.766E+02 0.119E-04 0.320E+02   0.765E+02 0.132E-04 -.309E+02   0.252E+00 0.328E-19 -.116E+01   -.419E-04 -.534E-09 0.763E-04
   0.637E+03 -.612E-04 -.495E+02   -.634E+03 -.168E-04 0.501E+02   -.188E+01 0.444E-18 -.616E+00   0.199E-04 0.399E-09 0.179E-04
   -.637E+03 0.910E-05 0.495E+02   0.634E+03 0.147E-04 -.501E+02   0.188E+01 -.317E-18 0.616E+00   -.199E-04 -.440E-09 -.179E-04
   0.370E+03 0.124E-04 -.376E+01   -.369E+03 0.136E-04 0.307E+01   -.108E+01 -.105E-17 0.698E+00   0.540E-04 -.520E-09 -.270E-04
   -.370E+03 -.615E-04 0.376E+01   0.369E+03 -.138E-04 -.307E+01   0.108E+01 0.609E-18 -.698E+00   -.540E-04 0.471E-09 0.270E-04
   0.277E+03 0.352E+02 -.453E+02   -.277E+03 -.372E+02 0.464E+02   -.176E+00 0.200E+01 -.108E+01   0.284E-04 0.361E-04 -.511E-04
   -.277E+03 -.352E+02 0.453E+02   0.277E+03 0.372E+02 -.464E+02   0.176E+00 -.200E+01 0.108E+01   -.284E-04 -.361E-04 0.511E-04
   0.127E+03 -.303E+02 0.211E+01   -.127E+03 0.320E+02 -.865E+00   -.688E+00 -.165E+01 -.124E+01   0.111E-04 -.308E-05 0.170E-04
   -.127E+03 0.303E+02 -.211E+01   0.127E+03 -.320E+02 0.865E+00   0.688E+00 0.165E+01 0.124E+01   -.111E-04 0.308E-05 -.170E-04
   -.277E+03 0.352E+02 0.453E+02   0.277E+03 -.372E+02 -.464E+02   0.176E+00 0.200E+01 0.108E+01   -.284E-04 0.361E-04 0.511E-04
   0.277E+03 -.352E+02 -.453E+02   -.277E+03 0.372E+02 0.464E+02   -.176E+00 -.200E+01 -.108E+01   0.284E-04 -.361E-04 -.511E-04
   -.127E+03 -.303E+02 -.211E+01   0.127E+03 0.320E+02 0.865E+00   0.688E+00 -.165E+01 0.124E+01   -.111E-04 -.308E-05 -.170E-04
   0.127E+03 0.303E+02 0.211E+01   -.127E+03 -.320E+02 -.865E+00   -.688E+00 0.165E+01 -.124E+01   0.111E-04 0.308E-05 0.170E-04
   0.334E+03 -.273E-05 0.452E+02   -.336E+03 -.607E-05 -.457E+02   0.158E+01 -.919E-19 0.475E+00   -.372E-05 0.157E-09 0.222E-04
   -.334E+03 0.582E-05 -.452E+02   0.336E+03 0.629E-05 0.457E+02   -.158E+01 0.581E-19 -.475E+00   0.372E-05 -.147E-09 -.222E-04
   0.328E+02 0.965E-05 -.104E+02   -.308E+02 0.770E-05 0.977E+01   -.166E+01 0.164E-19 0.663E+00   -.368E-04 -.201E-09 -.273E-04
   -.328E+02 -.176E-05 0.104E+02   0.308E+02 -.739E-05 -.977E+01   0.166E+01 -.149E-19 -.663E+00   0.368E-04 0.202E-09 0.273E-04
   0.246E+03 0.500E-05 0.808E+01   -.246E+03 0.812E-05 -.992E+01   -.715E+00 -.602E-19 0.184E+01   0.258E-04 -.173E-09 0.299E-04
   -.246E+03 -.560E-05 -.808E+01   0.246E+03 -.817E-05 0.992E+01   0.715E+00 -.175E-18 -.184E+01   -.259E-04 0.175E-09 -.299E-04
   0.162E+03 -.594E-05 0.595E+02   -.161E+03 -.780E-05 -.617E+02   -.106E+01 -.910E-17 0.215E+01   0.166E-04 0.197E-09 0.109E-04
   -.162E+03 0.305E-05 -.595E+02   0.161E+03 0.758E-05 0.617E+02   0.106E+01 -.948E-17 -.215E+01   -.166E-04 -.188E-09 -.109E-04
 -----------------------------------------------------------------------------------------------
   0.327E-04 -.208E-03 0.135E-03   0.000E+00 0.205E-13 0.000E+00   0.222E-15 -.188E-16 0.444E-15   -.271E-07 -.152E-09 -.400E-08
 
 
 POSITION                                       TOTAL-FORCE (eV/Angst)
 -----------------------------------------------------------------------------------
      0.13670      1.69446      8.18724         0.725067      0.000000     -0.000383
      8.97277      5.08339      3.41491        -0.725067      0.000000      0.000383
      4.36803      5.08339      2.17588        -0.082360     -0.000000     -0.000853
      4.74143      1.69446      9.42627         0.082360      0.000000      0.000853
      1.43529      5.08339     10.65280         0.720623     -0.000000      0.000127
      7.67418      1.69446      0.94935        -0.720623      0.000000     -0.000127
      3.06944      1.69446      4.63697         0.314439      0.000000      0.000681
      6.04002      5.08339      6.96517        -0.314439      0.000000     -0.000681
      1.75027      0.48644      1.69665        -0.174191     -0.000557      0.000423
      7.35920      6.29141      9.90549         0.174191      0.000557     -0.000423
      2.75446      6.29685      7.63292         0.092912     -0.000655      0.000096
      6.35500      0.48100      3.96922        -0.092912      0.000655     -0.000096
      7.35920      3.87537      9.90549         0.174191     -0.000557     -0.000423
      1.75027      2.90248      1.69665        -0.174191      0.000557      0.000423
      6.35500      2.90793      3.96922        -0.092912     -0.000655     -0.000096
      2.75446      3.86992      7.63292         0.092912      0.000655      0.000096
      0.74693      5.08339      6.94115        -0.320421      0.000000     -0.000553
      8.36254      1.69446      4.66100         0.320421      0.000000      0.000553
      3.75780      1.69446      0.99178         0.313712     -0.000000      0.000294
      5.35166      5.08339     10.61036        -0.313712     -0.000000     -0.000294
      1.78112      1.69446     11.17403        -0.303713     -0.000000      0.000793
      7.32835      5.08339      0.42812         0.303713      0.000000     -0.000793
      2.72362      5.08339      5.51069        -0.226135      0.000000     -0.000362
      6.38585      1.69446      6.09145         0.226135     -0.000000      0.000362
 -----------------------------------------------------------------------------------
    total drift:                                0.000033     -0.000208      0.000135


--------------------------------------------------------------------------------------------------------



  FREE ENERGIE OF THE ION-ELECTRON SYSTEM (eV)
  ---------------------------------------------------
  free  energy   TOTEN  =       -92.77869676 eV

  energy  without entropy=      -92.77869676  energy(sigma->0) =      -92.77869676
 


--------------------------------------------------------------------------------------------------------


    POTLOK:  cpu time    2.8688: real time    2.8755


--------------------------------------------------------------------------------------------------------


 writing wavefunctions
     LOOP+:  cpu time13707.4939: real time13742.3906
    4ORBIT:  cpu time    0.0000: real time    0.0000
 BZINTS: Fermi energy: -0.558118;144.000000 electrons
         Band energy:***********;  BLOECHL correction:  0.000000

 total amount of memory used by VASP MPI-rank0    79349. kBytes
=======================================================================

   base      :      30000. kBytes
   nonlr-proj:       2643. kBytes
   fftplans  :       5898. kBytes
   grid      :       8824. kBytes
   one-center:         93. kBytes
   wavefun   :      31891. kBytes
 
  
  
 General timing and accounting informations for this job:
 ========================================================
  
                  Total CPU time used (sec):    13715.528
                            User time (sec):    13693.337
                          System time (sec):       22.191
                         Elapsed time (sec):    13754.256
  
                   Maximum memory used (kb):      302208.
                   Average memory used (kb):           0.
  
                          Minor page faults:       107438
                          Major page faults:          117
                 Voluntary context switches:        14674
