 vasp.5.4.4.18Apr17-6-g9f103f2a35 (build Nov 21 2017 15:30:27) complex          
  
 executed on             LinuxIFC date 2020.09.15  17:23:55
 running on   64 total cores
 distrk:  each k-point on   32 cores,    2 groups
 distr:  one band on NCORES_PER_BAND=   4 cores,    8 groups


--------------------------------------------------------------------------------------------------------


 INCAR:
 POTCAR:   PAW_PBE Ba_sv 06Sep2000                
 POTCAR:   PAW_PBE Si 05Jan2001                   

 ----------------------------------------------------------------------------- 
|                                                                             |
|           W    W    AA    RRRRR   N    N  II  N    N   GGGG   !!!           |
|           W    W   A  A   R    R  NN   N  II  NN   N  G    G  !!!           |
|           W    W  A    A  R    R  N N  N  II  N N  N  G       !!!           |
|           W WW W  AAAAAA  RRRRR   N  N N  II  N  N N  G  GGG   !            |
|           WW  WW  A    A  R   R   N   NN  II  N   NN  G    G                |
|           W    W  A    A  R    R  N    N  II  N    N   GGGG   !!!           |
|                                                                             |
|      You have enabled k-point parallelism (KPAR>1).                         |
|      This developmental code was originally  written by Paul Kent at ORNL,  |
|      and carefully double checked in Vienna.                                |
|      GW as well as linear response parallelism added by Martijn Marsman     |
|      and Georg Kresse.                                                      |
|      Carefully verify results versus KPAR=1.                                |
|      Report problems to Paul Kent and Vienna.                               |
|                                                                             |
 ----------------------------------------------------------------------------- 


 ----------------------------------------------------------------------------- 
|                                                                             |
|  ADVICE TO THIS USER RUNNING 'VASP/VAMP'   (HEAR YOUR MASTER'S VOICE ...):  |
|                                                                             |
|      You have switched on vdW-DFT.                                          |
|      This routine was written and supplied by Jiri Klimes.                  |
|      We recommed that you carefully read and cite the following             |
|      publication                                                            |
|      J. Klimes, D.R. Bowler, A. Michelides                                  |
|        J. Phys.: Cond Matt. 22 022201 (2010)                                |
|      J. Klimes, D.R. Bowler, A. Michelides                                  |
|        Phys. Rev. B. 83, 195131 (2011)                                      |
|      and references therein.                                                |
|                                                                             |
 ----------------------------------------------------------------------------- 

 POTCAR:   PAW_PBE Ba_sv 06Sep2000                
   VRHFIN =Ba: 5s5p6s                                                           
   LEXCH  = PE                                                                  
   EATOM  =   700.2255 eV,   51.4651 Ry                                         
                                                                                
   TITEL  = PAW_PBE Ba_sv 06Sep2000                                             
   LULTRA =        F    use ultrasoft PP ?                                      
   IUNSCR =        1    unscreen: 0-lin 1-nonlin 2-no                           
   RPACOR =    2.400    partial core radius                                     
   POMASS =  137.327; ZVAL   =   10.000    mass and valenz                      
   RCORE  =    2.800    outmost cutoff radius                                   
   RWIGS  =    3.740; RWIGS  =    1.979    wigner-seitz radius (au A)           
   ENMAX  =  187.210; ENMIN  =  140.408 eV                                      
   RCLOC  =    2.516    cutoff for local pot                                    
   LCOR   =        T    correct aug charges                                     
   LPAW   =        T    paw PP                                                  
   EAUG   =  351.165                                                            
   DEXC   =     .000                                                            
   RMAX   =    3.370    core radius for proj-oper                               
   RAUG   =    1.300    factor for augmentation sphere                          
   RDEP   =    2.976    radius for radial grids                                 
   QCUT   =   -3.709; QGAM   =    7.419    optimization parameters              
                                                                                
   Description                                                                  
     l     E      TYP  RCUT    TYP  RCUT                                        
     0   .000     23  2.800                                                     
     0   .000     23  2.800                                                     
     1   .000     23  2.700                                                     
     1  2.000     23  2.700                                                     
     2   .000     23  2.700                                                     
     2   .000     23  2.700                                                     
  local pseudopotential read in
  partial core-charges read in
  atomic valenz-charges read in
  non local Contribution for L=           0  read in
    real space projection operators read in
  non local Contribution for L=           0  read in
    real space projection operators read in
  non local Contribution for L=           1  read in
    real space projection operators read in
  non local Contribution for L=           1  read in
    real space projection operators read in
  non local Contribution for L=           2  read in
    real space projection operators read in
  non local Contribution for L=           2  read in
    real space projection operators read in
    PAW grid and wavefunctions read in
 
   number of l-projection  operators is LMAX  =           6
   number of lm-projection operators is LMMAX =          18
 
 POTCAR:   PAW_PBE Si 05Jan2001                   
   VRHFIN =Si: s2p2                                                             
   LEXCH  = PE                                                                  
   EATOM  =   103.0669 eV,    7.5752 Ry                                         
                                                                                
   TITEL  = PAW_PBE Si 05Jan2001                                                
   LULTRA =        F    use ultrasoft PP ?                                      
   IUNSCR =        1    unscreen: 0-lin 1-nonlin 2-no                           
   RPACOR =    1.500    partial core radius                                     
   POMASS =   28.085; ZVAL   =    4.000    mass and valenz                      
   RCORE  =    1.900    outmost cutoff radius                                   
   RWIGS  =    2.480; RWIGS  =    1.312    wigner-seitz radius (au A)           
   ENMAX  =  245.345; ENMIN  =  184.009 eV                                      
   ICORE  =        2    local potential                                         
   LCOR   =        T    correct aug charges                                     
   LPAW   =        T    paw PP                                                  
   EAUG   =  322.069                                                            
   DEXC   =    -.007                                                            
   RMAX   =    2.944    core radius for proj-oper                               
   RAUG   =    1.300    factor for augmentation sphere                          
   RDEP   =    1.993    radius for radial grids                                 
   QCUT   =   -4.246; QGAM   =    8.493    optimization parameters              
                                                                                
   Description                                                                  
     l     E      TYP  RCUT    TYP  RCUT                                        
     0   .000     23  1.900                                                     
     0   .000     23  1.900                                                     
     1   .000     23  1.900                                                     
     1   .000     23  1.900                                                     
     2   .000      7  1.900                                                     
  local pseudopotential read in
  partial core-charges read in
  atomic valenz-charges read in
  non local Contribution for L=           0  read in
    real space projection operators read in
  non local Contribution for L=           0  read in
    real space projection operators read in
  non local Contribution for L=           1  read in
    real space projection operators read in
  non local Contribution for L=           1  read in
    real space projection operators read in
    PAW grid and wavefunctions read in
 
   number of l-projection  operators is LMAX  =           4
   number of lm-projection operators is LMMAX =           8
 
 Optimization of the real space projectors (new method)

 maximal supplied QI-value         = 13.42
 optimisation between [QCUT,QGAM] = [ 11.40, 22.81] = [ 36.42,145.68] Ry 
 Optimized for a Real-space Cutoff    1.56 Angstroem

   l    n(q)    QCUT    max X(q) W(low)/X(q) W(high)/X(q)  e(spline) 
   0     11    11.404     7.198    0.14E-04    0.26E-04    0.99E-07
   0     11    11.404    15.603    0.29E-04    0.72E-04    0.44E-06
   1     10    11.404     3.746    0.20E-04    0.24E-04    0.43E-07
   1     10    11.404     4.362    0.22E-03    0.97E-04    0.22E-06
   2     10    11.404     5.782    0.83E-04    0.62E-05    0.27E-06
   2     10    11.404    65.505    0.42E-03    0.31E-04    0.12E-05
 Optimization of the real space projectors (new method)

 maximal supplied QI-value         = 19.84
 optimisation between [QCUT,QGAM] = [ 11.31, 22.82] = [ 35.82,145.81] Ry 
 Optimized for a Real-space Cutoff    1.16 Angstroem

   l    n(q)    QCUT    max X(q) W(low)/X(q) W(high)/X(q)  e(spline) 
   0      8    11.310     8.708    0.14E-04    0.11E-04    0.43E-08
   0      8    11.310   106.241    0.27E-03    0.30E-03    0.38E-07
   1      7    11.310     5.901    0.82E-05    0.48E-04    0.19E-07
   1      7    11.310    73.241    0.27E-03    0.27E-03    0.74E-07

 ----------------------------------------------------------------------------- 
|                                                                             |
|  ADVICE TO THIS USER RUNNING 'VASP/VAMP'   (HEAR YOUR MASTER'S VOICE ...):  |
|                                                                             |
|      You enforced a specific xc-type in the INCAR file,                     |
|      a different type was found on the POTCAR file                          |
|          I HOPE YOU KNOW, WHAT YOU ARE  DOING                               |
|                                                                             |
 ----------------------------------------------------------------------------- 

 PAW_PBE Ba_sv 06Sep2000                :
 energy of atom  1       EATOM= -700.2255
 kinetic energy error for atom=    0.0005 (will be added to EATOM!!)
 PAW_PBE Si 05Jan2001                   :
 energy of atom  2       EATOM= -103.0669
 kinetic energy error for atom=    0.0006 (will be added to EATOM!!)
 
 
 POSCAR: ba8 si16                                
  positions in direct lattice
  velocities in cartesian coordinates
 exchange correlation table for  LEXCH =       42
   RHO(1)=    0.500       N(1)  =     2000
   RHO(2)=  100.500       N(2)  =     4000
 


--------------------------------------------------------------------------------------------------------


 ion  position               nearest neighbor table
   1  0.006  0.250  0.705-  21 3.40  16 3.45  11 3.45  17 3.66  17 3.66   5 4.39   5 4.39   7 4.61

   2  0.376  0.750  0.295-  22 3.40  12 3.45  15 3.45  18 3.66  18 3.66   6 4.39   6 4.39   8 4.61

   3  0.182  0.750  0.187-  20 3.32   9 3.44  14 3.44  22 3.48  12 3.48  15 3.48  19 3.64  19 3.64
                            23 3.72   5 4.29   7 4.38   7 4.38
   4  0.200  0.250  0.813-  19 3.32  13 3.44  10 3.44  21 3.48  16 3.48  11 3.48  20 3.64  20 3.64
                            24 3.72   6 4.29   8 4.38   8 4.38
   5  0.060  0.750  0.918-   9 3.44  14 3.44  21 3.45  21 3.45  11 3.50  16 3.50  17 3.76   3 4.29
                             1 4.39   1 4.39
   6  0.322  0.250  0.082-  13 3.44  10 3.44  22 3.45  22 3.45  15 3.50  12 3.50  18 3.76   4 4.29
                             2 4.39   2 4.39
   7  0.128  0.250  0.399-  14 3.44   9 3.44  23 3.52  23 3.52  15 3.61  12 3.61  24 3.67  19 3.71
                            16 3.72  11 3.72   3 4.38   3 4.38   1 4.61
   8  0.254  0.750  0.601-  10 3.44  13 3.44  24 3.52  24 3.52  11 3.61  16 3.61  23 3.67  20 3.71
                            12 3.72  15 3.72   4 4.38   4 4.38   2 4.61
   9  0.073  0.072  0.146-  14 2.42  21 2.45  19 2.45   3 3.44   5 3.44   7 3.44
  10  0.309  0.928  0.854-  13 2.42  22 2.45  20 2.45   4 3.44   6 3.44   8 3.44
  11  0.115  0.929  0.658-  16 2.43  23 2.45  17 2.45   1 3.45   4 3.48   5 3.50   8 3.61   7 3.72

  12  0.267  0.071  0.342-  15 2.43  24 2.45  18 2.45   2 3.45   3 3.48   6 3.50   7 3.61   8 3.72

  13  0.309  0.572  0.854-  10 2.42  22 2.45  20 2.45   4 3.44   6 3.44   8 3.44
  14  0.073  0.428  0.146-   9 2.42  21 2.45  19 2.45   3 3.44   5 3.44   7 3.44
  15  0.267  0.429  0.342-  12 2.43  24 2.45  18 2.45   2 3.45   3 3.48   6 3.50   7 3.61   8 3.72

  16  0.115  0.571  0.658-  11 2.43  23 2.45  17 2.45   1 3.45   4 3.48   5 3.50   8 3.61   7 3.72

  17  0.031  0.750  0.599-  23 2.44  11 2.45  16 2.45   1 3.66   1 3.66   5 3.76
  18  0.350  0.250  0.401-  24 2.44  15 2.45  12 2.45   2 3.66   2 3.66   6 3.76
  19  0.157  0.250  0.085-  21 2.43  14 2.45   9 2.45   4 3.32   3 3.64   3 3.64   7 3.71
  20  0.225  0.750  0.915-  22 2.43  10 2.45  13 2.45   3 3.32   4 3.64   4 3.64   8 3.71
  21  0.074  0.250  0.962-  19 2.43  14 2.45   9 2.45   1 3.40   5 3.45   5 3.45   4 3.48
  22  0.307  0.750  0.038-  20 2.43  10 2.45  13 2.45   2 3.40   6 3.45   6 3.45   3 3.48
  23  0.113  0.750  0.475-  17 2.44  11 2.45  16 2.45   7 3.52   7 3.52   8 3.67   3 3.72
  24  0.268  0.250  0.525-  18 2.44  15 2.45  12 2.45   8 3.52   8 3.52   7 3.67   4 3.72
 
  LATTYP: Found a simple orthorhombic cell.
 ALAT       =     6.7778496742
 B/A-ratio  =     1.7117734747
 C/A-ratio  =     3.5423429602
  
  Lattice vectors:
  
 A1 = (   0.0000000000,   6.7778496742,   0.0000000000)
 A2 = (   0.0000000000,   0.0000000000, -11.6021432877)
 A3 = ( -24.0094680786,   0.0000000000,   0.0000000000)


Analysis of symmetry for initial positions (statically):
=====================================================================
 Subroutine PRICEL returns:
 Original cell was already a primitive cell.
 

 Routine SETGRP: Setting up the symmetry group for a 
 simple orthorhombic supercell.


 Subroutine GETGRP returns: Found  4 space group operations
 (whereof  1 operations were pure point group operations)
 out of a pool of  8 trial point group operations.


The static configuration has the point symmetry C_1 .
 The point group associated with its full space group is C_2h.


Analysis of symmetry for dynamics (positions and initial velocities):
=====================================================================
 Subroutine PRICEL returns:
 Original cell was already a primitive cell.
 

 Routine SETGRP: Setting up the symmetry group for a 
 simple orthorhombic supercell.


 Subroutine GETGRP returns: Found  4 space group operations
 (whereof  1 operations were pure point group operations)
 out of a pool of  8 trial point group operations.


The dynamic configuration has the point symmetry C_1 .
 The point group associated with its full space group is C_2h.


Analysis of constrained symmetry for selective dynamics:
=====================================================================
 Subroutine PRICEL returns:
 Original cell was already a primitive cell.
 

 Routine SETGRP: Setting up the symmetry group for a 
 simple orthorhombic supercell.


 Subroutine GETGRP returns: Found  4 space group operations
 (whereof  1 operations were pure point group operations)
 out of a pool of  8 trial point group operations.


The constrained configuration has the point symmetry C_1 .
 The point group associated with its full space group is C_2h.


 Subroutine INISYM returns: Found  4 space group operations
 (whereof  1 operations are pure point group operations),
 and found     1 'primitive' translations

 
 
 KPOINTS: k-density: 8.0                          

Automatic generation of k-mesh.
Space group operators:
 irot       det(A)        alpha          n_x          n_y          n_z        tau_x        tau_y        tau_z
    1     1.000000     0.000000     1.000000     0.000000     0.000000     0.000000     0.000000     0.000000
    2    -1.000000     0.000000     1.000000     0.000000     0.000000    -0.618506     0.000000     0.000000
    3     1.000000   180.000000     0.000000     1.000000     0.000000    -0.618506     0.500000     0.000000
    4    -1.000000   180.000000     0.000000     1.000000     0.000000     0.000000     0.500000     0.000000
 
 Subroutine IBZKPT returns following result:
 ===========================================
 
 Found     15 irreducible k-points:
 
 Following reciprocal coordinates:
            Coordinates               Weight
  0.000000  0.000000  0.000000      1.000000
  0.000000  0.125000  0.000000      2.000000
  0.000000  0.250000  0.000000      2.000000
  0.000000  0.375000  0.000000      2.000000
  0.000000  0.500000  0.000000      1.000000
  0.000000  0.000000  0.200000      2.000000
  0.000000  0.125000  0.200000      4.000000
  0.000000  0.250000  0.200000      4.000000
  0.000000  0.375000  0.200000      4.000000
  0.000000  0.500000  0.200000      2.000000
  0.000000  0.000000  0.400000      2.000000
  0.000000  0.125000  0.400000      4.000000
  0.000000  0.250000  0.400000      4.000000
  0.000000  0.375000  0.400000      4.000000
  0.000000  0.500000  0.400000      2.000000
 
 Following cartesian coordinates:
            Coordinates               Weight
  0.000000  0.000000  0.000000      1.000000
  0.000000  0.018442  0.000000      2.000000
  0.000000  0.036885  0.000000      2.000000
  0.000000  0.055327  0.000000      2.000000
  0.000000  0.073770  0.000000      1.000000
  0.000000  0.000000  0.017238      2.000000
  0.000000  0.018442  0.017238      4.000000
  0.000000  0.036885  0.017238      4.000000
  0.000000  0.055327  0.017238      4.000000
  0.000000  0.073770  0.017238      2.000000
  0.000000  0.000000  0.034476      2.000000
  0.000000  0.018442  0.034476      4.000000
  0.000000  0.036885  0.034476      4.000000
  0.000000  0.055327  0.034476      4.000000
  0.000000  0.073770  0.034476      2.000000
 
 TETIRR: Found    108 inequivalent tetrahedra from      240


--------------------------------------------------------------------------------------------------------




 Dimension of arrays:
   k-points           NKPTS =     15   k-points in BZ     NKDIM =     15   number of bands    NBANDS=     88
   number of dos      NEDOS =    301   number of ions     NIONS =     24
   non local maximal  LDIM  =      6   non local SUM 2l+1 LMDIM =     18
   total plane-waves  NPLWV = 358400
   max r-space proj   IRMAX =   3093   max aug-charges    IRDMAX=  12081
   dimension x,y,z NGX =   140 NGY =   40 NGZ =   64
   dimension x,y,z NGXF=   280 NGYF=   80 NGZF=  128
   support grid    NGXF=   280 NGYF=   80 NGZF=  128
   ions per type =               8  16
   NGX,Y,Z   is equivalent  to a cutoff of   9.69,  9.81,  9.17 a.u.
   NGXF,Y,Z  is equivalent  to a cutoff of  19.39, 19.62, 18.34 a.u.

 SYSTEM =  unknown system                          
 POSCAR =  ba8 si16                                

 Startparameter for this run:
   NWRITE =      2    write-flag & timer
   PREC   = normal    normal or accurate (medium, high low for compatibility)
   ISTART =      0    job   : 0-new  1-cont  2-samecut
   ICHARG =      2    charge: 1-file 2-atom 10-const
   ISPIN  =      1    spin polarized calculation?
   LNONCOLLINEAR =      F non collinear calculations
   LSORBIT =      F    spin-orbit coupling
   INIWAV =      1    electr: 0-lowe 1-rand  2-diag
   LASPH  =      T    aspherical Exc in radial PAW
   METAGGA=      F    non-selfconsistent MetaGGA calc.

 Electronic Relaxation 1
   ENCUT  =  500.0 eV  36.75 Ry    6.06 a.u.  43.77 12.36 21.15*2*pi/ulx,y,z
   ENINI  =  500.0     initial cutoff
   ENAUG  =  351.2 eV  augmentation charge cutoff
   NELM   =    100;   NELMIN=  2; NELMDL= -5     # of ELM steps 
   EDIFF  = 0.1E-05   stopping-criterion for ELM
   LREAL  =      T    real-space projection
   NLSPLINE    = F    spline interpolate recip. space projectors
   LCOMPAT=      F    compatible to vasp.4.4
   GGA_COMPAT  = T    GGA compatible to vasp.4.4-vasp.4.6
   LMAXPAW     = -100 max onsite density
   LMAXMIX     =    2 max onsite mixed and CHGCAR
   VOSKOWN=      0    Vosko Wilk Nusair interpolation
   ROPT   =   -0.00050  -0.00050
 Ionic relaxation
   EDIFFG = -.1E-02   stopping-criterion for IOM
   NSW    =      0    number of steps for IOM
   NBLOCK =      1;   KBLOCK =      1    inner block; outer block 
   IBRION =     -1    ionic relax: 0-MD 1-quasi-New 2-CG
   NFREE  =      0    steps in history (QN), initial steepest desc. (CG)
   ISIF   =      2    stress and relaxation
   IWAVPR =     10    prediction:  0-non 1-charg 2-wave 3-comb
   ISYM   =      2    0-nonsym 1-usesym 2-fastsym
   LCORR  =      T    Harris-Foulkes like correction to forces

   POTIM  = 0.3000    time-step for ionic-motion
   TEIN   =    0.0    initial temperature
   TEBEG  =    0.0;   TEEND  =   0.0 temperature during run
   SMASS  =  -3.00    Nose mass-parameter (am)
   estimated Nose-frequenzy (Omega)   =  0.10E-29 period in steps =****** mass=  -0.132E-25a.u.
   SCALEE = 1.0000    scale energy and forces
   NPACO  =    256;   APACO  = 16.0  distance and # of slots for P.C.
   PSTRESS=    0.0 pullay stress

  Mass of Ions in am
   POMASS = 137.33 28.09
  Ionic Valenz
   ZVAL   =  10.00  4.00
  Atomic Wigner-Seitz radii
   RWIGS  =  -1.00 -1.00
  virtual crystal weights 
   VCA    =   1.00  1.00
   NELECT =     144.0000    total number of electrons
   NUPDOWN=      -1.0000    fix difference up-down

 DOS related values:
   EMIN   =  10.00;   EMAX   =-10.00  energy-range for DOS
   EFERMI =   0.00
   ISMEAR =    -5;   SIGMA  =   0.01  broadening in eV -4-tet -1-fermi 0-gaus

 Electronic relaxation 2 (details)
   IALGO  =     38    algorithm
   LDIAG  =      T    sub-space diagonalisation (order eigenvalues)
   LSUBROT=      F    optimize rotation matrix (better conditioning)
   TURBO    =      0    0=normal 1=particle mesh
   IRESTART =      0    0=no restart 2=restart with 2 vectors
   NREBOOT  =      0    no. of reboots
   NMIN     =      0    reboot dimension
   EREF     =   0.00    reference energy to select bands
   IMIX   =      4    mixing-type and parameters
     AMIX     =   0.40;   BMIX     =  1.00
     AMIX_MAG =   1.60;   BMIX_MAG =  1.00
     AMIN     =   0.10
     WC   =   100.;   INIMIX=   1;  MIXPRE=   1;  MAXMIX= -45

 Intra band minimization:
   WEIMIN = 0.0000     energy-eigenvalue tresh-hold
   EBREAK =  0.28E-08  absolut break condition
   DEPER  =   0.30     relativ break condition  

   TIME   =   0.40     timestep for ELM

  volume/ion in A,a.u.               =      78.67       530.88
  Fermi-wavevector in a.u.,A,eV,Ry     =   0.694264  1.311969  6.558046  0.482003
  Thomas-Fermi vector in A             =   1.776709
 
 Write flags
   LWAVE        =      T    write WAVECAR
   LDOWNSAMPLE  =      F    k-point downsampling of WAVECAR
   LCHARG       =      T    write CHGCAR
   LVTOT        =      F    write LOCPOT, total local potential
   LVHAR        =      F    write LOCPOT, Hartree potential only
   LELF         =      F    write electronic localiz. function (ELF)
   LORBIT       =      0    0 simple, 1 ext, 2 COOP (PROOUT), +10 PAW based schemes


 Dipole corrections
   LMONO  =      F    monopole corrections only (constant potential shift)
   LDIPOL =      F    correct potential (dipole corrections)
   IDIPOL =      0    1-x, 2-y, 3-z, 4-all directions 
   EPSILON=  1.0000000 bulk dielectric constant

 Exchange correlation treatment:
   GGA     =    BO    GGA type
   LEXCH   =    42    internal setting for exchange type
   VOSKOWN=      0    Vosko Wilk Nusair interpolation
   LHFCALC =     F    Hartree Fock is set to
   LHFONE  =     F    Hartree Fock one center treatment
   AEXX    =    0.0000 exact exchange contribution

 vdW DFT:
   LUSE_VDW   =     T    switch on vdW DFT
   Zab_VDW    =-.8491    correlation parameter
   PARAM1     =0.1833
   PARAM2     =0.2200
   PARAM3     =0.0000
   -- rVV10 --
   BPARAM     = 6.3000
   CPARAM     = 0.0093

 Linear response parameters
   LEPSILON=     F    determine dielectric tensor
   LRPA    =     F    only Hartree local field effects (RPA)
   LNABLA  =     F    use nabla operator in PAW spheres
   LVEL    =     F    velocity operator in full k-point grid
   LINTERFAST=   F  fast interpolation
   KINTER  =     0    interpolate to denser k-point grid
   CSHIFT  =0.1000    complex shift for real part using Kramers Kronig
   OMEGAMAX=  -1.0    maximum frequency
   DEG_THRESHOLD= 0.2000000E-02 threshold for treating states as degnerate
   RTIME   =   -0.100 relaxation time in fs
  (WPLASMAI=    0.000 imaginary part of plasma frequency in eV, 0.658/RTIME)
   DFIELD  = 0.0000000 0.0000000 0.0000000 field for delta impulse in time
 
 Orbital magnetization related:
   ORBITALMAG=     F  switch on orbital magnetization
   LCHIMAG   =     F  perturbation theory with respect to B field
   DQ        =  0.001000  dq finite difference perturbation B field
   LLRAUG    =     F  two centre corrections for induced B field



--------------------------------------------------------------------------------------------------------


 Static calculation
 charge density and potential will be updated during run
 non-spin polarized calculation
 Variant of blocked Davidson
 Davidson routine will perform the subspace rotation
 perform sub-space diagonalisation
    after iterative eigenvector-optimisation
 modified Broyden-mixing scheme, WC =      100.0
 initial mixing is a Kerker type mixing with AMIX =  0.4000 and BMIX =      1.0000
 Hartree-type preconditioning will be used
 using additional bands           16
 real space projection scheme for non local part
 use partial core corrections
 calculate Harris-corrections to forces 
   (improved forces if not selfconsistent)
 use gradient corrections 
 use of overlap-Matrix (Vanderbilt PP)
 Fermi weights with tetrahedron method with Bloechl corrections


--------------------------------------------------------------------------------------------------------


  energy-cutoff  :      500.00
  volume of cell :     1888.05
      direct lattice vectors                 reciprocal lattice vectors
    24.009468079  0.000000000  0.000000000     0.041650236  0.000000000  0.000000000
     0.000000000  6.777849674  0.000000000     0.000000000  0.147539419  0.000000000
     0.000000000  0.000000000 11.602143288     0.000000000  0.000000000  0.086190971

  length of vectors
    24.009468079  6.777849674 11.602143288     0.041650236  0.147539419  0.086190971


 
 k-points in units of 2pi/SCALE and weight: k-density: 8.0                          
   0.00000000  0.00000000  0.00000000       0.025
   0.00000000  0.01844243  0.00000000       0.050
   0.00000000  0.03688485  0.00000000       0.050
   0.00000000  0.05532728  0.00000000       0.050
   0.00000000  0.07376971  0.00000000       0.025
   0.00000000  0.00000000  0.01723819       0.050
   0.00000000  0.01844243  0.01723819       0.100
   0.00000000  0.03688485  0.01723819       0.100
   0.00000000  0.05532728  0.01723819       0.100
   0.00000000  0.07376971  0.01723819       0.050
   0.00000000  0.00000000  0.03447639       0.050
   0.00000000  0.01844243  0.03447639       0.100
   0.00000000  0.03688485  0.03447639       0.100
   0.00000000  0.05532728  0.03447639       0.100
   0.00000000  0.07376971  0.03447639       0.050
 
 k-points in reciprocal lattice and weights: k-density: 8.0                          
   0.00000000  0.00000000  0.00000000       0.025
   0.00000000  0.12500000  0.00000000       0.050
   0.00000000  0.25000000  0.00000000       0.050
   0.00000000  0.37500000  0.00000000       0.050
   0.00000000  0.50000000  0.00000000       0.025
   0.00000000  0.00000000  0.20000000       0.050
   0.00000000  0.12500000  0.20000000       0.100
   0.00000000  0.25000000  0.20000000       0.100
   0.00000000  0.37500000  0.20000000       0.100
   0.00000000  0.50000000  0.20000000       0.050
   0.00000000  0.00000000  0.40000000       0.050
   0.00000000  0.12500000  0.40000000       0.100
   0.00000000  0.25000000  0.40000000       0.100
   0.00000000  0.37500000  0.40000000       0.100
   0.00000000  0.50000000  0.40000000       0.050
 
 position of ions in fractional coordinates (direct lattice) 
   0.00569361  0.25000000  0.70541641
   0.37580039  0.75000002  0.29458359
   0.18192962  0.75000002  0.18740832
   0.19956438  0.25000000  0.81259166
   0.05978014  0.75000002  0.91762322
   0.32171386  0.25000000  0.08237676
   0.12784309  0.25000000  0.39924920
   0.25365091  0.75000002  0.60075084
   0.07289913  0.07176738  0.14557614
   0.30859487  0.92823261  0.85442384
   0.11472410  0.92918157  0.65810659
   0.26676990  0.07081842  0.34189341
   0.30859487  0.57176739  0.85442384
   0.07289913  0.42823261  0.14557614
   0.26676990  0.42918157  0.34189341
   0.11472410  0.57081843  0.65810659
   0.03110981  0.75000002  0.59868781
   0.35038419  0.25000000  0.40131219
   0.15651343  0.25000000  0.08471890
   0.22498058  0.75000002  0.91528108
   0.07418398  0.25000000  0.96232403
   0.30731002  0.75000002  0.03767599
   0.11343925  0.75000002  0.47518770
   0.26805475  0.25000000  0.52481222
 
 position of ions in cartesian coordinates  (Angst):
   0.13670066  1.69446242  8.18434223
   9.02276745  5.08338737  3.41780105
   4.36803341  5.08338737  2.17433820
   4.79143467  1.69446242  9.42780485
   1.43528938  5.08338737 10.64639611
   7.72417870  1.69446242  0.95574694
   3.06944466  1.69446242  4.63214642
   6.09002342  5.08338737  6.96999735
   1.75026941  0.48642853  1.68899522
   7.40919867  6.29142109  9.91314783
   2.75446463  6.29785301  7.63544693
   6.40500345  0.47999660  3.96669636
   7.40919867  3.87535342  9.91314783
   1.75026941  2.90249625  1.68899522
   6.40500345  2.90892817  3.96669636
   2.75446463  3.86892150  7.63544693
   0.74692994  5.08338737  6.94606170
   8.41253796  1.69446242  4.65608159
   3.75780416  1.69446242  0.98292078
   5.40166416  5.08338737 10.61922227
   1.78111780  1.69446242 11.16502124
   7.37835016  5.08338737  0.43712222
   2.72361612  5.08338737  5.51319574
   6.43585196  1.69446242  6.08894660
 


--------------------------------------------------------------------------------------------------------


 k-point  1 :   0.0000 0.0000 0.0000  plane waves:   47989
 k-point  2 :   0.0000 0.1250 0.0000  plane waves:   47929
 k-point  3 :   0.0000 0.2500 0.0000  plane waves:   47901
 k-point  4 :   0.0000 0.3750 0.0000  plane waves:   47910
 k-point  5 :   0.0000 0.5000 0.0000  plane waves:   47868
 k-point  6 :   0.0000 0.0000 0.2000  plane waves:   48006
 k-point  7 :   0.0000 0.1250 0.2000  plane waves:   47967
 k-point  8 :   0.0000 0.2500 0.2000  plane waves:   47907
 k-point  9 :   0.0000 0.3750 0.2000  plane waves:   47884
 k-point 10 :   0.0000 0.5000 0.2000  plane waves:   47884
 k-point 11 :   0.0000 0.0000 0.4000  plane waves:   47922
 k-point 12 :   0.0000 0.1250 0.4000  plane waves:   47954
 k-point 13 :   0.0000 0.2500 0.4000  plane waves:   47967
 k-point 14 :   0.0000 0.3750 0.4000  plane waves:   47928
 k-point 15 :   0.0000 0.5000 0.4000  plane waves:   47890

 maximum and minimum number of plane-waves per node :     12077    11868

 maximum number of plane-waves:     48006
 maximum index in each direction: 
   IXMAX=   43   IYMAX=   12   IZMAX=   21
   IXMIN=  -43   IYMIN=  -12   IZMIN=  -21


 real space projection operators:
  total allocation   :       4534.34 KBytes
  max/ min on nodes  :       1137.39       1128.28


 parallel 3D FFT for wavefunctions:
    minimum data exchange during FFTs selected (reduces bandwidth)
 parallel 3D FFT for charge:
    minimum data exchange during FFTs selected (reduces bandwidth)


 total amount of memory used by VASP MPI-rank0    79351. kBytes
=======================================================================

   base      :      30000. kBytes
   nonlr-proj:       2645. kBytes
   fftplans  :       5898. kBytes
   grid      :       8824. kBytes
   one-center:         93. kBytes
   wavefun   :      31891. kBytes
 
     INWAV:  cpu time    0.0000: real time    0.0000
 Broyden mixing: mesh for mixing (old mesh)
   NGX = 87   NGY = 25   NGZ = 43
  (NGX  =280   NGY  = 80   NGZ  =128)
  gives a total of  93525 points

 initial charge density was supplied:
 charge density of overlapping atoms calculated
 number of electron     144.0000000 magnetization 
 keeping initial charge density in first step


--------------------------------------------------------------------------------------------------------


 Maximum index for non-local projection operator          753
 Maximum index for augmentation-charges          601 (set IRDMAX)


--------------------------------------------------------------------------------------------------------


 First call to EWALD:  gamma=   0.143
 Maximum number of real-space cells 2x 5x 3
 Maximum number of reciprocal cells 5x 2x 3

    FEWALD:  cpu time    0.0019: real time    0.0019


--------------------------------------- Iteration      1(   1)  ---------------------------------------


    POTLOK:  cpu time14117.9232: real time14151.2462
    SETDIJ:  cpu time    0.0032: real time    0.0231
     EDDAV:  cpu time    2.8280: real time    3.2503
 BZINTS: Fermi energy:  6.824040;144.000000 electrons
         Band energy:-481.560269;  BLOECHL correction: -0.028485
       DOS:  cpu time    0.0119: real time    0.0122
    --------------------------------------------
      LOOP:  cpu time14120.7662: real time14154.5319

 eigenvalue-minimisations  :  2768
 total energy-change (2. order) : 0.1199766E+04  (-0.4774341E+04)
 number of electron     144.0000000 magnetization 
 augmentation part      144.0000000 magnetization 

 Free energy of the ion-electron system (eV)
  ---------------------------------------------------
  alpha Z        PSCENC =       170.45750602
  Ewald energy   TEWEN  =     12143.39103077
  -Hartree energ DENC   =    -18257.00968698
  -exchange      EXHF   =         0.00000000
  -V(xc)+E(xc)   XCENC  =        29.69753453
  PAW double counting   =      3700.71972520    -3383.50420208
  entropy T*S    EENTRO =         0.00000000
  eigenvalues    EBANDS =      -481.56026861
  atomic energy  EATOM  =      7277.57480299
  Solvation  Ediel_sol  =         0.00000000
  ---------------------------------------------------
  free energy    TOTEN  =      1199.76644183 eV

  energy without entropy =     1199.76644183  energy(sigma->0) =     1199.76644183


--------------------------------------------------------------------------------------------------------




--------------------------------------- Iteration      1(   2)  ---------------------------------------


     EDDAV:  cpu time    3.9213: real time    4.1079
 BZINTS: Fermi energy: -2.087202;144.000000 electrons
         Band energy:***********;  BLOECHL correction:  0.000000
       DOS:  cpu time    0.0025: real time    0.0025
    --------------------------------------------
      LOOP:  cpu time    3.9237: real time    4.1104

 eigenvalue-minimisations  :  3848
 total energy-change (2. order) :-0.1126126E+04  (-0.1097548E+04)
 number of electron     144.0000000 magnetization 
 augmentation part      144.0000000 magnetization 

 Free energy of the ion-electron system (eV)
  ---------------------------------------------------
  alpha Z        PSCENC =       170.45750602
  Ewald energy   TEWEN  =     12143.39103077
  -Hartree energ DENC   =    -18257.00968698
  -exchange      EXHF   =         0.00000000
  -V(xc)+E(xc)   XCENC  =        29.69753453
  PAW double counting   =      3700.71972520    -3383.50420208
  entropy T*S    EENTRO =         0.00000000
  eigenvalues    EBANDS =     -1607.68629658
  atomic energy  EATOM  =      7277.57480299
  Solvation  Ediel_sol  =         0.00000000
  ---------------------------------------------------
  free energy    TOTEN  =        73.64041386 eV

  energy without entropy =       73.64041386  energy(sigma->0) =       73.64041386


--------------------------------------------------------------------------------------------------------




--------------------------------------- Iteration      1(   3)  ---------------------------------------


     EDDAV:  cpu time    3.2681: real time    3.2864
 BZINTS: Fermi energy: -3.407136;144.000000 electrons
         Band energy:***********;  BLOECHL correction:  0.000000
       DOS:  cpu time    0.0024: real time    0.0024
    --------------------------------------------
      LOOP:  cpu time    3.2705: real time    3.2888

 eigenvalue-minimisations  :  3216
 total energy-change (2. order) :-0.1702660E+03  (-0.1695827E+03)
 number of electron     144.0000000 magnetization 
 augmentation part      144.0000000 magnetization 

 Free energy of the ion-electron system (eV)
  ---------------------------------------------------
  alpha Z        PSCENC =       170.45750602
  Ewald energy   TEWEN  =     12143.39103077
  -Hartree energ DENC   =    -18257.00968698
  -exchange      EXHF   =         0.00000000
  -V(xc)+E(xc)   XCENC  =        29.69753453
  PAW double counting   =      3700.71972520    -3383.50420208
  entropy T*S    EENTRO =         0.00000000
  eigenvalues    EBANDS =     -1777.95226689
  atomic energy  EATOM  =      7277.57480299
  Solvation  Ediel_sol  =         0.00000000
  ---------------------------------------------------
  free energy    TOTEN  =       -96.62555645 eV

  energy without entropy =      -96.62555645  energy(sigma->0) =      -96.62555645


--------------------------------------------------------------------------------------------------------




--------------------------------------- Iteration      1(   4)  ---------------------------------------


     EDDAV:  cpu time    3.6227: real time    3.6419
 BZINTS: Fermi energy: -3.443161;144.000000 electrons
         Band energy:***********;  BLOECHL correction:  0.000000
       DOS:  cpu time    0.0024: real time    0.0024
    --------------------------------------------
      LOOP:  cpu time    3.6251: real time    3.6443

 eigenvalue-minimisations  :  3752
 total energy-change (2. order) :-0.6011202E+01  (-0.5994280E+01)
 number of electron     144.0000000 magnetization 
 augmentation part      144.0000000 magnetization 

 Free energy of the ion-electron system (eV)
  ---------------------------------------------------
  alpha Z        PSCENC =       170.45750602
  Ewald energy   TEWEN  =     12143.39103077
  -Hartree energ DENC   =    -18257.00968698
  -exchange      EXHF   =         0.00000000
  -V(xc)+E(xc)   XCENC  =        29.69753453
  PAW double counting   =      3700.71972520    -3383.50420208
  entropy T*S    EENTRO =         0.00000000
  eigenvalues    EBANDS =     -1783.96346934
  atomic energy  EATOM  =      7277.57480299
  Solvation  Ediel_sol  =         0.00000000
  ---------------------------------------------------
  free energy    TOTEN  =      -102.63675891 eV

  energy without entropy =     -102.63675891  energy(sigma->0) =     -102.63675891


--------------------------------------------------------------------------------------------------------




--------------------------------------- Iteration      1(   5)  ---------------------------------------


     EDDAV:  cpu time    4.0689: real time    4.0890
 BZINTS: Fermi energy: -3.480574;144.000000 electrons
         Band energy:***********;  BLOECHL correction:  0.000000
       DOS:  cpu time    0.0020: real time    0.0020
    CHARGE:  cpu time    0.1558: real time    0.1755
    MIXING:  cpu time    0.0048: real time    0.0098
    --------------------------------------------
      LOOP:  cpu time    4.2315: real time    4.2763

 eigenvalue-minimisations  :  4176
 total energy-change (2. order) :-0.2714864E+00  (-0.2713971E+00)
 number of electron     143.9999986 magnetization 
 augmentation part      -17.7780871 magnetization 

 Broyden mixing:
  rms(total) = 0.92126E+00    rms(broyden)= 0.92125E+00
  rms(prec ) = 0.12041E+01
  weight for this iteration     100.00

 Free energy of the ion-electron system (eV)
  ---------------------------------------------------
  alpha Z        PSCENC =       170.45750602
  Ewald energy   TEWEN  =     12143.39103077
  -Hartree energ DENC   =    -18257.00968698
  -exchange      EXHF   =         0.00000000
  -V(xc)+E(xc)   XCENC  =        29.69753453
  PAW double counting   =      3700.71972520    -3383.50420208
  entropy T*S    EENTRO =         0.00000000
  eigenvalues    EBANDS =     -1784.23495579
  atomic energy  EATOM  =      7277.57480299
  Solvation  Ediel_sol  =         0.00000000
  ---------------------------------------------------
  free energy    TOTEN  =      -102.90824535 eV

  energy without entropy =     -102.90824535  energy(sigma->0) =     -102.90824535


--------------------------------------------------------------------------------------------------------




--------------------------------------- Iteration      1(   6)  ---------------------------------------


    POTLOK:  cpu time    2.6570: real time    2.6740
    SETDIJ:  cpu time    0.0023: real time    0.0023
     EDDAV:  cpu time    2.9614: real time    2.9684
 BZINTS: Fermi energy: -2.241520;144.000000 electrons
         Band energy:***********;  BLOECHL correction:  0.000000
       DOS:  cpu time    0.0028: real time    0.0028
    CHARGE:  cpu time    0.1803: real time    0.1808
    MIXING:  cpu time    0.0067: real time    0.0067
    --------------------------------------------
      LOOP:  cpu time    5.8106: real time    5.8351

 eigenvalue-minimisations  :  3016
 total energy-change (2. order) : 0.8346345E+01  (-0.2096981E+01)
 number of electron     143.9999985 magnetization 
 augmentation part      -17.6454559 magnetization 

 Broyden mixing:
  rms(total) = 0.47124E+00    rms(broyden)= 0.47123E+00
  rms(prec ) = 0.59139E+00
  weight for this iteration     100.00

 eigenvalues of (default mixing * dielectric matrix)
  average eigenvalue GAMMA=   1.5383
  1.5383

 Free energy of the ion-electron system (eV)
  ---------------------------------------------------
  alpha Z        PSCENC =       170.45750602
  Ewald energy   TEWEN  =     12143.39103077
  -Hartree energ DENC   =    -18354.88550474
  -exchange      EXHF   =         0.00000000
  -V(xc)+E(xc)   XCENC  =        32.50026309
  PAW double counting   =      3738.65428415    -3428.61316769
  entropy T*S    EENTRO =         0.00000000
  eigenvalues    EBANDS =     -1673.64111462
  atomic energy  EATOM  =      7277.57480299
  Solvation  Ediel_sol  =         0.00000000
  ---------------------------------------------------
  free energy    TOTEN  =       -94.56190003 eV

  energy without entropy =      -94.56190003  energy(sigma->0) =      -94.56190003


--------------------------------------------------------------------------------------------------------




--------------------------------------- Iteration      1(   7)  ---------------------------------------


    POTLOK:  cpu time    2.6081: real time    2.6246
    SETDIJ:  cpu time    0.0016: real time    0.0016
     EDDAV:  cpu time    3.5345: real time    3.5431
 BZINTS: Fermi energy: -1.455817;144.000000 electrons
         Band energy:***********;  BLOECHL correction:  0.000000
       DOS:  cpu time    0.0021: real time    0.0021
    CHARGE:  cpu time    0.1830: real time    0.1835
    MIXING:  cpu time    0.0064: real time    0.0067
    --------------------------------------------
      LOOP:  cpu time    6.3357: real time    6.3615

 eigenvalue-minimisations  :  3480
 total energy-change (2. order) : 0.1267984E+01  (-0.1011871E+01)
 number of electron     143.9999985 magnetization 
 augmentation part      -17.6996272 magnetization 

 Broyden mixing:
  rms(total) = 0.25105E+00    rms(broyden)= 0.25104E+00
  rms(prec ) = 0.29965E+00
  weight for this iteration     100.00

 eigenvalues of (default mixing * dielectric matrix)
  average eigenvalue GAMMA=   1.8506
  1.8506  1.8506

 Free energy of the ion-electron system (eV)
  ---------------------------------------------------
  alpha Z        PSCENC =       170.45750602
  Ewald energy   TEWEN  =     12143.39103077
  -Hartree energ DENC   =    -18434.59238546
  -exchange      EXHF   =         0.00000000
  -V(xc)+E(xc)   XCENC  =        34.84672530
  PAW double counting   =      3787.00713625    -3482.77920712
  entropy T*S    EENTRO =         0.00000000
  eigenvalues    EBANDS =     -1589.19952432
  atomic energy  EATOM  =      7277.57480299
  Solvation  Ediel_sol  =         0.00000000
  ---------------------------------------------------
  free energy    TOTEN  =       -93.29391556 eV

  energy without entropy =      -93.29391556  energy(sigma->0) =      -93.29391556


--------------------------------------------------------------------------------------------------------




--------------------------------------- Iteration      1(   8)  ---------------------------------------


    POTLOK:  cpu time    2.4991: real time    2.5157
    SETDIJ:  cpu time    0.1231: real time    0.1234
     EDDAV:  cpu time    3.2164: real time    3.2241
 BZINTS: Fermi energy: -1.308844;144.000000 electrons
         Band energy:***********;  BLOECHL correction:  0.000000
       DOS:  cpu time    0.0027: real time    0.0027
    CHARGE:  cpu time    0.1760: real time    0.1764
    MIXING:  cpu time    0.0054: real time    0.0060
    --------------------------------------------
      LOOP:  cpu time    6.0227: real time    6.0482

 eigenvalue-minimisations  :  3120
 total energy-change (2. order) : 0.2434943E+00  (-0.3715641E+00)
 number of electron     143.9999985 magnetization 
 augmentation part      -17.8142661 magnetization 

 Broyden mixing:
  rms(total) = 0.12073E+00    rms(broyden)= 0.12073E+00
  rms(prec ) = 0.19466E+00
  weight for this iteration     100.00

 eigenvalues of (default mixing * dielectric matrix)
  average eigenvalue GAMMA=   1.6876
  2.6618  1.2005  1.2005

 Free energy of the ion-electron system (eV)
  ---------------------------------------------------
  alpha Z        PSCENC =       170.45750602
  Ewald energy   TEWEN  =     12143.39103077
  -Hartree energ DENC   =    -18467.40398312
  -exchange      EXHF   =         0.00000000
  -V(xc)+E(xc)   XCENC  =        35.86100606
  PAW double counting   =      3837.17558867    -3534.73210651
  entropy T*S    EENTRO =         0.00000000
  eigenvalues    EBANDS =     -1555.37426610
  atomic energy  EATOM  =      7277.57480299
  Solvation  Ediel_sol  =         0.00000000
  ---------------------------------------------------
  free energy    TOTEN  =       -93.05042122 eV

  energy without entropy =      -93.05042122  energy(sigma->0) =      -93.05042122


--------------------------------------------------------------------------------------------------------




--------------------------------------- Iteration      1(   9)  ---------------------------------------


    POTLOK:  cpu time    2.5515: real time    2.5682
    SETDIJ:  cpu time    0.0094: real time    0.0094
     EDDAV:  cpu time    3.0093: real time    3.0164
 BZINTS: Fermi energy: -0.954252;144.000000 electrons
         Band energy:***********;  BLOECHL correction:  0.000000
       DOS:  cpu time    0.0023: real time    0.0023
    CHARGE:  cpu time    0.1830: real time    0.1835
    MIXING:  cpu time    0.0068: real time    0.0068
    --------------------------------------------
      LOOP:  cpu time    5.7622: real time    5.7865

 eigenvalue-minimisations  :  3096
 total energy-change (2. order) : 0.2921759E+00  (-0.1218646E+00)
 number of electron     143.9999985 magnetization 
 augmentation part      -17.7789554 magnetization 

 Broyden mixing:
  rms(total) = 0.56102E-01    rms(broyden)= 0.56102E-01
  rms(prec ) = 0.78228E-01
  weight for this iteration     100.00

 eigenvalues of (default mixing * dielectric matrix)
  average eigenvalue GAMMA=   1.4072
  2.5971  1.2118  1.2118  0.6079

 Free energy of the ion-electron system (eV)
  ---------------------------------------------------
  alpha Z        PSCENC =       170.45750602
  Ewald energy   TEWEN  =     12143.39103077
  -Hartree energ DENC   =    -18509.37279596
  -exchange      EXHF   =         0.00000000
  -V(xc)+E(xc)   XCENC  =        36.83547166
  PAW double counting   =      3849.62643050    -3548.59423902
  entropy T*S    EENTRO =         0.00000000
  eigenvalues    EBANDS =     -1512.67645232
  atomic energy  EATOM  =      7277.57480299
  Solvation  Ediel_sol  =         0.00000000
  ---------------------------------------------------
  free energy    TOTEN  =       -92.75824536 eV

  energy without entropy =      -92.75824536  energy(sigma->0) =      -92.75824536


--------------------------------------------------------------------------------------------------------




--------------------------------------- Iteration      1(  10)  ---------------------------------------


    POTLOK:  cpu time    2.5483: real time    2.5653
    SETDIJ:  cpu time    0.0418: real time    0.0419
     EDDAV:  cpu time    3.4579: real time    3.4661
 BZINTS: Fermi energy: -0.832529;144.000000 electrons
         Band energy:***********;  BLOECHL correction:  0.000000
       DOS:  cpu time    0.0022: real time    0.0022
    CHARGE:  cpu time    0.1602: real time    0.1606
    MIXING:  cpu time    0.0068: real time    0.0069
    --------------------------------------------
      LOOP:  cpu time    6.2173: real time    6.2430

 eigenvalue-minimisations  :  3592
 total energy-change (2. order) : 0.1103119E-01  (-0.2486566E-01)
 number of electron     143.9999985 magnetization 
 augmentation part      -17.7930263 magnetization 

 Broyden mixing:
  rms(total) = 0.41371E-01    rms(broyden)= 0.41371E-01
  rms(prec ) = 0.61394E-01
  weight for this iteration     100.00

 eigenvalues of (default mixing * dielectric matrix)
  average eigenvalue GAMMA=   1.5510
  2.5706  2.1482  1.1676  0.9344  0.9344

 Free energy of the ion-electron system (eV)
  ---------------------------------------------------
  alpha Z        PSCENC =       170.45750602
  Ewald energy   TEWEN  =     12143.39103077
  -Hartree energ DENC   =    -18517.13811381
  -exchange      EXHF   =         0.00000000
  -V(xc)+E(xc)   XCENC  =        36.83371802
  PAW double counting   =      3844.38330858    -3543.02700025
  entropy T*S    EENTRO =         0.00000000
  eigenvalues    EBANDS =     -1505.22246649
  atomic energy  EATOM  =      7277.57480299
  Solvation  Ediel_sol  =         0.00000000
  ---------------------------------------------------
  free energy    TOTEN  =       -92.74721417 eV

  energy without entropy =      -92.74721417  energy(sigma->0) =      -92.74721417


--------------------------------------------------------------------------------------------------------




--------------------------------------- Iteration      1(  11)  ---------------------------------------


    POTLOK:  cpu time    2.6949: real time    2.7116
    SETDIJ:  cpu time    0.0019: real time    0.0019
     EDDAV:  cpu time    3.1496: real time    3.1571
 BZINTS: Fermi energy: -0.816797;144.000000 electrons
         Band energy:***********;  BLOECHL correction:  0.000000
       DOS:  cpu time    0.0020: real time    0.0020
    CHARGE:  cpu time    0.1851: real time    0.1856
    MIXING:  cpu time    0.0093: real time    0.0093
    --------------------------------------------
      LOOP:  cpu time    6.0429: real time    6.0675

 eigenvalue-minimisations  :  3240
 total energy-change (2. order) : 0.3177032E-01  (-0.6393687E-02)
 number of electron     143.9999985 magnetization 
 augmentation part      -17.7985310 magnetization 

 Broyden mixing:
  rms(total) = 0.16455E-01    rms(broyden)= 0.16455E-01
  rms(prec ) = 0.32494E-01
  weight for this iteration     100.00

 eigenvalues of (default mixing * dielectric matrix)
  average eigenvalue GAMMA=   1.5951
  2.7672  2.7672  1.2136  0.9557  0.9336  0.9336

 Free energy of the ion-electron system (eV)
  ---------------------------------------------------
  alpha Z        PSCENC =       170.45750602
  Ewald energy   TEWEN  =     12143.39103077
  -Hartree energ DENC   =    -18532.56515314
  -exchange      EXHF   =         0.00000000
  -V(xc)+E(xc)   XCENC  =        36.98803221
  PAW double counting   =      3845.14263666    -3543.51619660
  entropy T*S    EENTRO =         0.00000000
  eigenvalues    EBANDS =     -1490.18810276
  atomic energy  EATOM  =      7277.57480299
  Solvation  Ediel_sol  =         0.00000000
  ---------------------------------------------------
  free energy    TOTEN  =       -92.71544384 eV

  energy without entropy =      -92.71544384  energy(sigma->0) =      -92.71544384


--------------------------------------------------------------------------------------------------------




--------------------------------------- Iteration      1(  12)  ---------------------------------------


    POTLOK:  cpu time    2.6740: real time    2.6899
    SETDIJ:  cpu time    0.0024: real time    0.0024
     EDDAV:  cpu time    3.3757: real time    3.3837
 BZINTS: Fermi energy: -0.739748;144.000000 electrons
         Band energy:***********;  BLOECHL correction:  0.000000
       DOS:  cpu time    0.0019: real time    0.0019
    CHARGE:  cpu time    0.1720: real time    0.1724
    MIXING:  cpu time    0.0073: real time    0.0073
    --------------------------------------------
      LOOP:  cpu time    6.2333: real time    6.2576

 eigenvalue-minimisations  :  3320
 total energy-change (2. order) :-0.1921377E-01  (-0.1567907E-02)
 number of electron     143.9999985 magnetization 
 augmentation part      -17.7933932 magnetization 

 Broyden mixing:
  rms(total) = 0.11958E-01    rms(broyden)= 0.11958E-01
  rms(prec ) = 0.20847E-01
  weight for this iteration     100.00

 eigenvalues of (default mixing * dielectric matrix)
  average eigenvalue GAMMA=   1.7150
  3.4390  2.5970  1.9639  1.1252  1.1252  0.8773  0.8773

 Free energy of the ion-electron system (eV)
  ---------------------------------------------------
  alpha Z        PSCENC =       170.45750602
  Ewald energy   TEWEN  =     12143.39103077
  -Hartree energ DENC   =    -18545.09670595
  -exchange      EXHF   =         0.00000000
  -V(xc)+E(xc)   XCENC  =        37.01939796
  PAW double counting   =      3842.36510697    -3540.54286946
  entropy T*S    EENTRO =         0.00000000
  eigenvalues    EBANDS =     -1477.90292692
  atomic energy  EATOM  =      7277.57480299
  Solvation  Ediel_sol  =         0.00000000
  ---------------------------------------------------
  free energy    TOTEN  =       -92.73465761 eV

  energy without entropy =      -92.73465761  energy(sigma->0) =      -92.73465761


--------------------------------------------------------------------------------------------------------




--------------------------------------- Iteration      1(  13)  ---------------------------------------


    POTLOK:  cpu time    2.6068: real time    2.6237
    SETDIJ:  cpu time    0.0419: real time    0.0420
     EDDAV:  cpu time    3.3928: real time    3.4009
 BZINTS: Fermi energy: -0.601077;144.000000 electrons
         Band energy:***********;  BLOECHL correction:  0.000000
       DOS:  cpu time    0.0023: real time    0.0023
    CHARGE:  cpu time    0.1713: real time    0.1717
    MIXING:  cpu time    0.0071: real time    0.0071
    --------------------------------------------
      LOOP:  cpu time    6.2222: real time    6.2477

 eigenvalue-minimisations  :  3264
 total energy-change (2. order) : 0.8482419E-02  (-0.8022730E-03)
 number of electron     143.9999985 magnetization 
 augmentation part      -17.7940164 magnetization 

 Broyden mixing:
  rms(total) = 0.60492E-02    rms(broyden)= 0.60492E-02
  rms(prec ) = 0.10352E-01
  weight for this iteration     100.00

 eigenvalues of (default mixing * dielectric matrix)
  average eigenvalue GAMMA=   1.7801
  4.0203  2.7943  2.3673  1.2195  1.2195  0.8869  0.8666  0.8666

 Free energy of the ion-electron system (eV)
  ---------------------------------------------------
  alpha Z        PSCENC =       170.45750602
  Ewald energy   TEWEN  =     12143.39103077
  -Hartree energ DENC   =    -18554.85739479
  -exchange      EXHF   =         0.00000000
  -V(xc)+E(xc)   XCENC  =        37.08428906
  PAW double counting   =      3840.98073122    -3539.25811163
  entropy T*S    EENTRO =         0.00000000
  eigenvalues    EBANDS =     -1468.09902883
  atomic energy  EATOM  =      7277.57480299
  Solvation  Ediel_sol  =         0.00000000
  ---------------------------------------------------
  free energy    TOTEN  =       -92.72617519 eV

  energy without entropy =      -92.72617519  energy(sigma->0) =      -92.72617519


--------------------------------------------------------------------------------------------------------




--------------------------------------- Iteration      1(  14)  ---------------------------------------


    POTLOK:  cpu time    2.6531: real time    2.6704
    SETDIJ:  cpu time    0.0024: real time    0.0024
     EDDAV:  cpu time    3.1282: real time    3.1356
 BZINTS: Fermi energy: -0.581093;144.000000 electrons
         Band energy:***********;  BLOECHL correction:  0.000000
       DOS:  cpu time    0.0023: real time    0.0023
    CHARGE:  cpu time    0.1887: real time    0.1891
    MIXING:  cpu time    0.0073: real time    0.0073
    --------------------------------------------
      LOOP:  cpu time    5.9819: real time    6.0071

 eigenvalue-minimisations  :  3184
 total energy-change (2. order) : 0.7618959E-02  (-0.2850626E-03)
 number of electron     143.9999985 magnetization 
 augmentation part      -17.7948030 magnetization 

 Broyden mixing:
  rms(total) = 0.52726E-02    rms(broyden)= 0.52726E-02
  rms(prec ) = 0.84400E-02
  weight for this iteration     100.00

 eigenvalues of (default mixing * dielectric matrix)
  average eigenvalue GAMMA=   1.8311
  4.4703  3.0858  1.8542  1.8542  0.8858  0.8858  1.3366  1.0537  1.0537

 Free energy of the ion-electron system (eV)
  ---------------------------------------------------
  alpha Z        PSCENC =       170.45750602
  Ewald energy   TEWEN  =     12143.39103077
  -Hartree energ DENC   =    -18558.53736809
  -exchange      EXHF   =         0.00000000
  -V(xc)+E(xc)   XCENC  =        37.10428796
  PAW double counting   =      3840.30670774    -3538.59876553
  entropy T*S    EENTRO =         0.00000000
  eigenvalues    EBANDS =     -1464.41675809
  atomic energy  EATOM  =      7277.57480299
  Solvation  Ediel_sol  =         0.00000000
  ---------------------------------------------------
  free energy    TOTEN  =       -92.71855623 eV

  energy without entropy =      -92.71855623  energy(sigma->0) =      -92.71855623


--------------------------------------------------------------------------------------------------------




--------------------------------------- Iteration      1(  15)  ---------------------------------------


    POTLOK:  cpu time    2.4884: real time    2.5050
    SETDIJ:  cpu time    0.0708: real time    0.0709
     EDDAV:  cpu time    2.7174: real time    2.7239
 BZINTS: Fermi energy: -0.579196;144.000000 electrons
         Band energy:***********;  BLOECHL correction:  0.000000
       DOS:  cpu time    0.0025: real time    0.0025
    CHARGE:  cpu time    0.1519: real time    0.1523
    MIXING:  cpu time    0.0108: real time    0.0108
    --------------------------------------------
      LOOP:  cpu time    5.4417: real time    5.4654

 eigenvalue-minimisations  :  2904
 total energy-change (2. order) :-0.1499313E-02  (-0.2271202E-03)
 number of electron     143.9999985 magnetization 
 augmentation part      -17.7962093 magnetization 

 Broyden mixing:
  rms(total) = 0.18566E-02    rms(broyden)= 0.18566E-02
  rms(prec ) = 0.36022E-02
  weight for this iteration     100.00

 eigenvalues of (default mixing * dielectric matrix)
  average eigenvalue GAMMA=   1.9294
  5.3728  3.3292  2.5760  1.6027  0.8847  0.8847  1.2947  1.2947  1.0272  1.0272

 Free energy of the ion-electron system (eV)
  ---------------------------------------------------
  alpha Z        PSCENC =       170.45750602
  Ewald energy   TEWEN  =     12143.39103077
  -Hartree energ DENC   =    -18559.92262284
  -exchange      EXHF   =         0.00000000
  -V(xc)+E(xc)   XCENC  =        37.09508448
  PAW double counting   =      3840.72518473    -3538.99105856
  entropy T*S    EENTRO =         0.00000000
  eigenvalues    EBANDS =     -1463.04998314
  atomic energy  EATOM  =      7277.57480299
  Solvation  Ediel_sol  =         0.00000000
  ---------------------------------------------------
  free energy    TOTEN  =       -92.72005555 eV

  energy without entropy =      -92.72005555  energy(sigma->0) =      -92.72005555


--------------------------------------------------------------------------------------------------------




--------------------------------------- Iteration      1(  16)  ---------------------------------------


    POTLOK:  cpu time    2.6515: real time    2.6708
    SETDIJ:  cpu time    0.0017: real time    0.0017
     EDDAV:  cpu time    3.0175: real time    3.0247
 BZINTS: Fermi energy: -0.574158;144.000000 electrons
         Band energy:***********;  BLOECHL correction:  0.000000
       DOS:  cpu time    0.0024: real time    0.0024
    CHARGE:  cpu time    0.1832: real time    0.1836
    MIXING:  cpu time    0.0070: real time    0.0071
    --------------------------------------------
      LOOP:  cpu time    5.8633: real time    5.8902

 eigenvalue-minimisations  :  3080
 total energy-change (2. order) : 0.5583706E-03  (-0.1316844E-03)
 number of electron     143.9999985 magnetization 
 augmentation part      -17.7960219 magnetization 

 Broyden mixing:
  rms(total) = 0.14331E-02    rms(broyden)= 0.14331E-02
  rms(prec ) = 0.25187E-02
  weight for this iteration     100.00

 eigenvalues of (default mixing * dielectric matrix)
  average eigenvalue GAMMA=   1.9965
  5.6973  3.7069  2.5240  1.8516  1.8516  0.8868  0.8868  1.2579  1.2579  1.0204
  1.0204

 Free energy of the ion-electron system (eV)
  ---------------------------------------------------
  alpha Z        PSCENC =       170.45750602
  Ewald energy   TEWEN  =     12143.39103077
  -Hartree energ DENC   =    -18561.45605861
  -exchange      EXHF   =         0.00000000
  -V(xc)+E(xc)   XCENC  =        37.09985875
  PAW double counting   =      3840.95422117    -3539.23584813
  entropy T*S    EENTRO =         0.00000000
  eigenvalues    EBANDS =     -1461.50501013
  atomic energy  EATOM  =      7277.57480299
  Solvation  Ediel_sol  =         0.00000000
  ---------------------------------------------------
  free energy    TOTEN  =       -92.71949718 eV

  energy without entropy =      -92.71949718  energy(sigma->0) =      -92.71949718


--------------------------------------------------------------------------------------------------------




--------------------------------------- Iteration      1(  17)  ---------------------------------------


    POTLOK:  cpu time    2.6062: real time    2.6233
    SETDIJ:  cpu time    0.0021: real time    0.0021
     EDDAV:  cpu time    3.0298: real time    3.0370
 BZINTS: Fermi energy: -0.567690;144.000000 electrons
         Band energy:***********;  BLOECHL correction:  0.000000
       DOS:  cpu time    0.0026: real time    0.0026
    CHARGE:  cpu time    0.1608: real time    0.1611
    MIXING:  cpu time    0.0087: real time    0.0088
    --------------------------------------------
      LOOP:  cpu time    5.8102: real time    5.8350

 eigenvalue-minimisations  :  2904
 total energy-change (2. order) : 0.3820036E-03  (-0.9256993E-04)
 number of electron     143.9999985 magnetization 
 augmentation part      -17.7959985 magnetization 

 Broyden mixing:
  rms(total) = 0.83422E-03    rms(broyden)= 0.83422E-03
  rms(prec ) = 0.15782E-02
  weight for this iteration     100.00

 eigenvalues of (default mixing * dielectric matrix)
  average eigenvalue GAMMA=   1.9959
  5.9686  3.9310  2.7646  2.1706  1.4421  1.4421  0.8861  0.8861  1.4112  1.0333
  1.0333  0.9814

 Free energy of the ion-electron system (eV)
  ---------------------------------------------------
  alpha Z        PSCENC =       170.45750602
  Ewald energy   TEWEN  =     12143.39103077
  -Hartree energ DENC   =    -18562.52687771
  -exchange      EXHF   =         0.00000000
  -V(xc)+E(xc)   XCENC  =        37.10154083
  PAW double counting   =      3840.89009886    -3539.16715368
  entropy T*S    EENTRO =         0.00000000
  eigenvalues    EBANDS =     -1460.44006325
  atomic energy  EATOM  =      7277.57480299
  Solvation  Ediel_sol  =         0.00000000
  ---------------------------------------------------
  free energy    TOTEN  =       -92.71911517 eV

  energy without entropy =      -92.71911517  energy(sigma->0) =      -92.71911517


--------------------------------------------------------------------------------------------------------




--------------------------------------- Iteration      1(  18)  ---------------------------------------


    POTLOK:  cpu time    2.5754: real time    2.5927
    SETDIJ:  cpu time    0.0695: real time    0.0696
     EDDAV:  cpu time    2.8119: real time    2.8186
 BZINTS: Fermi energy: -0.568153;144.000000 electrons
         Band energy:***********;  BLOECHL correction:  0.000000
       DOS:  cpu time    0.0023: real time    0.0023
    CHARGE:  cpu time    0.1793: real time    0.1798
    MIXING:  cpu time    0.0070: real time    0.0070
    --------------------------------------------
      LOOP:  cpu time    5.6454: real time    5.6700

 eigenvalue-minimisations  :  2608
 total energy-change (2. order) :-0.4415762E-03  (-0.2605637E-04)
 number of electron     143.9999985 magnetization 
 augmentation part      -17.7959381 magnetization 

 Broyden mixing:
  rms(total) = 0.53972E-03    rms(broyden)= 0.53972E-03
  rms(prec ) = 0.99110E-03
  weight for this iteration     100.00

 eigenvalues of (default mixing * dielectric matrix)
  average eigenvalue GAMMA=   2.0703
  6.3563  4.4653  2.6811  2.6811  1.8583  1.4003  1.4003  0.8857  0.8857  1.1722
  1.1722  0.9774  0.9774

 Free energy of the ion-electron system (eV)
  ---------------------------------------------------
  alpha Z        PSCENC =       170.45750602
  Ewald energy   TEWEN  =     12143.39103077
  -Hartree energ DENC   =    -18563.02462337
  -exchange      EXHF   =         0.00000000
  -V(xc)+E(xc)   XCENC  =        37.10358506
  PAW double counting   =      3840.89146529    -3539.16689707
  entropy T*S    EENTRO =         0.00000000
  eigenvalues    EBANDS =     -1459.94642643
  atomic energy  EATOM  =      7277.57480299
  Solvation  Ediel_sol  =         0.00000000
  ---------------------------------------------------
  free energy    TOTEN  =       -92.71955675 eV

  energy without entropy =      -92.71955675  energy(sigma->0) =      -92.71955675


--------------------------------------------------------------------------------------------------------




--------------------------------------- Iteration      1(  19)  ---------------------------------------


    POTLOK:  cpu time    2.5963: real time    2.6130
    SETDIJ:  cpu time    0.0023: real time    0.0023
     EDDAV:  cpu time    2.6172: real time    2.6234
 BZINTS: Fermi energy: -0.567855;144.000000 electrons
         Band energy:***********;  BLOECHL correction:  0.000000
       DOS:  cpu time    0.0024: real time    0.0024
    CHARGE:  cpu time    0.1772: real time    0.1776
    MIXING:  cpu time    0.0067: real time    0.0068
    --------------------------------------------
      LOOP:  cpu time    5.4022: real time    5.4255

 eigenvalue-minimisations  :  2584
 total energy-change (2. order) :-0.6545258E-03  (-0.2333795E-04)
 number of electron     143.9999985 magnetization 
 augmentation part      -17.7961225 magnetization 

 Broyden mixing:
  rms(total) = 0.42993E-03    rms(broyden)= 0.42993E-03
  rms(prec ) = 0.65257E-03
  weight for this iteration     100.00

 eigenvalues of (default mixing * dielectric matrix)
  average eigenvalue GAMMA=   2.1350
  6.6776  4.9909  3.1024  2.7179  1.8611  1.6277  1.6277  0.8858  0.8858  1.2703
  1.2703  0.9554  1.0088  1.0088

 Free energy of the ion-electron system (eV)
  ---------------------------------------------------
  alpha Z        PSCENC =       170.45750602
  Ewald energy   TEWEN  =     12143.39103077
  -Hartree energ DENC   =    -18563.36422826
  -exchange      EXHF   =         0.00000000
  -V(xc)+E(xc)   XCENC  =        37.10218037
  PAW double counting   =      3840.81597453    -3539.08863631
  entropy T*S    EENTRO =         0.00000000
  eigenvalues    EBANDS =     -1459.60884137
  atomic energy  EATOM  =      7277.57480299
  Solvation  Ediel_sol  =         0.00000000
  ---------------------------------------------------
  free energy    TOTEN  =       -92.72021127 eV

  energy without entropy =      -92.72021127  energy(sigma->0) =      -92.72021127


--------------------------------------------------------------------------------------------------------




--------------------------------------- Iteration      1(  20)  ---------------------------------------


    POTLOK:  cpu time    2.5473: real time    2.5651
    SETDIJ:  cpu time    0.0408: real time    0.0409
     EDDAV:  cpu time    2.6362: real time    2.6425
 BZINTS: Fermi energy: -0.571024;144.000000 electrons
         Band energy:***********;  BLOECHL correction:  0.000000
       DOS:  cpu time    0.0025: real time    0.0025
    CHARGE:  cpu time    0.1485: real time    0.1489
    MIXING:  cpu time    0.0073: real time    0.0074
    --------------------------------------------
      LOOP:  cpu time    5.3827: real time    5.4072

 eigenvalue-minimisations  :  2488
 total energy-change (2. order) :-0.4764013E-03  (-0.1759910E-04)
 number of electron     143.9999985 magnetization 
 augmentation part      -17.7962004 magnetization 

 Broyden mixing:
  rms(total) = 0.24279E-03    rms(broyden)= 0.24279E-03
  rms(prec ) = 0.36899E-03
  weight for this iteration     100.00

 eigenvalues of (default mixing * dielectric matrix)
  average eigenvalue GAMMA=   2.2651
  7.2706  6.1643  3.1791  3.1791  2.4896  1.6073  1.6073  0.8858  0.8858  1.3059
  1.3059  1.0853  1.0853  0.9625  0.9625

 Free energy of the ion-electron system (eV)
  ---------------------------------------------------
  alpha Z        PSCENC =       170.45750602
  Ewald energy   TEWEN  =     12143.39103077
  -Hartree energ DENC   =    -18563.50048984
  -exchange      EXHF   =         0.00000000
  -V(xc)+E(xc)   XCENC  =        37.10266599
  PAW double counting   =      3840.83112658    -3539.10340765
  entropy T*S    EENTRO =         0.00000000
  eigenvalues    EBANDS =     -1459.47392254
  atomic energy  EATOM  =      7277.57480299
  Solvation  Ediel_sol  =         0.00000000
  ---------------------------------------------------
  free energy    TOTEN  =       -92.72068768 eV

  energy without entropy =      -92.72068768  energy(sigma->0) =      -92.72068768


--------------------------------------------------------------------------------------------------------




--------------------------------------- Iteration      1(  21)  ---------------------------------------


    POTLOK:  cpu time    2.6334: real time    2.6512
    SETDIJ:  cpu time    0.0017: real time    0.0017
     EDDAV:  cpu time    2.5848: real time    2.5909
 BZINTS: Fermi energy: -0.581506;144.000000 electrons
         Band energy:***********;  BLOECHL correction:  0.000000
       DOS:  cpu time    0.0024: real time    0.0024
    CHARGE:  cpu time    0.1589: real time    0.1593
    MIXING:  cpu time    0.0077: real time    0.0078
    --------------------------------------------
      LOOP:  cpu time    5.3890: real time    5.4134

 eigenvalue-minimisations  :  2544
 total energy-change (2. order) :-0.4040121E-03  (-0.2042085E-04)
 number of electron     143.9999985 magnetization 
 augmentation part      -17.7962156 magnetization 

 Broyden mixing:
  rms(total) = 0.13147E-03    rms(broyden)= 0.13147E-03
  rms(prec ) = 0.15497E-03
  weight for this iteration     100.00

 eigenvalues of (default mixing * dielectric matrix)
  average eigenvalue GAMMA=   2.3002
  7.9676  6.4656  3.2373  3.2373  2.4398  1.8784  1.8784  0.8858  0.8858  1.3320
  1.3320  1.1495  1.1495  0.9875  0.9875  0.9892

 Free energy of the ion-electron system (eV)
  ---------------------------------------------------
  alpha Z        PSCENC =       170.45750602
  Ewald energy   TEWEN  =     12143.39103077
  -Hartree energ DENC   =    -18563.41394461
  -exchange      EXHF   =         0.00000000
  -V(xc)+E(xc)   XCENC  =        37.10186276
  PAW double counting   =      3840.85325995    -3539.12689993
  entropy T*S    EENTRO =         0.00000000
  eigenvalues    EBANDS =     -1459.55870965
  atomic energy  EATOM  =      7277.57480299
  Solvation  Ediel_sol  =         0.00000000
  ---------------------------------------------------
  free energy    TOTEN  =       -92.72109169 eV

  energy without entropy =      -92.72109169  energy(sigma->0) =      -92.72109169


--------------------------------------------------------------------------------------------------------




--------------------------------------- Iteration      1(  22)  ---------------------------------------


    POTLOK:  cpu time    2.6043: real time    2.6212
    SETDIJ:  cpu time    0.0017: real time    0.0017
     EDDAV:  cpu time    2.2689: real time    2.2742
 BZINTS: Fermi energy: -0.585829;144.000000 electrons
         Band energy:***********;  BLOECHL correction:  0.000000
       DOS:  cpu time    0.0023: real time    0.0023
    CHARGE:  cpu time    0.1636: real time    0.1640
    MIXING:  cpu time    0.0083: real time    0.0084
    --------------------------------------------
      LOOP:  cpu time    5.0490: real time    5.0717

 eigenvalue-minimisations  :  2056
 total energy-change (2. order) :-0.1822344E-04  (-0.6098165E-05)
 number of electron     143.9999985 magnetization 
 augmentation part      -17.7961838 magnetization 

 Broyden mixing:
  rms(total) = 0.71779E-04    rms(broyden)= 0.71779E-04
  rms(prec ) = 0.89895E-04
  weight for this iteration     100.00

 eigenvalues of (default mixing * dielectric matrix)
  average eigenvalue GAMMA=   2.3188
  8.5613  6.9411  3.3500  3.3500  2.5089  1.9136  1.9136  0.8858  0.8858  1.2452
  1.2452  0.9707  0.9707  1.2398  1.2398  1.0992  1.0992

 Free energy of the ion-electron system (eV)
  ---------------------------------------------------
  alpha Z        PSCENC =       170.45750602
  Ewald energy   TEWEN  =     12143.39103077
  -Hartree energ DENC   =    -18563.41034370
  -exchange      EXHF   =         0.00000000
  -V(xc)+E(xc)   XCENC  =        37.10156571
  PAW double counting   =      3840.83197958    -3539.10540858
  entropy T*S    EENTRO =         0.00000000
  eigenvalues    EBANDS =     -1459.56224270
  atomic energy  EATOM  =      7277.57480299
  Solvation  Ediel_sol  =         0.00000000
  ---------------------------------------------------
  free energy    TOTEN  =       -92.72110991 eV

  energy without entropy =      -92.72110991  energy(sigma->0) =      -92.72110991


--------------------------------------------------------------------------------------------------------




--------------------------------------- Iteration      1(  23)  ---------------------------------------


    POTLOK:  cpu time    2.5161: real time    2.5334
    SETDIJ:  cpu time    0.0764: real time    0.0766
     EDDAV:  cpu time    2.5100: real time    2.5159
 BZINTS: Fermi energy: -0.567730;144.000000 electrons
         Band energy:***********;  BLOECHL correction:  0.000000
       DOS:  cpu time    0.0022: real time    0.0022
    CHARGE:  cpu time    0.1858: real time    0.1862
    MIXING:  cpu time    0.0085: real time    0.0086
    --------------------------------------------
      LOOP:  cpu time    5.2989: real time    5.3229

 eigenvalue-minimisations  :  2280
 total energy-change (2. order) : 0.1875396E-04  (-0.3702818E-05)
 number of electron     143.9999985 magnetization 
 augmentation part      -17.7961763 magnetization 

 Broyden mixing:
  rms(total) = 0.36959E-04    rms(broyden)= 0.36958E-04
  rms(prec ) = 0.48662E-04
  weight for this iteration     100.00

 eigenvalues of (default mixing * dielectric matrix)
  average eigenvalue GAMMA=   2.3108
  8.7078  7.0425  3.4592  3.4592  2.6326  1.9093  1.9093  1.5722  0.8858  0.8858
  1.2856  1.2856  1.3673  1.1166  1.1166  0.9909  0.9909  0.9777

 Free energy of the ion-electron system (eV)
  ---------------------------------------------------
  alpha Z        PSCENC =       170.45750602
  Ewald energy   TEWEN  =     12143.39103077
  -Hartree energ DENC   =    -18563.39604005
  -exchange      EXHF   =         0.00000000
  -V(xc)+E(xc)   XCENC  =        37.10142546
  PAW double counting   =      3840.83015312    -3539.10355130
  entropy T*S    EENTRO =         0.00000000
  eigenvalues    EBANDS =     -1459.57641816
  atomic energy  EATOM  =      7277.57480299
  Solvation  Ediel_sol  =         0.00000000
  ---------------------------------------------------
  free energy    TOTEN  =       -92.72109116 eV

  energy without entropy =      -92.72109116  energy(sigma->0) =      -92.72109116


--------------------------------------------------------------------------------------------------------




--------------------------------------- Iteration      1(  24)  ---------------------------------------


    POTLOK:  cpu time    2.5873: real time    2.6041
    SETDIJ:  cpu time    0.0022: real time    0.0022
     EDDAV:  cpu time    2.2853: real time    2.2906
 BZINTS: Fermi energy: -0.572995;144.000000 electrons
         Band energy:***********;  BLOECHL correction:  0.000000
       DOS:  cpu time    0.0023: real time    0.0023
    CHARGE:  cpu time    0.1648: real time    0.1652
    MIXING:  cpu time    0.0083: real time    0.0083
    --------------------------------------------
      LOOP:  cpu time    5.0502: real time    5.0727

 eigenvalue-minimisations  :  2056
 total energy-change (2. order) : 0.1916545E-04  (-0.3280355E-05)
 number of electron     143.9999985 magnetization 
 augmentation part      -17.7961723 magnetization 

 Broyden mixing:
  rms(total) = 0.23218E-04    rms(broyden)= 0.23217E-04
  rms(prec ) = 0.33716E-04
  weight for this iteration     100.00

 eigenvalues of (default mixing * dielectric matrix)
  average eigenvalue GAMMA=   2.3080
  8.6477  7.2611  3.5063  3.5063  2.7517  2.2211  2.2211  1.8667  0.8858  0.8858
  1.2532  1.2532  1.2266  1.2266  0.9877  0.9877  0.9945  1.0842  1.0842

 Free energy of the ion-electron system (eV)
  ---------------------------------------------------
[...]
      7     -28.0804      2.00000
      8     -28.0800      2.00000
      9     -15.0522      2.00000
     10     -15.0519      2.00000
     11     -14.9897      2.00000
     12     -14.9896      2.00000
     13     -14.9244      2.00000
     14     -14.9244      2.00000
     15     -14.1575      2.00000
     16     -14.1567      2.00000
     17     -14.0306      2.00000
     18     -14.0232      2.00000
     19     -14.0062      2.00000
     20     -14.0044      2.00000
     21     -13.9847      2.00000
     22     -13.9823      2.00000
     23     -13.9560      2.00000
     24     -13.9540      2.00000
     25     -13.8872      2.00000
     26     -13.8785      2.00000
     27     -13.4213      2.00000
     28     -13.4126      2.00000
     29     -13.3752      2.00000
     30     -13.3677      2.00000
     31     -13.3455      2.00000
     32     -13.3442      2.00000
     33     -11.0991      2.00000
     34     -11.0854      2.00000
     35     -10.7023      2.00000
     36     -10.6864      2.00000
     37      -6.5906      2.00000
     38      -6.5718      2.00000
     39      -6.3364      2.00000
     40      -6.3258      2.00000
     41      -6.2536      2.00000
     42      -6.2410      2.00000
     43      -6.0141      2.00000
     44      -6.0009      2.00000
     45      -5.9473      2.00000
     46      -5.8997      2.00000
     47      -5.8546      2.00000
     48      -5.7411      2.00000
     49      -2.9135      2.00000
     50      -2.8204      2.00000
     51      -2.6660      2.00000
     52      -2.6065      2.00000
     53      -2.3500      2.00000
     54      -2.2498      2.00000
     55      -2.2323      2.00000
     56      -2.2099      2.00000
     57      -2.0393      2.00000
     58      -2.0144      2.00000
     59      -1.9385      2.00000
     60      -1.8558      2.00000
     61      -1.7579      2.00000
     62      -1.6950      2.00000
     63      -1.6066      2.00000
     64      -1.5289      2.00000
     65      -1.3987      2.00000
     66      -1.3311      2.00000
     67      -1.2733      2.00000
     68      -1.1601      2.00000
     69      -1.0350      2.00000
     70      -0.9345      2.00000
     71      -0.9327      2.00000
     72      -0.8598      2.00000
     73       0.1798      0.00000
     74       0.2229      0.00000
     75       0.3768      0.00000
     76       0.4225      0.00000
     77       0.5100      0.00000
     78       0.6228      0.00000
     79       0.7456      0.00000
     80       0.7606      0.00000
     81       0.7981      0.00000
     82       0.8724      0.00000
     83       1.0343      0.00000
     84       1.0702      0.00000
     85       1.1758      0.00000
     86       1.3505      0.00000
     87       1.4288      0.00000
     88       1.5461      0.00000

 k-point    15 :       0.0000    0.5000    0.4000
  band No.  band energies     occupation 
      1     -29.7641      2.00000
      2     -29.7641      2.00000
      3     -28.7814      2.00000
      4     -28.7814      2.00000
      5     -28.6690      2.00000
      6     -28.6689      2.00000
      7     -28.0802      2.00000
      8     -28.0802      2.00000
      9     -15.0516      2.00000
     10     -15.0516      2.00000
     11     -14.9904      2.00000
     12     -14.9903      2.00000
     13     -14.9263      2.00000
     14     -14.9262      2.00000
     15     -14.1564      2.00000
     16     -14.1564      2.00000
     17     -14.0287      2.00000
     18     -14.0287      2.00000
     19     -14.0082      2.00000
     20     -14.0082      2.00000
     21     -13.9830      2.00000
     22     -13.9830      2.00000
     23     -13.9579      2.00000
     24     -13.9578      2.00000
     25     -13.8822      2.00000
     26     -13.8822      2.00000
     27     -13.4167      2.00000
     28     -13.4167      2.00000
     29     -13.3715      2.00000
     30     -13.3715      2.00000
     31     -13.3444      2.00000
     32     -13.3444      2.00000
     33     -11.0864      2.00000
     34     -11.0863      2.00000
     35     -10.6850      2.00000
     36     -10.6850      2.00000
     37      -6.6102      2.00000
     38      -6.6102      2.00000
     39      -6.3071      2.00000
     40      -6.3070      2.00000
     41      -6.2437      2.00000
     42      -6.2436      2.00000
     43      -5.9832      2.00000
     44      -5.9831      2.00000
     45      -5.9363      2.00000
     46      -5.9363      2.00000
     47      -5.7936      2.00000
     48      -5.7935      2.00000
     49      -2.8224      2.00000
     50      -2.8224      2.00000
     51      -2.6546      2.00000
     52      -2.6546      2.00000
     53      -2.2944      2.00000
     54      -2.2944      2.00000
     55      -2.2370      2.00000
     56      -2.2370      2.00000
     57      -2.0285      2.00000
     58      -2.0285      2.00000
     59      -1.8466      2.00000
     60      -1.8466      2.00000
     61      -1.6411      2.00000
     62      -1.6411      2.00000
     63      -1.6060      2.00000
     64      -1.6060      2.00000
     65      -1.3826      2.00000
     66      -1.3826      2.00000
     67      -1.2137      2.00000
     68      -1.2137      2.00000
     69      -1.0255      2.00000
     70      -1.0255      2.00000
     71      -0.8942      2.00000
     72      -0.8941      2.00000
     73       0.1192      0.00000
     74       0.1193      0.00000
     75       0.3664      0.00000
     76       0.3665      0.00000
     77       0.5602      0.00000
     78       0.5602      0.00000
     79       0.7335      0.00000
     80       0.7335      0.00000
     81       0.7707      0.00000
     82       0.7707      0.00000
     83       1.0730      0.00000
     84       1.0730      0.00000
     85       1.2682      0.00000
     86       1.2685      0.00000
     87       1.4058      0.00000
     88       1.4066      0.00000


--------------------------------------------------------------------------------------------------------


 soft charge-density along one line, spin component           1
         0         1         2         3         4         5         6         7         8         9
 total charge-density along one line
 
 pseudopotential strength for first ion, spin component:           1
  4.898  -5.545  -0.000  -0.005  -0.021  -0.000  -0.005  -0.023
 -5.545  -2.772   0.000   0.001   0.002  -0.000  -0.001  -0.004
 -0.000   0.000  -6.746  -0.000  -0.000   1.901  -0.000  -0.000
 -0.005   0.001  -0.000  -6.741  -0.001  -0.000   1.912  -0.003
 -0.021   0.002  -0.000  -0.001  -6.742  -0.000  -0.003   1.912
 -0.000  -0.000   1.901  -0.000  -0.000   7.249  -0.000  -0.000
 -0.005  -0.001  -0.000   1.912  -0.003  -0.000   7.250  -0.000
 -0.023  -0.004  -0.000  -0.003   1.912  -0.000  -0.000   7.250
 -0.000   0.000  -0.013  -0.000  -0.000  -0.010  -0.000  -0.000
 -0.000   0.000  -0.000  -0.000  -0.000  -0.000  -0.000  -0.000
  0.002  -0.001   0.000  -0.005   0.007   0.000  -0.003   0.005
 -0.002   0.001  -0.000  -0.012  -0.002  -0.000  -0.009  -0.002
  0.003  -0.001   0.000  -0.001  -0.011   0.000  -0.001  -0.009
  0.000   0.000   0.001   0.000   0.000   0.000   0.000   0.000
  0.000   0.000   0.000   0.000   0.000  -0.000   0.000   0.000
 -0.000  -0.000  -0.000   0.000  -0.000  -0.000   0.000  -0.000
  0.000   0.000   0.000   0.001   0.000   0.000   0.000   0.000
 -0.000  -0.000  -0.000   0.000   0.001  -0.000   0.000   0.000
 total augmentation occupancy for first ion, spin component:           1
  2.113  -0.263   0.000   0.012   0.051   0.000  -0.005  -0.019   0.000   0.000   0.013  -0.007   0.030   0.000   0.000  -0.008
 -0.263   0.636   0.000  -0.031  -0.132   0.000   0.012   0.032   0.000   0.000  -0.021   0.006  -0.059   0.000   0.000   0.034
  0.000   0.000   2.013  -0.000   0.000  -0.016   0.000  -0.000  -0.079   0.023   0.000  -0.000   0.000   0.069  -0.043   0.000
  0.012  -0.031   0.000   2.000   0.003   0.000  -0.007  -0.002   0.000   0.000  -0.044  -0.064  -0.015   0.000   0.000   0.045
  0.051  -0.132   0.000   0.003   1.996   0.000  -0.002  -0.005  -0.000   0.000   0.033  -0.006  -0.050   0.000   0.000  -0.028
  0.000   0.000  -0.016   0.000   0.000   0.008   0.000   0.000   0.022  -0.009   0.000   0.000   0.000  -0.029   0.014  -0.000
 -0.005   0.012  -0.000  -0.007  -0.002   0.000   0.005   0.000   0.000   0.000   0.016   0.015   0.005   0.000   0.000  -0.022
 -0.019   0.032   0.000  -0.002  -0.005   0.000   0.000   0.004   0.000   0.000  -0.007   0.000   0.009   0.000   0.000   0.009
  0.000   0.000  -0.079   0.000   0.000   0.022   0.000   0.000   0.145  -0.015   0.000   0.000   0.000  -0.183   0.021   0.000
 -0.000   0.000   0.023   0.000   0.000  -0.009   0.000   0.000  -0.015   0.069   0.000   0.000   0.000   0.019  -0.085   0.000
  0.013  -0.021   0.000  -0.044   0.033  -0.000   0.016  -0.007   0.000   0.000   0.121   0.049   0.018  -0.000   0.000  -0.147
 -0.007   0.006   0.000  -0.064  -0.006   0.000   0.015   0.000   0.000   0.000   0.049   0.087   0.008   0.000   0.000  -0.068
  0.030  -0.059  -0.000  -0.015  -0.050   0.000   0.005   0.009   0.000   0.000   0.018   0.008   0.092   0.000   0.000  -0.025
 -0.000  -0.000   0.069   0.000  -0.000  -0.029  -0.000   0.000  -0.183   0.019   0.000   0.000  -0.000   0.259  -0.035  -0.000
  0.000  -0.000  -0.043   0.000   0.000   0.014   0.000   0.000   0.021  -0.085   0.000   0.000  -0.000  -0.035   0.115   0.000
 -0.008   0.034   0.000   0.045  -0.028   0.000  -0.022   0.009   0.000   0.000  -0.147  -0.068  -0.025  -0.000   0.000   0.201
  0.005  -0.023  -0.000   0.055  -0.000   0.000  -0.022  -0.000  -0.000   0.000  -0.067  -0.110  -0.011   0.000   0.000   0.103
 -0.022   0.069   0.000   0.023   0.043   0.000  -0.008  -0.012   0.000   0.000  -0.026  -0.013  -0.121   0.000   0.000   0.041


------------------------ aborting loop because EDIFF is reached ----------------------------------------


    CHARGE:  cpu time    0.1697: real time    0.1701
    FORLOC:  cpu time    0.0095: real time    0.0095
    FORNL :  cpu time    0.5454: real time    0.5467
    STRESS:  cpu time    1.8481: real time    1.8678
    FORCOR:  cpu time    2.5523: real time    2.5584
    FORHAR:  cpu time    0.0224: real time    0.0225
    MIXING:  cpu time    0.0086: real time    0.0087
    OFIELD:  cpu time    0.0000: real time    0.0000

  FORCE on cell =-STRESS in cart. coord.  units (eV):
  Direction    XX          YY          ZZ          XY          YZ          ZX
  --------------------------------------------------------------------------------------
  Alpha Z   170.45751   170.45751   170.45751
  Ewald  -19925.45310 16300.45343 15768.37699    -0.00002     0.00000   133.49180
  Hartree-16843.01454 17910.08172 17496.31079     0.00000    -0.00000   100.48828
  E(xc)    -466.79321  -468.09456  -468.15133    -0.00000     0.00000     0.09087
  Local   35350.03042-35647.12511-34693.05550     0.00001    -0.00000  -231.12670
  n-local   340.91775   341.01121   341.40827     0.05989    -0.20418    -1.79917
  augment  -167.49480  -167.81305  -167.62869    -0.00000    -0.00000     0.36672
  Kinetic  1534.11061  1550.72633  1542.28719    -0.01786    -0.83098    -1.34358
  Fock        0.00000     0.00000     0.00000     0.00000     0.00000     0.00000
  -------------------------------------------------------------------------------------
  Total      -7.23936   -10.30252    -9.99476     0.00000     0.00000     0.16822
  in kB      -6.14325    -8.74261    -8.48145     0.00000     0.00000     0.14275
  external pressure =       -7.79 kB  Pullay stress =        0.00 kB


 VOLUME and BASIS-vectors are now :
 -----------------------------------------------------------------------------
  energy-cutoff  :      500.00
  volume of cell :     1888.05
      direct lattice vectors                 reciprocal lattice vectors
    24.009468079  0.000000000  0.000000000     0.041650236  0.000000000  0.000000000
     0.000000000  6.777849674  0.000000000     0.000000000  0.147539419  0.000000000
     0.000000000  0.000000000 11.602143288     0.000000000  0.000000000  0.086190971

  length of vectors
    24.009468079  6.777849674 11.602143288     0.041650236  0.147539419  0.086190971


 FORCES acting on ions
    electron-ion (+dipol)            ewald-force                    non-local-force                 convergence-correction
 -----------------------------------------------------------------------------------------------
   0.788E+03 0.102E-04 0.425E+02   -.783E+03 0.979E-05 -.418E+02   -.398E+01 0.127E-18 -.790E+00   0.230E-04 -.271E-09 -.644E-04
   -.788E+03 -.635E-04 -.425E+02   0.783E+03 -.127E-04 0.418E+02   0.398E+01 -.151E-18 0.790E+00   -.230E-04 0.236E-09 0.644E-04
   0.787E+02 -.603E-04 -.327E+02   -.785E+02 -.188E-04 0.315E+02   -.192E+00 -.226E-19 0.118E+01   0.149E-05 0.367E-09 0.118E-05
   -.787E+02 0.118E-04 0.327E+02   0.785E+02 0.131E-04 -.315E+02   0.192E+00 -.357E-19 -.118E+01   -.148E-05 -.396E-09 -.119E-05
   0.633E+03 -.613E-04 -.494E+02   -.630E+03 -.167E-04 0.500E+02   -.183E+01 -.226E-17 -.584E+00   0.890E-04 0.290E-09 -.586E-04
   -.633E+03 0.913E-05 0.494E+02   0.630E+03 0.146E-04 -.500E+02   0.183E+01 -.241E-17 0.584E+00   -.890E-04 -.326E-09 0.585E-04
   0.367E+03 0.122E-04 -.449E+01   -.366E+03 0.135E-04 0.380E+01   -.967E+00 -.108E-17 0.687E+00   0.595E-04 -.392E-09 0.600E-05
   -.367E+03 -.615E-04 0.449E+01   0.366E+03 -.137E-04 -.380E+01   0.967E+00 0.856E-18 -.687E+00   -.595E-04 0.353E-09 -.599E-05
   0.276E+03 0.351E+02 -.454E+02   -.276E+03 -.371E+02 0.465E+02   -.164E+00 0.201E+01 -.107E+01   0.710E-04 0.175E-04 0.558E-06
   -.276E+03 -.351E+02 0.454E+02   0.276E+03 0.371E+02 -.465E+02   0.164E+00 -.201E+01 0.107E+01   -.710E-04 -.175E-04 -.561E-06
   0.126E+03 -.304E+02 0.216E+01   -.125E+03 0.321E+02 -.905E+00   -.572E+00 -.165E+01 -.126E+01   0.107E-04 -.214E-04 -.130E-04
   -.126E+03 0.304E+02 -.216E+01   0.125E+03 -.321E+02 0.905E+00   0.572E+00 0.165E+01 0.126E+01   -.107E-04 0.214E-04 0.130E-04
   -.276E+03 0.351E+02 0.454E+02   0.276E+03 -.371E+02 -.465E+02   0.164E+00 0.201E+01 0.107E+01   -.710E-04 0.175E-04 -.561E-06
   0.276E+03 -.351E+02 -.454E+02   -.276E+03 0.371E+02 0.465E+02   -.164E+00 -.201E+01 -.107E+01   0.710E-04 -.175E-04 0.558E-06
   -.126E+03 -.304E+02 -.216E+01   0.125E+03 0.321E+02 0.905E+00   0.572E+00 -.165E+01 0.126E+01   -.107E-04 -.214E-04 0.130E-04
   0.126E+03 0.304E+02 0.216E+01   -.125E+03 -.321E+02 -.905E+00   -.572E+00 0.165E+01 -.126E+01   0.107E-04 0.214E-04 -.130E-04
   0.333E+03 -.433E-05 0.454E+02   -.335E+03 -.608E-05 -.458E+02   0.160E+01 0.281E-18 0.465E+00   0.268E-04 0.118E-09 0.708E-05
   -.333E+03 0.676E-05 -.454E+02   0.335E+03 0.629E-05 0.458E+02   -.160E+01 0.293E-18 -.465E+00   -.268E-04 -.107E-09 -.707E-05
   0.330E+02 0.875E-05 -.104E+02   -.310E+02 0.765E-05 0.976E+01   -.169E+01 -.153E-18 0.651E+00   0.132E-04 -.147E-09 0.118E-04
   -.330E+02 -.104E-05 0.104E+02   0.310E+02 -.734E-05 -.976E+01   0.169E+01 -.118E-18 -.651E+00   -.132E-04 0.149E-09 -.118E-04
   0.244E+03 0.440E-05 0.867E+01   -.244E+03 0.810E-05 -.105E+02   -.581E+00 -.136E-17 0.184E+01   0.584E-04 -.128E-09 0.220E-04
   -.244E+03 -.606E-05 -.867E+01   0.244E+03 -.816E-05 0.105E+02   0.581E+00 0.137E-17 -.184E+01   -.584E-04 0.136E-09 -.221E-04
   0.161E+03 -.685E-05 0.590E+02   -.160E+03 -.775E-05 -.612E+02   -.101E+01 0.837E-17 0.218E+01   0.140E-04 0.151E-09 0.261E-04
   -.161E+03 0.337E-05 -.590E+02   0.160E+03 0.753E-05 0.612E+02   0.101E+01 0.926E-17 -.218E+01   -.140E-04 -.140E-09 -.261E-04
 -----------------------------------------------------------------------------------------------
   -.732E-04 -.210E-03 0.471E-04   -.853E-13 -.283E-13 -.639E-13   0.000E+00 0.179E-16 0.000E+00   0.374E-07 -.916E-10 -.436E-08
 
 
 POSITION                                       TOTAL-FORCE (eV/Angst)
 -----------------------------------------------------------------------------------
      0.13670      1.69446      8.18434         0.733628      0.000000      0.001044
      9.02277      5.08339      3.41780        -0.733628      0.000000     -0.001044
      4.36803      5.08339      2.17434         0.005736      0.000000      0.000389
      4.79143      1.69446      9.42780        -0.005736      0.000000     -0.000389
      1.43529      5.08339     10.64640         0.720261      0.000000      0.000516
      7.72418      1.69446      0.95575        -0.720261      0.000000     -0.000516
      3.06944      1.69446      4.63215         0.367837      0.000000      0.000013
      6.09002      5.08339      6.97000        -0.367837      0.000000     -0.000013
      1.75027      0.48643      1.68900        -0.168646      0.000529      0.000832
      7.40920      6.29142      9.91315         0.168646     -0.000529     -0.000832
      2.75446      6.29785      7.63545         0.146761      0.000453     -0.000080
      6.40500      0.48000      3.96670        -0.146761     -0.000453      0.000080
      7.40920      3.87535      9.91315         0.168646      0.000529     -0.000832
      1.75027      2.90250      1.68900        -0.168646     -0.000529      0.000832
      6.40500      2.90893      3.96670        -0.146761      0.000453      0.000080
      2.75446      3.86892      7.63545         0.146761     -0.000453     -0.000080
      0.74693      5.08339      6.94606        -0.315918      0.000000      0.000214
      8.41254      1.69446      4.65608         0.315918      0.000000     -0.000214
      3.75780      1.69446      0.98292         0.317099      0.000000      0.000310
      5.40166      5.08339     10.61922        -0.317099      0.000000     -0.000310
      1.78112      1.69446     11.16502        -0.266575      0.000000     -0.000259
      7.37835      5.08339      0.43712         0.266575      0.000000      0.000259
      2.72362      5.08339      5.51320        -0.206227      0.000000      0.000610
      6.43585      1.69446      6.08895         0.206227      0.000000     -0.000610
 -----------------------------------------------------------------------------------
    total drift:                               -0.000073     -0.000210      0.000047


--------------------------------------------------------------------------------------------------------



  FREE ENERGIE OF THE ION-ELECTRON SYSTEM (eV)
  ---------------------------------------------------
  free  energy   TOTEN  =       -92.72105869 eV

  energy  without entropy=      -92.72105869  energy(sigma->0) =      -92.72105869
 


--------------------------------------------------------------------------------------------------------


    POTLOK:  cpu time    2.6276: real time    2.6339


--------------------------------------------------------------------------------------------------------


 writing wavefunctions
     LOOP+:  cpu time14279.7910: real time14316.6189
    4ORBIT:  cpu time    0.0000: real time    0.0000
 BZINTS: Fermi energy: -0.572562;144.000000 electrons
         Band energy:***********;  BLOECHL correction:  0.000000

 total amount of memory used by VASP MPI-rank0    79351. kBytes
=======================================================================

   base      :      30000. kBytes
   nonlr-proj:       2645. kBytes
   fftplans  :       5898. kBytes
   grid      :       8824. kBytes
   one-center:         93. kBytes
   wavefun   :      31891. kBytes
 
  
  
 General timing and accounting informations for this job:
 ========================================================
  
                  Total CPU time used (sec):    14288.718
                            User time (sec):    14264.538
                          System time (sec):       24.179
                         Elapsed time (sec):    14328.495
  
                   Maximum memory used (kb):      309540.
                   Average memory used (kb):           0.
  
                          Minor page faults:       108620
                          Major page faults:          217
                 Voluntary context switches:        15380
