<?xml version="1.0" encoding="ISO-8859-1"?>
<modeling>
 <generator>
  <i name="program" type="string">vasp </i>
  <i name="version" type="string">5.4.4.18Apr17-6-g9f103f2a35  </i>
  <i name="subversion" type="string">(build Nov 21 2017 15:30:27) complex            parallel </i>
  <i name="platform" type="string">LinuxIFC </i>
  <i name="date" type="string">2021 03 03 </i>
  <i name="time" type="string">13:33:28 </i>
 </generator>
 <incar>
  <i type="string" name="PREC">normal</i>
  <i type="int" name="NELM">   100</i>
  <i name="EDIFF">      0.00000100</i>
  <i name="EDIFFG">     -0.01000000</i>
  <i type="int" name="NSW">     0</i>
  <i name="ENCUT">    500.00000000</i>
  <i name="POTIM">      0.30000000</i>
  <i type="string" name="LREAL"> Auto       ! Projection in reciprocal s</i>
  <i type="int" name="ISMEAR">    -5</i>
  <i name="SIGMA">      0.01000000</i>
  <i type="logical" name="LWAVE"> T  </i>
  <i type="logical" name="LCHARG"> T  </i>
  <i type="logical" name="LASPH"> T  </i>
  <v type="int" name="KPOINT_BSE">    -1     0     0     0</v>
  <i type="int" name="NELM">   100</i>
  <i type="string" name="GGA"> MK</i>
  <i name="PARAM1">      0.12340000</i>
  <i name="PARAM2">      0.71135700</i>
  <i type="logical" name="LUSE_VDW"> T  </i>
  <i name="Zab_VDW">     -1.88670000</i>
  <i name="AGGAC">      0.00000000</i>
  <i type="logical" name="LASPH"> T  </i>
 </incar>
 <structure name="primitive_cell" >
  <crystal>
   <varray name="basis" >
    <v>      28.44138915       0.00000000       0.00000000 </v>
    <v>       0.00000000       6.61705665       0.00000000 </v>
    <v>       0.00000000       0.00000000      11.34438396 </v>
   </varray>
   <i name="volume">   2134.99358715 </i>
   <varray name="rec_basis" >
    <v>       0.03516003       0.00000000       0.00000000 </v>
    <v>       0.00000000       0.15112459       0.00000000 </v>
    <v>       0.00000000       0.00000000       0.08814934 </v>
   </varray>
  </crystal>
  <varray name="positions" >
   <v>       0.01060286       0.25000000      -0.30172863 </v>
   <v>       0.05573958       0.25000000      -0.03725603 </v>
   <v>       0.09829373      -0.43042433      -0.35951379 </v>
   <v>       0.09829373      -0.06957567      -0.35951379 </v>
   <v>       0.02395209      -0.24999998      -0.38268342 </v>
   <v>       0.06793721      -0.24999998      -0.08853822 </v>
   <v>       0.10913646       0.25000000       0.39543199 </v>
   <v>       0.16304924       0.25000000      -0.19103348 </v>
   <v>       0.08158949      -0.24999998       0.45887610 </v>
   <v>       0.05559849       0.43069707       0.14722281 </v>
   <v>       0.05559849       0.06930292       0.14722281 </v>
   <v>       0.12737317       0.25000000       0.08260823 </v>
   <v>       0.21911849       0.25000000      -0.46260765 </v>
   <v>       0.18705445      -0.24999998      -0.09072656 </v>
   <v>       0.21039420      -0.24999998      -0.40503372 </v>
   <v>       0.21716475       0.43291134       0.35291513 </v>
   <v>       0.21716475       0.06708865       0.35291513 </v>
   <v>       0.25678160      -0.43291134      -0.14708487 </v>
   <v>       0.25678160      -0.06708866      -0.14708487 </v>
   <v>       0.14850228      -0.24999998       0.19183199 </v>
   <v>       0.26355215       0.25000000       0.09496630 </v>
   <v>       0.28689191       0.25000000       0.40927340 </v>
   <v>       0.25482786      -0.24999998       0.03739236 </v>
   <v>       0.32544407       0.25000000      -0.30816794 </v>
   <v>       0.31089711      -0.24999998       0.30896648 </v>
   <v>       0.34657319      -0.24999998      -0.41739171 </v>
   <v>       0.36480990      -0.24999998      -0.10456809 </v>
   <v>       0.39235688       0.25000000      -0.04112382 </v>
   <v>       0.37565264       0.43042433       0.14048619 </v>
   <v>       0.37565264       0.06957566       0.14048619 </v>
   <v>       0.40600914       0.25000000       0.41146186 </v>
   <v>       0.41834785      -0.43069707      -0.35277717 </v>
   <v>       0.41834785      -0.06930293      -0.35277717 </v>
   <v>       0.41820675      -0.24999998       0.46274389 </v>
   <v>       0.44999425       0.25000000       0.11731652 </v>
   <v>       0.46334350      -0.24999998       0.19827131 </v>
  </varray>
 </structure>
 <varray name="primitive_index" >
  <v type="int" >        1 </v>
  <v type="int" >       31 </v>
  <v type="int" >       18 </v>
  <v type="int" >       14 </v>
  <v type="int" >       25 </v>
  <v type="int" >        7 </v>
  <v type="int" >        8 </v>
  <v type="int" >        3 </v>
  <v type="int" >       32 </v>
  <v type="int" >       16 </v>
  <v type="int" >       13 </v>
  <v type="int" >       26 </v>
  <v type="int" >       33 </v>
  <v type="int" >       27 </v>
  <v type="int" >        9 </v>
  <v type="int" >       17 </v>
  <v type="int" >       15 </v>
  <v type="int" >       22 </v>
  <v type="int" >       20 </v>
  <v type="int" >        2 </v>
  <v type="int" >       11 </v>
  <v type="int" >       29 </v>
  <v type="int" >       35 </v>
  <v type="int" >        4 </v>
  <v type="int" >        5 </v>
  <v type="int" >       28 </v>
  <v type="int" >       10 </v>
  <v type="int" >       34 </v>
  <v type="int" >       23 </v>
  <v type="int" >       19 </v>
  <v type="int" >       12 </v>
  <v type="int" >       24 </v>
  <v type="int" >       21 </v>
  <v type="int" >       36 </v>
  <v type="int" >       30 </v>
  <v type="int" >        6 </v>
 </varray>
 <kpoints>
  <generation param="Gamma">
   <v type="int" name="divisions">       1        6        4 </v>
   <v name="usershift">      0.00000000       0.00000000       0.00000000 </v>
   <v name="genvec1">      1.00000000       0.00000000       0.00000000 </v>
   <v name="genvec2">      0.00000000       0.16666667       0.00000000 </v>
   <v name="genvec3">      0.00000000       0.00000000       0.25000000 </v>
   <v name="shift">      0.00000000       0.00000000       0.00000000 </v>
  </generation>
  <varray name="kpointlist" >
   <v>       0.00000000       0.00000000       0.00000000 </v>
   <v>       0.00000000       0.16666667       0.00000000 </v>
   <v>       0.00000000       0.33333333       0.00000000 </v>
   <v>       0.00000000       0.50000000       0.00000000 </v>
   <v>       0.00000000       0.00000000       0.25000000 </v>
   <v>       0.00000000       0.16666667       0.25000000 </v>
   <v>       0.00000000       0.33333333       0.25000000 </v>
   <v>       0.00000000       0.50000000       0.25000000 </v>
   <v>       0.00000000       0.00000000       0.50000000 </v>
   <v>       0.00000000       0.16666667       0.50000000 </v>
   <v>       0.00000000       0.33333333       0.50000000 </v>
   <v>       0.00000000       0.50000000       0.50000000 </v>
  </varray>
  <varray name="weights" >
   <v>       0.04166667 </v>
   <v>       0.08333333 </v>
   <v>       0.08333333 </v>
   <v>       0.04166667 </v>
   <v>       0.08333333 </v>
   <v>       0.16666667 </v>
   <v>       0.16666667 </v>
   <v>       0.08333333 </v>
   <v>       0.04166667 </v>
   <v>       0.08333333 </v>
   <v>       0.08333333 </v>
   <v>       0.04166667 </v>
  </varray>
  <varray name="tetrahedronlist"  type="int" >
   <v type="int" >        2        1        1        2        5 </v>
   <v type="int" >        2        1        2        2        5 </v>
   <v type="int" >        2        2        2        5        6 </v>
   <v type="int" >        2        1        2        5        5 </v>
   <v type="int" >        2        2        5        5        6 </v>
   <v type="int" >        2        2        5        6        6 </v>
   <v type="int" >        2        2        2        3        6 </v>
   <v type="int" >        2        2        3        3        6 </v>
   <v type="int" >        2        3        3        6        7 </v>
   <v type="int" >        2        2        3        6        6 </v>
   <v type="int" >        2        3        6        6        7 </v>
   <v type="int" >        2        3        6        7        7 </v>
   <v type="int" >        2        3        3        4        7 </v>
   <v type="int" >        2        3        4        4        7 </v>
   <v type="int" >        2        4        4        7        8 </v>
   <v type="int" >        2        3        4        7        7 </v>
   <v type="int" >        2        4        7        7        8 </v>
   <v type="int" >        2        4        7        8        8 </v>
   <v type="int" >        2        3        4        4        8 </v>
   <v type="int" >        2        3        3        4        8 </v>
   <v type="int" >        2        3        3        7        8 </v>
   <v type="int" >        2        3        4        8        8 </v>
   <v type="int" >        2        3        7        8        8 </v>
   <v type="int" >        2        3        7        7        8 </v>
   <v type="int" >        2        2        3        3        7 </v>
   <v type="int" >        2        2        2        3        7 </v>
   <v type="int" >        2        2        2        6        7 </v>
   <v type="int" >        2        2        3        7        7 </v>
   <v type="int" >        2        2        6        7        7 </v>
   <v type="int" >        2        2        6        6        7 </v>
   <v type="int" >        2        1        2        2        6 </v>
   <v type="int" >        2        1        1        2        6 </v>
   <v type="int" >        2        1        1        5        6 </v>
   <v type="int" >        2        1        2        6        6 </v>
   <v type="int" >        2        1        5        6        6 </v>
   <v type="int" >        2        1        5        5        6 </v>
   <v type="int" >        2        5        5        6        9 </v>
   <v type="int" >        2        5        6        6        9 </v>
   <v type="int" >        2        6        6        9       10 </v>
   <v type="int" >        2        5        6        9        9 </v>
   <v type="int" >        2        6        9        9       10 </v>
   <v type="int" >        2        6        9       10       10 </v>
   <v type="int" >        2        6        6        7       10 </v>
   <v type="int" >        2        6        7        7       10 </v>
   <v type="int" >        2        7        7       10       11 </v>
   <v type="int" >        2        6        7       10       10 </v>
   <v type="int" >        2        7       10       10       11 </v>
   <v type="int" >        2        7       10       11       11 </v>
   <v type="int" >        2        7        7        8       11 </v>
   <v type="int" >        2        7        8        8       11 </v>
   <v type="int" >        2        8        8       11       12 </v>
   <v type="int" >        2        7        8       11       11 </v>
   <v type="int" >        2        8       11       11       12 </v>
   <v type="int" >        2        8       11       12       12 </v>
   <v type="int" >        2        7        8        8       12 </v>
   <v type="int" >        2        7        7        8       12 </v>
   <v type="int" >        2        7        7       11       12 </v>
   <v type="int" >        2        7        8       12       12 </v>
   <v type="int" >        2        7       11       12       12 </v>
   <v type="int" >        2        7       11       11       12 </v>
   <v type="int" >        2        6        7        7       11 </v>
   <v type="int" >        2        6        6        7       11 </v>
   <v type="int" >        2        6        6       10       11 </v>
   <v type="int" >        2        6        7       11       11 </v>
   <v type="int" >        2        6       10       11       11 </v>
   <v type="int" >        2        6       10       10       11 </v>
   <v type="int" >        2        5        6        6       10 </v>
   <v type="int" >        2        5        5        6       10 </v>
   <v type="int" >        2        5        5        9       10 </v>
   <v type="int" >        2        5        6       10       10 </v>
   <v type="int" >        2        5        9       10       10 </v>
   <v type="int" >        2        5        9        9       10 </v>
  </varray>
  <i name="volumeweight">      0.00694444 </i>
 </kpoints>
 <parameters>
  <separator name="general" >
   <i type="string" name="SYSTEM">unknown system</i>
   <i type="logical" name="LCOMPAT"> F  </i>
  </separator>
  <separator name="electronic" >
   <i type="string" name="PREC">normal</i>
   <i name="ENMAX">    500.00000000</i>
   <i name="ENAUG">    351.16500000</i>
   <i name="EDIFF">      0.00000100</i>
   <i type="int" name="IALGO">    38</i>
   <i type="int" name="IWAVPR">    10</i>
   <i type="int" name="NBANDS">   136</i>
   <i name="NELECT">    216.00000000</i>
   <i type="int" name="TURBO">     0</i>
   <i type="int" name="IRESTART">     0</i>
   <i type="int" name="NREBOOT">     0</i>
   <i type="int" name="NMIN">     0</i>
   <i name="EREF">      0.00000000</i>
   <separator name="electronic smearing" >
    <i type="int" name="ISMEAR">    -5</i>
    <i name="SIGMA">      0.01000000</i>
    <i name="KSPACING">      0.50000000</i>
    <i type="logical" name="KGAMMA"> T  </i>
   </separator>
   <separator name="electronic projectors" >
    <i type="logical" name="LREAL"> T  </i>
    <v name="ROPT">     -0.00050000     -0.00050000</v>
    <i type="int" name="LMAXPAW">  -100</i>
    <i type="int" name="LMAXMIX">     2</i>
    <i type="logical" name="NLSPLINE"> F  </i>
   </separator>
   <separator name="electronic startup" >
    <i type="int" name="ISTART">     0</i>
    <i type="int" name="ICHARG">     2</i>
    <i type="int" name="INIWAV">     1</i>
   </separator>
   <separator name="electronic spin" >
    <i type="int" name="ISPIN">     1</i>
    <i type="logical" name="LNONCOLLINEAR"> F  </i>
    <v name="MAGMOM">      1.00000000      1.00000000      1.00000000      1.00000000      1.00000000      1.00000000      1.00000000      1.00000000      1.00000000      1.00000000      1.00000000      1.00000000      1.00000000      1.00000000      1.00000000      1.00000000      1.00000000      1.00000000      1.00000000      1.00000000
      1.00000000      1.00000000      1.00000000      1.00000000      1.00000000      1.00000000      1.00000000      1.00000000      1.00000000      1.00000000      1.00000000      1.00000000      1.00000000      1.00000000      1.00000000      1.00000000</v>
    <i name="NUPDOWN">     -1.00000000</i>
    <i type="logical" name="LSORBIT"> F  </i>
    <v name="SAXIS">      0.00000000      0.00000000      1.00000000</v>
    <i type="logical" name="LSPIRAL"> F  </i>
    <v name="QSPIRAL">      0.00000000      0.00000000      0.00000000</v>
    <i type="logical" name="LZEROZ"> F  </i>
   </separator>
   <separator name="electronic exchange-correlation" >
    <i type="logical" name="LASPH"> T  </i>
    <i type="logical" name="LMETAGGA"> F  </i>
   </separator>
   <separator name="electronic convergence" >
    <i type="int" name="NELM">   100</i>
    <i type="int" name="NELMDL">    -5</i>
    <i type="int" name="NELMIN">     2</i>
    <i name="ENINI">    500.00000000</i>
    <separator name="electronic convergence detail" >
     <i type="logical" name="LDIAG"> T  </i>
     <i type="logical" name="LSUBROT"> F  </i>
     <i name="WEIMIN">      0.00000000</i>
     <i name="EBREAK">      0.00000000</i>
     <i name="DEPER">      0.30000000</i>
     <i type="int" name="NRMM">     4</i>
     <i name="TIME">      0.40000000</i>
    </separator>
   </separator>
   <separator name="electronic mixer" >
    <i name="AMIX">      0.40000000</i>
    <i name="BMIX">      1.00000000</i>
    <i name="AMIN">      0.10000000</i>
    <i name="AMIX_MAG">      1.60000000</i>
    <i name="BMIX_MAG">      1.00000000</i>
    <separator name="electronic mixer details" >
     <i type="int" name="IMIX">     4</i>
     <i type="logical" name="MIXFIRST"> F  </i>
     <i type="int" name="MAXMIX">   -45</i>
     <i name="WC">    100.00000000</i>
     <i type="int" name="INIMIX">     1</i>
     <i type="int" name="MIXPRE">     1</i>
     <i type="int" name="MREMOVE">     5</i>
    </separator>
   </separator>
   <separator name="electronic dipolcorrection" >
    <i type="logical" name="LDIPOL"> F  </i>
    <i type="logical" name="LMONO"> F  </i>
    <i type="int" name="IDIPOL">     0</i>
    <i name="EPSILON">      1.00000000</i>
    <v name="DIPOL">   -100.00000000   -100.00000000   -100.00000000</v>
    <i name="EFIELD">      0.00000000</i>
   </separator>
  </separator>
  <separator name="grids" >
   <i type="int" name="NGX">   160</i>
   <i type="int" name="NGY">    36</i>
   <i type="int" name="NGZ">    64</i>
   <i type="int" name="NGXF">   320</i>
   <i type="int" name="NGYF">    72</i>
   <i type="int" name="NGZF">   128</i>
   <i type="logical" name="ADDGRID"> F  </i>
  </separator>
  <separator name="ionic" >
   <i type="int" name="NSW">     0</i>
   <i type="int" name="IBRION">    -1</i>
   <i type="int" name="MDALGO">     0</i>
   <i type="int" name="ISIF">     2</i>
   <i name="PSTRESS">      0.00000000</i>
   <i name="EDIFFG">     -0.01000000</i>
   <i type="int" name="NFREE">     0</i>
   <i name="POTIM">      0.30000000</i>
   <i name="SMASS">     -3.00000000</i>
   <i name="SCALEE">      1.00000000</i>
  </separator>
  <separator name="ionic md" >
   <i name="TEBEG">      0.00010000</i>
   <i name="TEEND">      0.00010000</i>
   <i type="int" name="NBLOCK">     1</i>
   <i type="int" name="KBLOCK">     1</i>
   <i type="int" name="NPACO">   256</i>
   <i name="APACO">     16.00000000</i>
  </separator>
  <separator name="symmetry" >
   <i type="int" name="ISYM">     2</i>
   <i name="SYMPREC">      0.00001000</i>
  </separator>
  <separator name="dos" >
   <i type="int" name="LORBIT">     0</i>
   <v name="RWIGS">     -1.00000000     -1.00000000</v>
   <i type="int" name="NEDOS">   301</i>
   <i name="EMIN">     10.00000000</i>
   <i name="EMAX">    -10.00000000</i>
   <i name="EFERMI">      0.00000000</i>
  </separator>
  <separator name="writing" >
   <i type="int" name="NWRITE">     2</i>
   <i type="logical" name="LWAVE"> T  </i>
   <i type="logical" name="LDOWNSAMPLE"> F  </i>
   <i type="logical" name="LCHARG"> T  </i>
   <i type="logical" name="LPARD"> F  </i>
   <i type="logical" name="LVTOT"> F  </i>
   <i type="logical" name="LVHAR"> F  </i>
   <i type="logical" name="LELF"> F  </i>
   <i type="logical" name="LOPTICS"> F  </i>
   <v name="STM">      0.00000000      0.00000000      0.00000000      0.00000000      0.00000000      0.00000000      0.00000000</v>
  </separator>
  <separator name="performance" >
   <i type="int" name="NPAR">     8</i>
   <i type="int" name="NSIM">     4</i>
   <i type="int" name="NBLK">    -1</i>
   <i type="logical" name="LPLANE"> T  </i>
   <i type="logical" name="LSCALAPACK"> T  </i>
   <i type="logical" name="LSCAAWARE"> F  </i>
   <i type="logical" name="LSCALU"> F  </i>
   <i type="logical" name="LASYNC"> F  </i>
   <i type="logical" name="LORBITALREAL"> F  </i>
  </separator>
  <separator name="miscellaneous" >
   <i type="int" name="IDIOT">     3</i>
   <i type="int" name="ISPECIAL">     0</i>
   <i type="logical" name="LMUSIC"> F  </i>
   <v name="POMASS">    137.32700000     28.08500000</v>
   <v name="DARWINR">      0.00000000      0.00000000</v>
   <v name="DARWINV">      1.00000000      1.00000000</v>
   <i type="logical" name="LCORR"> T  </i>
  </separator>
  <i type="logical" name="GGA_COMPAT"> T  </i>
  <i type="logical" name="LBERRY"> F  </i>
  <i type="int" name="ICORELEVEL">     0</i>
  <i type="logical" name="LDAU"> F  </i>
  <i type="int" name="I_CONSTRAINED_M">     0</i>
  <separator name="electronic exchange-correlation" >
   <i type="string" name="GGA">MK</i>
   <i type="int" name="VOSKOWN">     0</i>
   <i type="logical" name="LHFCALC"> F  </i>
   <i type="string" name="PRECFOCK"></i>
   <i type="logical" name="LSYMGRAD"> F  </i>
   <i type="logical" name="LHFONE"> F  </i>
   <i type="logical" name="LRHFCALC"> F  </i>
   <i type="logical" name="LTHOMAS"> F  </i>
   <i type="logical" name="LMODELHF"> F  </i>
   <i name="ENCUT4O">     -1.00000000</i>
   <i type="int" name="EXXOEP">     0</i>
   <i type="int" name="FOURORBIT">     0</i>
   <i name="AEXX">      0.00000000</i>
   <i name="HFALPHA">      0.00000000</i>
   <i name="MCALPHA">      0.00000000</i>
   <i name="ALDAX">      1.00000000</i>
   <i name="AGGAX">      1.00000000</i>
   <i name="ALDAC">      1.00000000</i>
   <i name="AGGAC">      0.00000000</i>
   <i type="int" name="NKREDX">     1</i>
   <i type="int" name="NKREDY">     1</i>
   <i type="int" name="NKREDZ">     1</i>
   <i type="logical" name="SHIFTRED"> F  </i>
   <i type="logical" name="ODDONLY"> F  </i>
   <i type="logical" name="EVENONLY"> F  </i>
   <i type="int" name="LMAXFOCK">     0</i>
   <i type="int" name="NMAXFOCKAE">     0</i>
   <i type="logical" name="LFOCKAEDFT"> F  </i>
   <i name="HFSCREEN">      0.00000000</i>
   <i name="HFSCREENC">      0.00000000</i>
   <i type="int" name="NBANDSGWLOW">     0</i>
  </separator>
  <separator name="vdW DFT" >
   <i type="logical" name="LUSE_VDW"> T  </i>
   <i name="Zab_VDW">     -1.88670000</i>
   <i name="PARAM1">      0.12340000</i>
   <i name="PARAM2">      0.71135700</i>
   <i name="PARAM3">      0.00000000</i>
  </separator>
  <separator name="model GW" >
   <i type="int" name="MODEL_GW">     0</i>
   <i name="MODEL_EPS0">     35.58322645</i>
   <i name="MODEL_ALPHA">      1.00000000</i>
  </separator>
  <separator name="linear response parameters" >
   <i type="logical" name="LEPSILON"> F  </i>
   <i type="logical" name="LRPA"> F  </i>
   <i type="logical" name="LNABLA"> F  </i>
   <i type="logical" name="LVEL"> F  </i>
   <i type="int" name="KINTER">     0</i>
   <i name="CSHIFT">      0.10000000</i>
   <i name="OMEGAMAX">     -1.00000000</i>
   <i name="DEG_THRESHOLD">      0.00200000</i>
   <i name="RTIME">     -0.10000000</i>
   <i name="WPLASMAI">      0.00000000</i>
   <v name="DFIELD">      0.00000000      0.00000000      0.00000000</v>
   <v name="WPLASMA">      0.00000000      0.00000000      0.00000000      0.00000000      0.00000000      0.00000000      0.00000000      0.00000000      0.00000000</v>
  </separator>
  <separator name="orbital magnetization" >
   <i type="logical" name="NUCIND"> F  </i>
   <v name="MAGPOS">      0.00000000      0.00000000      0.00000000</v>
   <i type="logical" name="LNICSALL"> T  </i>
   <i type="logical" name="ORBITALMAG"> F  </i>
   <i type="logical" name="LMAGBLOCH"> F  </i>
   <i type="logical" name="LCHIMAG"> F  </i>
   <i type="logical" name="LGAUGE"> T  </i>
   <i type="int" name="MAGATOM">     0</i>
   <v name="MAGDIPOL">      0.00000000      0.00000000      0.00000000</v>
   <v name="AVECCONST">      0.00000000      0.00000000      0.00000000</v>
  </separator>
  <separator name="response functions" >
   <i type="logical" name="LADDER"> F  </i>
   <i type="logical" name="LRPAFORCE"> F  </i>
   <i type="logical" name="LFXC"> F  </i>
   <i type="logical" name="LHARTREE"> T  </i>
   <i type="int" name="IBSE">     0</i>
   <v type="int" name="KPOINT">    -1     0     0     0</v>
   <i type="logical" name="LTCTE"> F  </i>
   <i type="logical" name="LTETE"> F  </i>
   <i type="logical" name="LTRIPLET"> F  </i>
   <i type="logical" name="LFXCEPS"> F  </i>
   <i type="logical" name="LFXHEG"> F  </i>
   <i type="int" name="NATURALO">     2</i>
   <i type="logical" name="L2ORDER"> F  </i>
   <i type="logical" name="LMP2LT"> F  </i>
   <i type="logical" name="LUSEW"> F  </i>
   <i name="ENCUTGW">     -2.00000000</i>
   <i name="ENCUTGWSOFT">     -2.00000000</i>
   <i name="ENCUTLF">     -1.00000000</i>
   <i type="int" name="LMAXMP2">    -1</i>
   <i name="SCISSOR">      0.00000000</i>
   <i type="int" name="NOMEGA">     0</i>
   <i type="int" name="NOMEGAR">     0</i>
   <i type="int" name="NBANDSGW">    -1</i>
   <i type="int" name="NBANDSO">    -1</i>
   <i type="int" name="NBANDSV">    -1</i>
   <i type="int" name="NELM">   100</i>
   <i type="int" name="NELMHF">     1</i>
   <i type="int" name="DIM">     3</i>
   <i type="int" name="ANTIRES">     0</i>
   <i name="OMEGAMAX">    -30.00000000</i>
   <i name="OMEGAMIN">    -30.00000000</i>
   <i name="OMEGATL">   -200.00000000</i>
   <i type="int" name="OMEGAGRID">   140</i>
   <i name="CSHIFT">     -0.10000000</i>
   <i type="logical" name="SELFENERGY"> F  </i>
   <i type="logical" name="LSPECTRAL"> F  </i>
   <i type="logical" name="LSPECTRALGW"> F  </i>
   <i type="logical" name="LSINGLES"> F  </i>
   <i type="logical" name="LFERMIGW"> F  </i>
   <i type="logical" name="ODDONLYGW"> F  </i>
   <i type="logical" name="EVENONLYGW"> F  </i>
   <i type="int" name="NKREDLFX">     1</i>
   <i type="int" name="NKREDLFY">     1</i>
   <i type="int" name="NKREDLFZ">     1</i>
   <i type="int" name="MAXMEM">  2800</i>
   <i type="int" name="TELESCOPE">     0</i>
   <i type="int" name="TAUPAR">     1</i>
   <i type="int" name="OMEGAPAR">    -1</i>
   <i name="LAMBDA">      1.00000000</i>
  </separator>
  <separator name="External order field" >
   <i name="OFIELD_KAPPA">      0.00000000</i>
   <v name="OFIELD_K">      0.00000000      0.00000000      0.00000000</v>
   <i name="OFIELD_Q6_NEAR">      0.00000000</i>
   <i name="OFIELD_Q6_FAR">      0.00000000</i>
   <i name="OFIELD_A">      0.00000000</i>
  </separator>
 </parameters>
 <atominfo>
  <atoms>      36 </atoms>
  <types>       2 </types>
  <array name="atoms" >
   <dimension dim="1">ion</dimension>
   <field type="string">element</field>
   <field type="int">atomtype</field>
   <set>
    <rc><c>Ba</c><c>   1</c></rc>
    <rc><c>Ba</c><c>   1</c></rc>
    <rc><c>Ba</c><c>   1</c></rc>
    <rc><c>Ba</c><c>   1</c></rc>
    <rc><c>Ba</c><c>   1</c></rc>
    <rc><c>Ba</c><c>   1</c></rc>
    <rc><c>Ba</c><c>   1</c></rc>
    <rc><c>Ba</c><c>   1</c></rc>
    <rc><c>Ba</c><c>   1</c></rc>
    <rc><c>Ba</c><c>   1</c></rc>
    <rc><c>Ba</c><c>   1</c></rc>
    <rc><c>Ba</c><c>   1</c></rc>
    <rc><c>Si</c><c>   2</c></rc>
    <rc><c>Si</c><c>   2</c></rc>
    <rc><c>Si</c><c>   2</c></rc>
    <rc><c>Si</c><c>   2</c></rc>
    <rc><c>Si</c><c>   2</c></rc>
    <rc><c>Si</c><c>   2</c></rc>
    <rc><c>Si</c><c>   2</c></rc>
    <rc><c>Si</c><c>   2</c></rc>
    <rc><c>Si</c><c>   2</c></rc>
    <rc><c>Si</c><c>   2</c></rc>
    <rc><c>Si</c><c>   2</c></rc>
    <rc><c>Si</c><c>   2</c></rc>
    <rc><c>Si</c><c>   2</c></rc>
    <rc><c>Si</c><c>   2</c></rc>
    <rc><c>Si</c><c>   2</c></rc>
    <rc><c>Si</c><c>   2</c></rc>
    <rc><c>Si</c><c>   2</c></rc>
    <rc><c>Si</c><c>   2</c></rc>
    <rc><c>Si</c><c>   2</c></rc>
    <rc><c>Si</c><c>   2</c></rc>
    <rc><c>Si</c><c>   2</c></rc>
    <rc><c>Si</c><c>   2</c></rc>
    <rc><c>Si</c><c>   2</c></rc>
    <rc><c>Si</c><c>   2</c></rc>
   </set>
  </array>
  <array name="atomtypes" >
   <dimension dim="1">type</dimension>
   <field type="int">atomspertype</field>
   <field type="string">element</field>
   <field>mass</field>
   <field>valence</field>
   <field type="string">pseudopotential</field>
   <set>
    <rc><c>  12</c><c>Ba</c><c>    137.32700000</c><c>     10.00000000</c><c> PAW_PBE Ba_sv 06Sep2000                </c></rc>
    <rc><c>  24</c><c>Si</c><c>     28.08500000</c><c>      4.00000000</c><c> PAW_PBE Si 05Jan2001                   </c></rc>
   </set>
  </array>
 </atominfo>
 <structure name="initialpos" >
  <crystal>
   <varray name="basis" >
    <v>      28.44138915       0.00000000       0.00000000 </v>
    <v>       0.00000000       6.61705665       0.00000000 </v>
    <v>       0.00000000       0.00000000      11.34438396 </v>
   </varray>
   <i name="volume">   2134.99358715 </i>
   <varray name="rec_basis" >
    <v>       0.03516003       0.00000000       0.00000000 </v>
    <v>       0.00000000       0.15112459       0.00000000 </v>
    <v>       0.00000000       0.00000000       0.08814934 </v>
   </varray>
  </crystal>
  <varray name="positions" >
   <v>       0.01060286       0.25000000       0.69827137 </v>
   <v>       0.14850228       0.75000002       0.19183199 </v>
   <v>       0.16304924       0.25000000       0.80896652 </v>
   <v>       0.32544407       0.25000000       0.69183206 </v>
   <v>       0.31089711       0.75000002       0.30896648 </v>
   <v>       0.46334350       0.75000002       0.19827131 </v>
   <v>       0.06793721       0.75000002       0.91146178 </v>
   <v>       0.10913646       0.25000000       0.39543199 </v>
   <v>       0.21039420       0.75000002       0.59496628 </v>
   <v>       0.36480990       0.75000002       0.89543191 </v>
   <v>       0.26355215       0.25000000       0.09496630 </v>
   <v>       0.40600914       0.25000000       0.41146186 </v>
   <v>       0.05559849       0.06930292       0.14722281 </v>
   <v>       0.09829373       0.93042433       0.64048621 </v>
   <v>       0.21716475       0.06708865       0.35291513 </v>
   <v>       0.05559849       0.43069707       0.14722281 </v>
   <v>       0.21716475       0.43291134       0.35291513 </v>
   <v>       0.09829373       0.56957567       0.64048621 </v>
   <v>       0.37565264       0.06957566       0.14048619 </v>
   <v>       0.25678160       0.93291134       0.85291513 </v>
   <v>       0.41834785       0.93069707       0.64722283 </v>
   <v>       0.25678160       0.56708866       0.85291513 </v>
   <v>       0.37565264       0.43042433       0.14048619 </v>
   <v>       0.41834785       0.56930293       0.64722283 </v>
   <v>       0.02395209       0.75000002       0.61731658 </v>
   <v>       0.12737317       0.25000000       0.08260823 </v>
   <v>       0.18705445       0.75000002       0.90927344 </v>
   <v>       0.34657319       0.75000002       0.58260829 </v>
   <v>       0.28689191       0.25000000       0.40927340 </v>
   <v>       0.44999425       0.25000000       0.11731652 </v>
   <v>       0.05573958       0.25000000       0.96274397 </v>
   <v>       0.08158949       0.75000002       0.45887610 </v>
   <v>       0.21911849       0.25000000       0.53739235 </v>
   <v>       0.39235688       0.25000000       0.95887618 </v>
   <v>       0.25482786       0.75000002       0.03739236 </v>
   <v>       0.41820675       0.75000002       0.46274389 </v>
  </varray>
 </structure>
 <calculation>
  <scstep>
   <time name="dav">    3.51    3.57</time>
   <time name="total">    6.58    6.71</time>
   <energy>
    <i name="alphaZ">    339.16792064 </i>
    <i name="ewald">  28058.85199683 </i>
    <i name="hartreedc"> -37524.32169479 </i>
    <i name="XCdc">     63.39424595 </i>
    <i name="pawpsdc">   5544.85747789 </i>
    <i name="pawaedc">  -5079.52401523 </i>
    <i name="eentropy">      0.00000000 </i>
    <i name="bandstr">   -580.76082173 </i>
    <i name="atom">  10903.72718121 </i>
    <i name="e_fr_energy">   1725.39229078 </i>
    <i name="e_wo_entrp">   1725.39229078 </i>
    <i name="e_0_energy">   1725.39229078 </i>
   </energy>
  </scstep>
  <scstep>
   <time name="dav">    4.43    4.46</time>
   <time name="total">    4.43    4.46</time>
   <energy>
    <i name="e_fr_energy">     77.64587316 </i>
    <i name="e_wo_entrp">     77.64587316 </i>
    <i name="e_0_energy">     77.64587316 </i>
   </energy>
  </scstep>
  <scstep>
   <time name="dav">    4.16    4.18</time>
   <time name="total">    4.16    4.19</time>
   <energy>
    <i name="e_fr_energy">   -140.13196527 </i>
    <i name="e_wo_entrp">   -140.13196527 </i>
    <i name="e_0_energy">   -140.13196527 </i>
   </energy>
  </scstep>
  <scstep>
   <time name="dav">    4.90    4.92</time>
   <time name="total">    4.90    4.93</time>
   <energy>
    <i name="e_fr_energy">   -149.76542005 </i>
    <i name="e_wo_entrp">   -149.76542005 </i>
    <i name="e_0_energy">   -149.76542005 </i>
   </energy>
  </scstep>
  <scstep>
   <time name="dav">    4.84   10.41</time>
   <time name="total">    5.06   10.63</time>
   <energy>
    <i name="e_fr_energy">   -150.17517334 </i>
    <i name="e_wo_entrp">   -150.17517334 </i>
    <i name="e_0_energy">   -150.17517334 </i>
   </energy>
  </scstep>
  <scstep>
   <time name="dav">    3.80    3.82</time>
   <time name="total">    6.73    6.76</time>
   <energy>
    <i name="e_fr_energy">   -141.44440103 </i>
    <i name="e_wo_entrp">   -141.44440103 </i>
    <i name="e_0_energy">   -141.44440103 </i>
   </energy>
  </scstep>
  <scstep>
   <time name="dav">    4.46    4.48</time>
   <time name="total">    7.30    7.34</time>
   <energy>
    <i name="e_fr_energy">   -140.47055729 </i>
    <i name="e_wo_entrp">   -140.47055729 </i>
    <i name="e_0_energy">   -140.47055729 </i>
   </energy>
  </scstep>
  <scstep>
   <time name="dav">    4.02    4.04</time>
   <time name="total">    6.97    7.00</time>
   <energy>
    <i name="e_fr_energy">   -140.15386370 </i>
    <i name="e_wo_entrp">   -140.15386370 </i>
    <i name="e_0_energy">   -140.15386370 </i>
   </energy>
  </scstep>
  <scstep>
   <time name="dav">    4.02    4.05</time>
   <time name="total">    6.98    7.01</time>
   <energy>
    <i name="e_fr_energy">   -140.01014979 </i>
    <i name="e_wo_entrp">   -140.01014979 </i>
    <i name="e_0_energy">   -140.01014979 </i>
   </energy>
  </scstep>
  <scstep>
   <time name="dav">    4.20    4.22</time>
   <time name="total">    7.10    7.13</time>
   <energy>
    <i name="e_fr_energy">   -139.95536922 </i>
    <i name="e_wo_entrp">   -139.95536922 </i>
    <i name="e_0_energy">   -139.95536922 </i>
   </energy>
  </scstep>
  <scstep>
   <time name="dav">    3.81    3.83</time>
   <time name="total">    6.69    6.72</time>
   <energy>
    <i name="e_fr_energy">   -139.91771311 </i>
    <i name="e_wo_entrp">   -139.91771311 </i>
    <i name="e_0_energy">   -139.91771311 </i>
   </energy>
  </scstep>
  <scstep>
   <time name="dav">    4.14    4.16</time>
   <time name="total">    7.01    7.04</time>
   <energy>
    <i name="e_fr_energy">   -139.92676708 </i>
    <i name="e_wo_entrp">   -139.92676708 </i>
    <i name="e_0_energy">   -139.92676708 </i>
   </energy>
  </scstep>
  <scstep>
   <time name="dav">    3.72    3.73</time>
   <time name="total">    6.65    6.67</time>
   <energy>
    <i name="e_fr_energy">   -139.91467003 </i>
    <i name="e_wo_entrp">   -139.91467003 </i>
    <i name="e_0_energy">   -139.91467003 </i>
   </energy>
  </scstep>
  <scstep>
   <time name="dav">    3.59    3.61</time>
   <time name="total">    6.46    6.49</time>
   <energy>
    <i name="e_fr_energy">   -139.91101775 </i>
    <i name="e_wo_entrp">   -139.91101775 </i>
    <i name="e_0_energy">   -139.91101775 </i>
   </energy>
  </scstep>
  <scstep>
   <time name="dav">    3.80    3.81</time>
   <time name="total">    6.67    6.70</time>
   <energy>
    <i name="e_fr_energy">   -139.91191505 </i>
    <i name="e_wo_entrp">   -139.91191505 </i>
    <i name="e_0_energy">   -139.91191505 </i>
   </energy>
  </scstep>
  <scstep>
   <time name="dav">    3.89    3.91</time>
   <time name="total">    6.78    6.81</time>
   <energy>
    <i name="e_fr_energy">   -139.91242535 </i>
    <i name="e_wo_entrp">   -139.91242535 </i>
    <i name="e_0_energy">   -139.91242535 </i>
   </energy>
  </scstep>
  <scstep>
   <time name="dav">    3.71    3.73</time>
   <time name="total">    6.60    6.63</time>
   <energy>
    <i name="e_fr_energy">   -139.91294448 </i>
    <i name="e_wo_entrp">   -139.91294448 </i>
    <i name="e_0_energy">   -139.91294448 </i>
   </energy>
  </scstep>
  <scstep>
   <time name="dav">    3.40    3.42</time>
   <time name="total">    6.23    6.25</time>
   <energy>
    <i name="e_fr_energy">   -139.91347094 </i>
    <i name="e_wo_entrp">   -139.91347094 </i>
    <i name="e_0_energy">   -139.91347094 </i>
   </energy>
  </scstep>
  <scstep>
   <time name="dav">    3.58    3.60</time>
   <time name="total">    6.56    6.59</time>
   <energy>
    <i name="e_fr_energy">   -139.91403404 </i>
    <i name="e_wo_entrp">   -139.91403404 </i>
    <i name="e_0_energy">   -139.91403404 </i>
   </energy>
  </scstep>
  <scstep>
   <time name="dav">    3.47    3.48</time>
   <time name="total">    6.35    6.37</time>
   <energy>
    <i name="e_fr_energy">   -139.91413204 </i>
    <i name="e_wo_entrp">   -139.91413204 </i>
    <i name="e_0_energy">   -139.91413204 </i>
   </energy>
  </scstep>
  <scstep>
   <time name="dav">    3.07    3.09</time>
   <time name="total">    6.00    6.02</time>
   <energy>
    <i name="e_fr_energy">   -139.91416468 </i>
    <i name="e_wo_entrp">   -139.91416468 </i>
    <i name="e_0_energy">   -139.91416468 </i>
   </energy>
  </scstep>
  <scstep>
   <time name="dav">    3.24    3.25</time>
   <time name="total">    6.14    6.17</time>
   <energy>
    <i name="e_fr_energy">   -139.91417734 </i>
    <i name="e_wo_entrp">   -139.91417734 </i>
    <i name="e_0_energy">   -139.91417734 </i>
   </energy>
  </scstep>
  <scstep>
   <time name="dav">    2.93    2.94</time>
   <time name="total">    5.83    5.85</time>
   <energy>
    <i name="e_fr_energy">   -139.91417970 </i>
    <i name="e_wo_entrp">   -139.91417970 </i>
    <i name="e_0_energy">   -139.91417970 </i>
   </energy>
  </scstep>
  <scstep>
   <time name="dav">    2.87    2.89</time>
   <time name="total">    5.55    5.58</time>
   <energy>
    <i name="alphaZ">    339.16792064 </i>
    <i name="ewald">  28058.85199683 </i>
    <i name="hartreedc"> -37914.98473601 </i>
    <i name="XCdc">     72.40773316 </i>
    <i name="pawpsdc">   5802.90832146 </i>
    <i name="pawaedc">  -5361.20449586 </i>
    <i name="eentropy">      0.00000000 </i>
    <i name="bandstr">  -2040.78810161 </i>
    <i name="atom">  10903.72718121 </i>
    <i name="e_fr_energy">   -139.91418017 </i>
    <i name="e_wo_entrp">   -139.91418017 </i>
    <i name="e_0_energy">   -139.91418017 </i>
   </energy>
  </scstep>
  <structure>
   <crystal>
    <varray name="basis" >
     <v>      28.44138915       0.00000000       0.00000000 </v>
     <v>       0.00000000       6.61705665       0.00000000 </v>
     <v>       0.00000000       0.00000000      11.34438396 </v>
    </varray>
    <i name="volume">   2134.99358715 </i>
    <varray name="rec_basis" >
     <v>       0.03516003       0.00000000       0.00000000 </v>
     <v>       0.00000000       0.15112459       0.00000000 </v>
     <v>       0.00000000       0.00000000       0.08814934 </v>
    </varray>
   </crystal>
   <varray name="positions" >
    <v>       0.01060286       0.25000000       0.69827137 </v>
    <v>       0.14850228       0.75000002       0.19183199 </v>
    <v>       0.16304924       0.25000000       0.80896652 </v>
    <v>       0.32544407       0.25000000       0.69183206 </v>
    <v>       0.31089711       0.75000002       0.30896648 </v>
    <v>       0.46334350       0.75000002       0.19827131 </v>
    <v>       0.06793721       0.75000002       0.91146178 </v>
    <v>       0.10913646       0.25000000       0.39543199 </v>
    <v>       0.21039420       0.75000002       0.59496628 </v>
    <v>       0.36480990       0.75000002       0.89543191 </v>
    <v>       0.26355215       0.25000000       0.09496630 </v>
    <v>       0.40600914       0.25000000       0.41146186 </v>
    <v>       0.05559849       0.06930292       0.14722281 </v>
    <v>       0.09829373       0.93042433       0.64048621 </v>
    <v>       0.21716475       0.06708865       0.35291513 </v>
    <v>       0.05559849       0.43069707       0.14722281 </v>
    <v>       0.21716475       0.43291134       0.35291513 </v>
    <v>       0.09829373       0.56957567       0.64048621 </v>
    <v>       0.37565264       0.06957566       0.14048619 </v>
    <v>       0.25678160       0.93291134       0.85291513 </v>
    <v>       0.41834785       0.93069707       0.64722283 </v>
    <v>       0.25678160       0.56708866       0.85291513 </v>
    <v>       0.37565264       0.43042433       0.14048619 </v>
    <v>       0.41834785       0.56930293       0.64722283 </v>
    <v>       0.02395209       0.75000002       0.61731658 </v>
    <v>       0.12737317       0.25000000       0.08260823 </v>
    <v>       0.18705445       0.75000002       0.90927344 </v>
    <v>       0.34657319       0.75000002       0.58260829 </v>
    <v>       0.28689191       0.25000000       0.40927340 </v>
    <v>       0.44999425       0.25000000       0.11731652 </v>
    <v>       0.05573958       0.25000000       0.96274397 </v>
    <v>       0.08158949       0.75000002       0.45887610 </v>
    <v>       0.21911849       0.25000000       0.53739235 </v>
    <v>       0.39235688       0.25000000       0.95887618 </v>
    <v>       0.25482786       0.75000002       0.03739236 </v>
    <v>       0.41820675       0.75000002       0.46274389 </v>
   </varray>
  </structure>
  <varray name="forces" >
   <v>      -0.00301110      -0.00000000      -0.00257801 </v>
   <v>       0.00472788      -0.00000000      -0.00353828 </v>
   <v>      -0.00467232      -0.00000000       0.00409288 </v>
   <v>      -0.00472788      -0.00000000      -0.00353828 </v>
   <v>       0.00467232      -0.00000000       0.00409288 </v>
   <v>       0.00301110      -0.00000000      -0.00257801 </v>
   <v>      -0.00432856      -0.00000000       0.01016649 </v>
   <v>      -0.00441591      -0.00000000      -0.00103458 </v>
   <v>      -0.00055561      -0.00000000      -0.00743666 </v>
   <v>       0.00441591      -0.00000000      -0.00103458 </v>
   <v>       0.00055561      -0.00000000      -0.00743666 </v>
   <v>       0.00432856      -0.00000000       0.01016649 </v>
   <v>      -0.00907763      -0.00122418      -0.00733951 </v>
   <v>      -0.00235944       0.00205469      -0.00283007 </v>
   <v>      -0.00159263       0.00570617       0.00389706 </v>
   <v>      -0.00907763       0.00122418      -0.00733951 </v>
   <v>      -0.00159263      -0.00570617       0.00389706 </v>
   <v>      -0.00235944      -0.00205469      -0.00283007 </v>
   <v>       0.00235944      -0.00205469      -0.00283007 </v>
   <v>       0.00159263      -0.00570617       0.00389706 </v>
   <v>       0.00907763       0.00122418      -0.00733951 </v>
   <v>       0.00159263       0.00570617       0.00389706 </v>
   <v>       0.00235944       0.00205469      -0.00283007 </v>
   <v>       0.00907763      -0.00122418      -0.00733951 </v>
   <v>      -0.00537929      -0.00000000       0.00209758 </v>
   <v>       0.00774683      -0.00000000      -0.01675201 </v>
   <v>       0.00196522      -0.00000000       0.00603140 </v>
   <v>      -0.00774683      -0.00000000      -0.01675201 </v>
   <v>      -0.00196522      -0.00000000       0.00603140 </v>
   <v>       0.00537929      -0.00000000       0.00209758 </v>
   <v>       0.00437366      -0.00000000      -0.00311839 </v>
   <v>      -0.00020342      -0.00000000       0.01219927 </v>
   <v>       0.00116429      -0.00000000       0.01241534 </v>
   <v>       0.00020342      -0.00000000       0.01219927 </v>
   <v>      -0.00116429      -0.00000000       0.01241534 </v>
   <v>      -0.00437366      -0.00000000      -0.00311839 </v>
  </varray>
  <varray name="stress" >
   <v>       0.00479436       0.00000000       0.00000000 </v>
   <v>       0.00000000      -0.11412577       0.00000000 </v>
   <v>       0.00000000       0.00000000       0.03227068 </v>
  </varray>
  <energy>
   <i name="e_fr_energy">   -139.91418017 </i>
   <i name="e_wo_entrp">   -139.91418017 </i>
   <i name="e_0_energy">      0.00000000 </i>
  </energy>
  <time name="totalsc">  166.00  172.76</time>
  <eigenvalues>
   <array>
    <dimension dim="1">band</dimension>
    <dimension dim="2">kpoint</dimension>
    <dimension dim="3">spin</dimension>
    <field>eigene</field>
    <field>occ</field>
    <set>
     <set comment="spin 1">
      <set comment="kpoint 1">
       <r>  -28.6280    1.0000 </r>
       <r>  -28.6279    1.0000 </r>
       <r>  -27.6488    1.0000 </r>
       <r>  -27.6486    1.0000 </r>
       <r>  -27.6333    1.0000 </r>
       <r>  -27.6316    1.0000 </r>
       <r>  -27.5828    1.0000 </r>
       <r>  -27.5827    1.0000 </r>
       <r>  -27.4886    1.0000 </r>
       <r>  -27.4884    1.0000 </r>
       <r>  -27.4556    1.0000 </r>
       <r>  -27.4542    1.0000 </r>
       <r>  -14.0067    1.0000 </r>
       <r>  -14.0064    1.0000 </r>
       <r>  -13.9333    1.0000 </r>
       <r>  -13.9332    1.0000 </r>
       <r>  -13.8427    1.0000 </r>
       <r>  -13.8427    1.0000 </r>
       <r>  -13.2818    1.0000 </r>
       <r>  -13.2437    1.0000 </r>
       <r>  -13.1588    1.0000 </r>
       <r>  -13.1326    1.0000 </r>
       <r>  -13.1251    1.0000 </r>
       <r>  -13.0658    1.0000 </r>
       <r>  -13.0634    1.0000 </r>
       <r>  -13.0480    1.0000 </r>
       <r>  -13.0271    1.0000 </r>
       <r>  -13.0249    1.0000 </r>
       <r>  -13.0229    1.0000 </r>
       <r>  -12.9997    1.0000 </r>
       <r>  -12.9972    1.0000 </r>
       <r>  -12.9734    1.0000 </r>
       <r>  -12.9727    1.0000 </r>
       <r>  -12.9685    1.0000 </r>
       <r>  -12.9680    1.0000 </r>
       <r>  -12.9263    1.0000 </r>
       <r>  -12.8641    1.0000 </r>
       <r>  -12.8338    1.0000 </r>
       <r>  -12.7955    1.0000 </r>
       <r>  -12.7887    1.0000 </r>
       <r>  -12.7730    1.0000 </r>
       <r>  -12.7722    1.0000 </r>
       <r>  -12.7638    1.0000 </r>
       <r>  -12.7492    1.0000 </r>
       <r>  -12.7428    1.0000 </r>
       <r>  -12.7324    1.0000 </r>
       <r>  -12.7145    1.0000 </r>
       <r>  -12.7111    1.0000 </r>
       <r>  -10.8303    1.0000 </r>
       <r>  -10.6273    1.0000 </r>
       <r>  -10.6241    1.0000 </r>
       <r>  -10.5912    1.0000 </r>
       <r>  -10.2169    1.0000 </r>
       <r>  -10.2105    1.0000 </r>
       <r>   -6.2292    1.0000 </r>
       <r>   -6.0674    1.0000 </r>
       <r>   -6.0158    1.0000 </r>
       <r>   -5.8980    1.0000 </r>
       <r>   -5.8921    1.0000 </r>
       <r>   -5.8524    1.0000 </r>
       <r>   -5.8489    1.0000 </r>
       <r>   -5.7985    1.0000 </r>
       <r>   -5.7138    1.0000 </r>
       <r>   -5.7046    1.0000 </r>
       <r>   -5.7038    1.0000 </r>
       <r>   -5.6809    1.0000 </r>
       <r>   -5.5417    1.0000 </r>
       <r>   -5.5023    1.0000 </r>
       <r>   -5.4597    1.0000 </r>
       <r>   -5.3998    1.0000 </r>
       <r>   -5.1692    1.0000 </r>
       <r>   -5.1683    1.0000 </r>
       <r>   -3.3817    1.0000 </r>
       <r>   -2.8804    1.0000 </r>
       <r>   -2.5920    1.0000 </r>
       <r>   -2.5739    1.0000 </r>
       <r>   -2.3267    1.0000 </r>
       <r>   -2.2229    1.0000 </r>
       <r>   -2.0956    1.0000 </r>
       <r>   -1.9530    1.0000 </r>
       <r>   -1.8105    1.0000 </r>
       <r>   -1.7380    1.0000 </r>
       <r>   -1.7054    1.0000 </r>
       <r>   -1.6888    1.0000 </r>
       <r>   -1.6085    1.0000 </r>
       <r>   -1.5062    1.0000 </r>
       <r>   -1.4981    1.0000 </r>
       <r>   -1.4511    1.0000 </r>
       <r>   -1.4491    1.0000 </r>
       <r>   -1.4301    1.0000 </r>
       <r>   -1.2496    1.0000 </r>
       <r>   -1.1823    1.0000 </r>
       <r>   -1.1734    1.0000 </r>
       <r>   -1.1159    1.0000 </r>
       <r>   -1.1010    1.0000 </r>
       <r>   -1.0288    1.0000 </r>
       <r>   -1.0185    1.0000 </r>
       <r>   -0.8488    1.0000 </r>
       <r>   -0.7319    1.0000 </r>
       <r>   -0.7303    1.0000 </r>
       <r>   -0.7203    1.0000 </r>
       <r>   -0.6918    1.0000 </r>
       <r>   -0.6398    1.0000 </r>
       <r>   -0.6342    1.0000 </r>
       <r>   -0.4419    1.0000 </r>
       <r>   -0.4183    1.0000 </r>
       <r>   -0.3351    1.0000 </r>
       <r>   -0.2966    1.0000 </r>
       <r>    1.0029    0.0000 </r>
       <r>    1.0539    0.0000 </r>
       <r>    1.1373    0.0000 </r>
       <r>    1.1504    0.0000 </r>
       <r>    1.1726    0.0000 </r>
       <r>    1.2943    0.0000 </r>
       <r>    1.3495    0.0000 </r>
       <r>    1.3763    0.0000 </r>
       <r>    1.4082    0.0000 </r>
       <r>    1.5254    0.0000 </r>
       <r>    1.5974    0.0000 </r>
       <r>    1.6381    0.0000 </r>
       <r>    1.7847    0.0000 </r>
       <r>    1.8159    0.0000 </r>
       <r>    1.8377    0.0000 </r>
       <r>    1.9176    0.0000 </r>
       <r>    2.0627    0.0000 </r>
       <r>    2.1474    0.0000 </r>
       <r>    2.2369    0.0000 </r>
       <r>    2.2391    0.0000 </r>
       <r>    2.3420    0.0000 </r>
       <r>    2.3928    0.0000 </r>
       <r>    2.5540    0.0000 </r>
       <r>    2.5556    0.0000 </r>
       <r>    2.7306    0.0000 </r>
       <r>    2.7673    0.0000 </r>
       <r>    2.8030    0.0000 </r>
       <r>    2.8313    0.0000 </r>
      </set>
      <set comment="kpoint 2">
       <r>  -28.6279    1.0000 </r>
       <r>  -28.6279    1.0000 </r>
       <r>  -27.6486    1.0000 </r>
       <r>  -27.6484    1.0000 </r>
       <r>  -27.6330    1.0000 </r>
       <r>  -27.6315    1.0000 </r>
       <r>  -27.5822    1.0000 </r>
       <r>  -27.5820    1.0000 </r>
       <r>  -27.4893    1.0000 </r>
       <r>  -27.4891    1.0000 </r>
       <r>  -27.4558    1.0000 </r>
       <r>  -27.4545    1.0000 </r>
       <r>  -14.0048    1.0000 </r>
       <r>  -14.0046    1.0000 </r>
       <r>  -13.9350    1.0000 </r>
       <r>  -13.9349    1.0000 </r>
       <r>  -13.8517    1.0000 </r>
       <r>  -13.8517    1.0000 </r>
       <r>  -13.2817    1.0000 </r>
       <r>  -13.2409    1.0000 </r>
       <r>  -13.1854    1.0000 </r>
       <r>  -13.1467    1.0000 </r>
       <r>  -13.1002    1.0000 </r>
       <r>  -13.1001    1.0000 </r>
       <r>  -13.0668    1.0000 </r>
       <r>  -13.0607    1.0000 </r>
       <r>  -13.0450    1.0000 </r>
       <r>  -13.0397    1.0000 </r>
       <r>  -13.0304    1.0000 </r>
       <r>  -13.0241    1.0000 </r>
       <r>  -13.0116    1.0000 </r>
       <r>  -12.9930    1.0000 </r>
       <r>  -12.9622    1.0000 </r>
       <r>  -12.9575    1.0000 </r>
       <r>  -12.9282    1.0000 </r>
       <r>  -12.9204    1.0000 </r>
       <r>  -12.8462    1.0000 </r>
       <r>  -12.8311    1.0000 </r>
       <r>  -12.7883    1.0000 </r>
       <r>  -12.7852    1.0000 </r>
       <r>  -12.7754    1.0000 </r>
       <r>  -12.7688    1.0000 </r>
       <r>  -12.7551    1.0000 </r>
       <r>  -12.7484    1.0000 </r>
       <r>  -12.7356    1.0000 </r>
       <r>  -12.7330    1.0000 </r>
       <r>  -12.7153    1.0000 </r>
       <r>  -12.7127    1.0000 </r>
       <r>  -10.7848    1.0000 </r>
       <r>  -10.6218    1.0000 </r>
       <r>  -10.6029    1.0000 </r>
       <r>  -10.5805    1.0000 </r>
       <r>  -10.1997    1.0000 </r>
       <r>  -10.1949    1.0000 </r>
       <r>   -6.1628    1.0000 </r>
       <r>   -6.0435    1.0000 </r>
       <r>   -6.0143    1.0000 </r>
       <r>   -5.9427    1.0000 </r>
       <r>   -5.8535    1.0000 </r>
       <r>   -5.8263    1.0000 </r>
       <r>   -5.8204    1.0000 </r>
       <r>   -5.8081    1.0000 </r>
       <r>   -5.7951    1.0000 </r>
       <r>   -5.7404    1.0000 </r>
       <r>   -5.6907    1.0000 </r>
       <r>   -5.6755    1.0000 </r>
       <r>   -5.4991    1.0000 </r>
       <r>   -5.4722    1.0000 </r>
       <r>   -5.4357    1.0000 </r>
       <r>   -5.4083    1.0000 </r>
       <r>   -5.2523    1.0000 </r>
       <r>   -5.2218    1.0000 </r>
       <r>   -3.1521    1.0000 </r>
       <r>   -2.7052    1.0000 </r>
       <r>   -2.4858    1.0000 </r>
       <r>   -2.4476    1.0000 </r>
       <r>   -2.3109    1.0000 </r>
       <r>   -2.1865    1.0000 </r>
       <r>   -2.0228    1.0000 </r>
       <r>   -1.9540    1.0000 </r>
       <r>   -1.8876    1.0000 </r>
       <r>   -1.7667    1.0000 </r>
       <r>   -1.7334    1.0000 </r>
       <r>   -1.6480    1.0000 </r>
       <r>   -1.6135    1.0000 </r>
       <r>   -1.5635    1.0000 </r>
       <r>   -1.5546    1.0000 </r>
       <r>   -1.4888    1.0000 </r>
       <r>   -1.4243    1.0000 </r>
       <r>   -1.4236    1.0000 </r>
       <r>   -1.2904    1.0000 </r>
       <r>   -1.2865    1.0000 </r>
       <r>   -1.1840    1.0000 </r>
       <r>   -1.1472    1.0000 </r>
       <r>   -1.0582    1.0000 </r>
       <r>   -1.0048    1.0000 </r>
       <r>   -0.9746    1.0000 </r>
       <r>   -0.9087    1.0000 </r>
       <r>   -0.8482    1.0000 </r>
       <r>   -0.8033    1.0000 </r>
       <r>   -0.7665    1.0000 </r>
       <r>   -0.7212    1.0000 </r>
       <r>   -0.6651    1.0000 </r>
       <r>   -0.5760    1.0000 </r>
       <r>   -0.4506    1.0000 </r>
       <r>   -0.4278    1.0000 </r>
       <r>   -0.3444    1.0000 </r>
       <r>   -0.2824    1.0000 </r>
       <r>    0.8544    0.0000 </r>
       <r>    1.0082    0.0000 </r>
       <r>    1.0140    0.0000 </r>
       <r>    1.1401    0.0000 </r>
       <r>    1.2094    0.0000 </r>
       <r>    1.2675    0.0000 </r>
       <r>    1.2800    0.0000 </r>
       <r>    1.3738    0.0000 </r>
       <r>    1.4481    0.0000 </r>
       <r>    1.5269    0.0000 </r>
       <r>    1.5759    0.0000 </r>
       <r>    1.6443    0.0000 </r>
       <r>    1.6684    0.0000 </r>
       <r>    1.7615    0.0000 </r>
       <r>    1.8712    0.0000 </r>
       <r>    1.9708    0.0000 </r>
       <r>    2.0405    0.0000 </r>
       <r>    2.1294    0.0000 </r>
       <r>    2.1682    0.0000 </r>
       <r>    2.2915    0.0000 </r>
       <r>    2.3235    0.0000 </r>
       <r>    2.3613    0.0000 </r>
       <r>    2.4412    0.0000 </r>
       <r>    2.4893    0.0000 </r>
       <r>    2.5582    0.0000 </r>
       <r>    2.6485    0.0000 </r>
       <r>    2.7544    0.0000 </r>
       <r>    2.8241    0.0000 </r>
      </set>
      <set comment="kpoint 3">
       <r>  -28.6278    1.0000 </r>
       <r>  -28.6278    1.0000 </r>
       <r>  -27.6483    1.0000 </r>
       <r>  -27.6482    1.0000 </r>
       <r>  -27.6322    1.0000 </r>
       <r>  -27.6313    1.0000 </r>
       <r>  -27.5807    1.0000 </r>
       <r>  -27.5807    1.0000 </r>
       <r>  -27.4907    1.0000 </r>
       <r>  -27.4906    1.0000 </r>
       <r>  -27.4561    1.0000 </r>
       <r>  -27.4553    1.0000 </r>
       <r>  -14.0006    1.0000 </r>
       <r>  -14.0004    1.0000 </r>
       <r>  -13.9385    1.0000 </r>
       <r>  -13.9384    1.0000 </r>
       <r>  -13.8696    1.0000 </r>
       <r>  -13.8695    1.0000 </r>
       <r>  -13.2792    1.0000 </r>
       <r>  -13.2363    1.0000 </r>
       <r>  -13.1979    1.0000 </r>
       <r>  -13.1766    1.0000 </r>
       <r>  -13.1563    1.0000 </r>
       <r>  -13.1144    1.0000 </r>
       <r>  -13.1062    1.0000 </r>
       <r>  -13.0953    1.0000 </r>
       <r>  -13.0640    1.0000 </r>
       <r>  -13.0394    1.0000 </r>
       <r>  -13.0290    1.0000 </r>
       <r>  -13.0285    1.0000 </r>
       <r>  -13.0086    1.0000 </r>
       <r>  -13.0062    1.0000 </r>
       <r>  -12.9553    1.0000 </r>
       <r>  -12.9390    1.0000 </r>
       <r>  -12.9283    1.0000 </r>
       <r>  -12.9236    1.0000 </r>
       <r>  -12.8367    1.0000 </r>
       <r>  -12.8327    1.0000 </r>
       <r>  -12.7743    1.0000 </r>
       <r>  -12.7651    1.0000 </r>
       <r>  -12.7598    1.0000 </r>
       <r>  -12.7570    1.0000 </r>
       <r>  -12.7469    1.0000 </r>
       <r>  -12.7379    1.0000 </r>
       <r>  -12.7296    1.0000 </r>
       <r>  -12.7295    1.0000 </r>
       <r>  -12.7172    1.0000 </r>
       <r>  -12.7136    1.0000 </r>
       <r>  -10.6942    1.0000 </r>
       <r>  -10.6156    1.0000 </r>
       <r>  -10.5627    1.0000 </r>
       <r>  -10.5576    1.0000 </r>
       <r>  -10.1635    1.0000 </r>
       <r>  -10.1618    1.0000 </r>
       <r>   -6.1207    1.0000 </r>
       <r>   -6.0551    1.0000 </r>
       <r>   -6.0109    1.0000 </r>
       <r>   -5.9618    1.0000 </r>
       <r>   -5.9304    1.0000 </r>
       <r>   -5.8282    1.0000 </r>
       <r>   -5.7974    1.0000 </r>
       <r>   -5.7730    1.0000 </r>
       <r>   -5.7245    1.0000 </r>
       <r>   -5.6895    1.0000 </r>
       <r>   -5.6660    1.0000 </r>
       <r>   -5.6645    1.0000 </r>
       <r>   -5.4374    1.0000 </r>
       <r>   -5.4363    1.0000 </r>
       <r>   -5.3911    1.0000 </r>
       <r>   -5.3863    1.0000 </r>
       <r>   -5.3792    1.0000 </r>
       <r>   -5.3247    1.0000 </r>
       <r>   -2.7152    1.0000 </r>
       <r>   -2.3473    1.0000 </r>
       <r>   -2.3206    1.0000 </r>
       <r>   -2.3197    1.0000 </r>
       <r>   -2.1758    1.0000 </r>
       <r>   -2.1540    1.0000 </r>
       <r>   -1.9736    1.0000 </r>
       <r>   -1.9298    1.0000 </r>
       <r>   -1.8314    1.0000 </r>
       <r>   -1.8257    1.0000 </r>
       <r>   -1.8219    1.0000 </r>
       <r>   -1.6817    1.0000 </r>
       <r>   -1.6817    1.0000 </r>
       <r>   -1.6035    1.0000 </r>
       <r>   -1.5235    1.0000 </r>
       <r>   -1.5132    1.0000 </r>
       <r>   -1.4956    1.0000 </r>
       <r>   -1.4513    1.0000 </r>
       <r>   -1.3561    1.0000 </r>
       <r>   -1.3409    1.0000 </r>
       <r>   -1.2300    1.0000 </r>
       <r>   -1.1872    1.0000 </r>
       <r>   -1.1328    1.0000 </r>
       <r>   -1.0795    1.0000 </r>
       <r>   -1.0524    1.0000 </r>
       <r>   -1.0350    1.0000 </r>
       <r>   -0.9314    1.0000 </r>
       <r>   -0.8690    1.0000 </r>
       <r>   -0.7758    1.0000 </r>
       <r>   -0.6939    1.0000 </r>
       <r>   -0.6436    1.0000 </r>
       <r>   -0.5363    1.0000 </r>
       <r>   -0.5048    1.0000 </r>
       <r>   -0.4968    1.0000 </r>
       <r>   -0.3651    1.0000 </r>
       <r>   -0.3517    1.0000 </r>
       <r>    0.7554    0.0000 </r>
       <r>    0.8807    0.0000 </r>
       <r>    0.9010    0.0000 </r>
       <r>    0.9883    0.0000 </r>
       <r>    1.1266    0.0000 </r>
       <r>    1.1673    0.0000 </r>
       <r>    1.2919    0.0000 </r>
       <r>    1.4430    0.0000 </r>
       <r>    1.4559    0.0000 </r>
       <r>    1.4704    0.0000 </r>
       <r>    1.5916    0.0000 </r>
       <r>    1.6178    0.0000 </r>
       <r>    1.7307    0.0000 </r>
       <r>    1.7354    0.0000 </r>
       <r>    1.8102    0.0000 </r>
       <r>    1.9105    0.0000 </r>
       <r>    1.9647    0.0000 </r>
       <r>    2.0495    0.0000 </r>
       <r>    2.0614    0.0000 </r>
       <r>    2.1029    0.0000 </r>
       <r>    2.1867    0.0000 </r>
       <r>    2.2034    0.0000 </r>
       <r>    2.2289    0.0000 </r>
       <r>    2.3205    0.0000 </r>
       <r>    2.4202    0.0000 </r>
       <r>    2.5852    0.0000 </r>
       <r>    2.6145    0.0000 </r>
       <r>    2.6930    0.0000 </r>
      </set>
      <set comment="kpoint 4">
       <r>  -28.6278    1.0000 </r>
       <r>  -28.6278    1.0000 </r>
       <r>  -27.6481    1.0000 </r>
       <r>  -27.6481    1.0000 </r>
       <r>  -27.6315    1.0000 </r>
       <r>  -27.6315    1.0000 </r>
       <r>  -27.5800    1.0000 </r>
       <r>  -27.5800    1.0000 </r>
       <r>  -27.4914    1.0000 </r>
       <r>  -27.4914    1.0000 </r>
       <r>  -27.4560    1.0000 </r>
       <r>  -27.4560    1.0000 </r>
       <r>  -13.9981    1.0000 </r>
       <r>  -13.9981    1.0000 </r>
       <r>  -13.9403    1.0000 </r>
       <r>  -13.9403    1.0000 </r>
       <r>  -13.8785    1.0000 </r>
       <r>  -13.8785    1.0000 </r>
       <r>  -13.2566    1.0000 </r>
       <r>  -13.2566    1.0000 </r>
       <r>  -13.2018    1.0000 </r>
       <r>  -13.2018    1.0000 </r>
       <r>  -13.1403    1.0000 </r>
       <r>  -13.1402    1.0000 </r>
       <r>  -13.1308    1.0000 </r>
       <r>  -13.1308    1.0000 </r>
       <r>  -13.0517    1.0000 </r>
       <r>  -13.0516    1.0000 </r>
       <r>  -13.0212    1.0000 </r>
       <r>  -13.0212    1.0000 </r>
       <r>  -13.0121    1.0000 </r>
       <r>  -13.0121    1.0000 </r>
       <r>  -12.9418    1.0000 </r>
       <r>  -12.9418    1.0000 </r>
       <r>  -12.9337    1.0000 </r>
       <r>  -12.9336    1.0000 </r>
       <r>  -12.8337    1.0000 </r>
       <r>  -12.8337    1.0000 </r>
       <r>  -12.7655    1.0000 </r>
       <r>  -12.7655    1.0000 </r>
       <r>  -12.7444    1.0000 </r>
       <r>  -12.7444    1.0000 </r>
       <r>  -12.7399    1.0000 </r>
       <r>  -12.7399    1.0000 </r>
       <r>  -12.7221    1.0000 </r>
       <r>  -12.7221    1.0000 </r>
       <r>  -12.7195    1.0000 </r>
       <r>  -12.7195    1.0000 </r>
       <r>  -10.6321    1.0000 </r>
       <r>  -10.6321    1.0000 </r>
       <r>  -10.5445    1.0000 </r>
       <r>  -10.5445    1.0000 </r>
       <r>  -10.1443    1.0000 </r>
       <r>  -10.1443    1.0000 </r>
       <r>   -6.1378    1.0000 </r>
       <r>   -6.1378    1.0000 </r>
       <r>   -6.0031    1.0000 </r>
       <r>   -6.0031    1.0000 </r>
       <r>   -5.8364    1.0000 </r>
       <r>   -5.8364    1.0000 </r>
       <r>   -5.7629    1.0000 </r>
       <r>   -5.7629    1.0000 </r>
       <r>   -5.6888    1.0000 </r>
       <r>   -5.6887    1.0000 </r>
       <r>   -5.6260    1.0000 </r>
       <r>   -5.6260    1.0000 </r>
       <r>   -5.4250    1.0000 </r>
       <r>   -5.4250    1.0000 </r>
       <r>   -5.4018    1.0000 </r>
       <r>   -5.4018    1.0000 </r>
       <r>   -5.3603    1.0000 </r>
       <r>   -5.3603    1.0000 </r>
       <r>   -2.4220    1.0000 </r>
       <r>   -2.4220    1.0000 </r>
       <r>   -2.1992    1.0000 </r>
       <r>   -2.1991    1.0000 </r>
       <r>   -2.1166    1.0000 </r>
       <r>   -2.1166    1.0000 </r>
       <r>   -1.9732    1.0000 </r>
       <r>   -1.9732    1.0000 </r>
       <r>   -1.8388    1.0000 </r>
       <r>   -1.8388    1.0000 </r>
       <r>   -1.7979    1.0000 </r>
       <r>   -1.7979    1.0000 </r>
       <r>   -1.5843    1.0000 </r>
       <r>   -1.5843    1.0000 </r>
       <r>   -1.5217    1.0000 </r>
       <r>   -1.5217    1.0000 </r>
       <r>   -1.4835    1.0000 </r>
       <r>   -1.4835    1.0000 </r>
       <r>   -1.3983    1.0000 </r>
       <r>   -1.3983    1.0000 </r>
       <r>   -1.2746    1.0000 </r>
       <r>   -1.2746    1.0000 </r>
       <r>   -1.1319    1.0000 </r>
       <r>   -1.1319    1.0000 </r>
       <r>   -1.0895    1.0000 </r>
       <r>   -1.0895    1.0000 </r>
       <r>   -0.8767    1.0000 </r>
       <r>   -0.8767    1.0000 </r>
       <r>   -0.7187    1.0000 </r>
       <r>   -0.7187    1.0000 </r>
       <r>   -0.5825    1.0000 </r>
       <r>   -0.5825    1.0000 </r>
       <r>   -0.5112    1.0000 </r>
       <r>   -0.5111    1.0000 </r>
       <r>   -0.4033    1.0000 </r>
       <r>   -0.4032    1.0000 </r>
       <r>    0.6612    0.0000 </r>
       <r>    0.6612    0.0000 </r>
       <r>    0.9508    0.0000 </r>
       <r>    0.9508    0.0000 </r>
       <r>    1.1122    0.0000 </r>
       <r>    1.1122    0.0000 </r>
       <r>    1.3796    0.0000 </r>
       <r>    1.3796    0.0000 </r>
       <r>    1.4167    0.0000 </r>
       <r>    1.4168    0.0000 </r>
       <r>    1.6314    0.0000 </r>
       <r>    1.6314    0.0000 </r>
       <r>    1.6987    0.0000 </r>
       <r>    1.6987    0.0000 </r>
       <r>    1.8600    0.0000 </r>
       <r>    1.8600    0.0000 </r>
       <r>    1.9376    0.0000 </r>
       <r>    1.9376    0.0000 </r>
       <r>    2.0642    0.0000 </r>
       <r>    2.0642    0.0000 </r>
       <r>    2.1542    0.0000 </r>
       <r>    2.1543    0.0000 </r>
       <r>    2.1968    0.0000 </r>
       <r>    2.1969    0.0000 </r>
       <r>    2.3735    0.0000 </r>
       <r>    2.3735    0.0000 </r>
       <r>    2.4724    0.0000 </r>
       <r>    2.4724    0.0000 </r>
      </set>
      <set comment="kpoint 5">
       <r>  -28.6280    1.0000 </r>
       <r>  -28.6279    1.0000 </r>
       <r>  -27.6487    1.0000 </r>
       <r>  -27.6486    1.0000 </r>
       <r>  -27.6331    1.0000 </r>
       <r>  -27.6319    1.0000 </r>
       <r>  -27.5828    1.0000 </r>
       <r>  -27.5827    1.0000 </r>
       <r>  -27.4885    1.0000 </r>
       <r>  -27.4884    1.0000 </r>
       <r>  -27.4554    1.0000 </r>
       <r>  -27.4544    1.0000 </r>
       <r>  -14.0066    1.0000 </r>
       <r>  -14.0064    1.0000 </r>
       <r>  -13.9332    1.0000 </r>
       <r>  -13.9331    1.0000 </r>
       <r>  -13.8427    1.0000 </r>
       <r>  -13.8427    1.0000 </r>
       <r>  -13.2737    1.0000 </r>
       <r>  -13.2455    1.0000 </r>
       <r>  -13.1512    1.0000 </r>
       <r>  -13.1314    1.0000 </r>
       <r>  -13.1160    1.0000 </r>
       <r>  -13.0666    1.0000 </r>
       <r>  -13.0632    1.0000 </r>
       <r>  -13.0591    1.0000 </r>
       <r>  -13.0384    1.0000 </r>
       <r>  -13.0253    1.0000 </r>
       <r>  -13.0220    1.0000 </r>
       <r>  -13.0108    1.0000 </r>
       <r>  -13.0090    1.0000 </r>
       <r>  -12.9898    1.0000 </r>
       <r>  -12.9627    1.0000 </r>
       <r>  -12.9597    1.0000 </r>
       <r>  -12.9483    1.0000 </r>
       <r>  -12.9233    1.0000 </r>
       <r>  -12.8582    1.0000 </r>
       <r>  -12.8302    1.0000 </r>
       <r>  -12.7977    1.0000 </r>
       <r>  -12.7953    1.0000 </r>
       <r>  -12.7755    1.0000 </r>
       <r>  -12.7749    1.0000 </r>
       <r>  -12.7696    1.0000 </r>
       <r>  -12.7526    1.0000 </r>
       <r>  -12.7393    1.0000 </r>
       <r>  -12.7318    1.0000 </r>
       <r>  -12.7140    1.0000 </r>
       <r>  -12.7115    1.0000 </r>
       <r>  -10.7951    1.0000 </r>
       <r>  -10.6530    1.0000 </r>
       <r>  -10.6123    1.0000 </r>
       <r>  -10.5911    1.0000 </r>
       <r>  -10.2241    1.0000 </r>
       <r>  -10.2186    1.0000 </r>
       <r>   -6.2029    1.0000 </r>
       <r>   -6.0619    1.0000 </r>
       <r>   -6.0499    1.0000 </r>
       <r>   -5.9613    1.0000 </r>
       <r>   -5.8823    1.0000 </r>
       <r>   -5.8425    1.0000 </r>
       <r>   -5.8335    1.0000 </r>
       <r>   -5.8106    1.0000 </r>
       <r>   -5.7199    1.0000 </r>
       <r>   -5.7018    1.0000 </r>
       <r>   -5.6990    1.0000 </r>
       <r>   -5.6842    1.0000 </r>
       <r>   -5.5547    1.0000 </r>
       <r>   -5.5259    1.0000 </r>
       <r>   -5.4236    1.0000 </r>
       <r>   -5.3678    1.0000 </r>
       <r>   -5.1735    1.0000 </r>
       <r>   -5.1728    1.0000 </r>
       <r>   -3.2388    1.0000 </r>
       <r>   -2.8083    1.0000 </r>
       <r>   -2.6173    1.0000 </r>
       <r>   -2.5529    1.0000 </r>
       <r>   -2.3167    1.0000 </r>
       <r>   -2.2062    1.0000 </r>
       <r>   -2.1055    1.0000 </r>
       <r>   -1.9753    1.0000 </r>
       <r>   -1.8773    1.0000 </r>
       <r>   -1.6986    1.0000 </r>
       <r>   -1.6905    1.0000 </r>
       <r>   -1.6790    1.0000 </r>
       <r>   -1.6196    1.0000 </r>
       <r>   -1.6013    1.0000 </r>
       <r>   -1.5039    1.0000 </r>
       <r>   -1.4547    1.0000 </r>
       <r>   -1.4546    1.0000 </r>
       <r>   -1.4313    1.0000 </r>
       <r>   -1.3420    1.0000 </r>
       <r>   -1.3129    1.0000 </r>
       <r>   -1.2029    1.0000 </r>
       <r>   -1.1267    1.0000 </r>
       <r>   -1.0990    1.0000 </r>
       <r>   -1.0331    1.0000 </r>
       <r>   -1.0243    1.0000 </r>
       <r>   -0.9493    1.0000 </r>
       <r>   -0.7242    1.0000 </r>
       <r>   -0.7215    1.0000 </r>
       <r>   -0.6967    1.0000 </r>
       <r>   -0.6856    1.0000 </r>
       <r>   -0.6547    1.0000 </r>
       <r>   -0.6204    1.0000 </r>
       <r>   -0.4138    1.0000 </r>
       <r>   -0.4039    1.0000 </r>
       <r>   -0.3569    1.0000 </r>
       <r>   -0.3298    1.0000 </r>
       <r>    1.0708    0.0000 </r>
       <r>    1.1155    0.0000 </r>
       <r>    1.1382    0.0000 </r>
       <r>    1.1775    0.0000 </r>
       <r>    1.2284    0.0000 </r>
       <r>    1.3067    0.0000 </r>
       <r>    1.4044    0.0000 </r>
       <r>    1.4055    0.0000 </r>
       <r>    1.4895    0.0000 </r>
       <r>    1.5597    0.0000 </r>
       <r>    1.6172    0.0000 </r>
       <r>    1.6733    0.0000 </r>
       <r>    1.7945    0.0000 </r>
       <r>    1.8439    0.0000 </r>
       <r>    1.8821    0.0000 </r>
       <r>    1.9184    0.0000 </r>
       <r>    2.0410    0.0000 </r>
       <r>    2.1573    0.0000 </r>
       <r>    2.2421    0.0000 </r>
       <r>    2.2704    0.0000 </r>
       <r>    2.3191    0.0000 </r>
       <r>    2.4775    0.0000 </r>
       <r>    2.4998    0.0000 </r>
       <r>    2.6752    0.0000 </r>
       <r>    2.7046    0.0000 </r>
       <r>    2.7158    0.0000 </r>
       <r>    2.7948    0.0000 </r>
       <r>    2.7991    0.0000 </r>
      </set>
      <set comment="kpoint 6">
       <r>  -28.6279    1.0000 </r>
       <r>  -28.6279    1.0000 </r>
       <r>  -27.6486    1.0000 </r>
       <r>  -27.6484    1.0000 </r>
       <r>  -27.6328    1.0000 </r>
       <r>  -27.6317    1.0000 </r>
       <r>  -27.5821    1.0000 </r>
       <r>  -27.5821    1.0000 </r>
       <r>  -27.4892    1.0000 </r>
       <r>  -27.4891    1.0000 </r>
       <r>  -27.4556    1.0000 </r>
       <r>  -27.4547    1.0000 </r>
       <r>  -14.0047    1.0000 </r>
       <r>  -14.0046    1.0000 </r>
       <r>  -13.9349    1.0000 </r>
       <r>  -13.9348    1.0000 </r>
       <r>  -13.8517    1.0000 </r>
       <r>  -13.8517    1.0000 </r>
       <r>  -13.2704    1.0000 </r>
       <r>  -13.2398    1.0000 </r>
       <r>  -13.1843    1.0000 </r>
       <r>  -13.1532    1.0000 </r>
       <r>  -13.1101    1.0000 </r>
       <r>  -13.0913    1.0000 </r>
       <r>  -13.0712    1.0000 </r>
       <r>  -13.0706    1.0000 </r>
       <r>  -13.0496    1.0000 </r>
       <r>  -13.0370    1.0000 </r>
       <r>  -13.0196    1.0000 </r>
       <r>  -13.0144    1.0000 </r>
       <r>  -13.0026    1.0000 </r>
       <r>  -12.9897    1.0000 </r>
       <r>  -12.9746    1.0000 </r>
       <r>  -12.9704    1.0000 </r>
       <r>  -12.9280    1.0000 </r>
       <r>  -12.9244    1.0000 </r>
       <r>  -12.8365    1.0000 </r>
       <r>  -12.8271    1.0000 </r>
       <r>  -12.7891    1.0000 </r>
       <r>  -12.7890    1.0000 </r>
       <r>  -12.7803    1.0000 </r>
       <r>  -12.7718    1.0000 </r>
       <r>  -12.7568    1.0000 </r>
       <r>  -12.7499    1.0000 </r>
       <r>  -12.7346    1.0000 </r>
       <r>  -12.7307    1.0000 </r>
       <r>  -12.7145    1.0000 </r>
       <r>  -12.7124    1.0000 </r>
       <r>  -10.7565    1.0000 </r>
       <r>  -10.6418    1.0000 </r>
       <r>  -10.5955    1.0000 </r>
       <r>  -10.5806    1.0000 </r>
       <r>  -10.2046    1.0000 </r>
       <r>  -10.2006    1.0000 </r>
       <r>   -6.1564    1.0000 </r>
       <r>   -6.0451    1.0000 </r>
       <r>   -6.0434    1.0000 </r>
       <r>   -5.9849    1.0000 </r>
       <r>   -5.8442    1.0000 </r>
       <r>   -5.8333    1.0000 </r>
       <r>   -5.8230    1.0000 </r>
       <r>   -5.8017    1.0000 </r>
       <r>   -5.7757    1.0000 </r>
       <r>   -5.7500    1.0000 </r>
       <r>   -5.6897    1.0000 </r>
       <r>   -5.6812    1.0000 </r>
       <r>   -5.5056    1.0000 </r>
       <r>   -5.4839    1.0000 </r>
       <r>   -5.4068    1.0000 </r>
       <r>   -5.3732    1.0000 </r>
       <r>   -5.2379    1.0000 </r>
       <r>   -5.2229    1.0000 </r>
       <r>   -3.0381    1.0000 </r>
       <r>   -2.6507    1.0000 </r>
       <r>   -2.4955    1.0000 </r>
       <r>   -2.4524    1.0000 </r>
       <r>   -2.2957    1.0000 </r>
       <r>   -2.1736    1.0000 </r>
       <r>   -2.0349    1.0000 </r>
       <r>   -1.9627    1.0000 </r>
       <r>   -1.8930    1.0000 </r>
       <r>   -1.7930    1.0000 </r>
       <r>   -1.7483    1.0000 </r>
       <r>   -1.6851    1.0000 </r>
       <r>   -1.6759    1.0000 </r>
       <r>   -1.5959    1.0000 </r>
       <r>   -1.5587    1.0000 </r>
       <r>   -1.5082    1.0000 </r>
       <r>   -1.4431    1.0000 </r>
       <r>   -1.4304    1.0000 </r>
       <r>   -1.3794    1.0000 </r>
       <r>   -1.3246    1.0000 </r>
       <r>   -1.2126    1.0000 </r>
       <r>   -1.1601    1.0000 </r>
       <r>   -1.0841    1.0000 </r>
       <r>   -1.0346    1.0000 </r>
       <r>   -0.9956    1.0000 </r>
       <r>   -0.8588    1.0000 </r>
       <r>   -0.8174    1.0000 </r>
       <r>   -0.8085    1.0000 </r>
       <r>   -0.7291    1.0000 </r>
       <r>   -0.7211    1.0000 </r>
       <r>   -0.6477    1.0000 </r>
       <r>   -0.6020    1.0000 </r>
       <r>   -0.4220    1.0000 </r>
       <r>   -0.3868    1.0000 </r>
       <r>   -0.3686    1.0000 </r>
       <r>   -0.3078    1.0000 </r>
       <r>    0.9256    0.0000 </r>
       <r>    1.0858    0.0000 </r>
       <r>    1.0859    0.0000 </r>
       <r>    1.1660    0.0000 </r>
       <r>    1.2046    0.0000 </r>
       <r>    1.2367    0.0000 </r>
       <r>    1.3367    0.0000 </r>
       <r>    1.3745    0.0000 </r>
       <r>    1.3973    0.0000 </r>
       <r>    1.5225    0.0000 </r>
       <r>    1.6313    0.0000 </r>
       <r>    1.6853    0.0000 </r>
       <r>    1.6881    0.0000 </r>
       <r>    1.7712    0.0000 </r>
       <r>    1.8353    0.0000 </r>
       <r>    1.9385    0.0000 </r>
       <r>    2.0266    0.0000 </r>
       <r>    2.1767    0.0000 </r>
       <r>    2.1787    0.0000 </r>
       <r>    2.2914    0.0000 </r>
       <r>    2.3225    0.0000 </r>
       <r>    2.3824    0.0000 </r>
       <r>    2.4055    0.0000 </r>
       <r>    2.5402    0.0000 </r>
       <r>    2.5639    0.0000 </r>
       <r>    2.6580    0.0000 </r>
       <r>    2.7049    0.0000 </r>
       <r>    2.8096    0.0000 </r>
      </set>
      <set comment="kpoint 7">
       <r>  -28.6278    1.0000 </r>
       <r>  -28.6278    1.0000 </r>
       <r>  -27.6483    1.0000 </r>
       <r>  -27.6482    1.0000 </r>
       <r>  -27.6320    1.0000 </r>
       <r>  -27.6314    1.0000 </r>
       <r>  -27.5807    1.0000 </r>
       <r>  -27.5807    1.0000 </r>
       <r>  -27.4907    1.0000 </r>
       <r>  -27.4906    1.0000 </r>
       <r>  -27.4559    1.0000 </r>
       <r>  -27.4554    1.0000 </r>
       <r>  -14.0006    1.0000 </r>
       <r>  -14.0005    1.0000 </r>
       <r>  -13.9384    1.0000 </r>
       <r>  -13.9384    1.0000 </r>
       <r>  -13.8695    1.0000 </r>
       <r>  -13.8695    1.0000 </r>
       <r>  -13.2650    1.0000 </r>
       <r>  -13.2318    1.0000 </r>
       <r>  -13.2056    1.0000 </r>
       <r>  -13.1905    1.0000 </r>
       <r>  -13.1529    1.0000 </r>
       <r>  -13.1168    1.0000 </r>
       <r>  -13.1015    1.0000 </r>
       <r>  -13.0961    1.0000 </r>
       <r>  -13.0647    1.0000 </r>
       <r>  -13.0490    1.0000 </r>
       <r>  -13.0280    1.0000 </r>
       <r>  -13.0173    1.0000 </r>
       <r>  -13.0117    1.0000 </r>
       <r>  -12.9984    1.0000 </r>
       <r>  -12.9603    1.0000 </r>
       <r>  -12.9434    1.0000 </r>
       <r>  -12.9303    1.0000 </r>
       <r>  -12.9255    1.0000 </r>
       <r>  -12.8406    1.0000 </r>
       <r>  -12.8299    1.0000 </r>
       <r>  -12.7721    1.0000 </r>
       <r>  -12.7656    1.0000 </r>
       <r>  -12.7606    1.0000 </r>
       <r>  -12.7600    1.0000 </r>
       <r>  -12.7435    1.0000 </r>
       <r>  -12.7393    1.0000 </r>
       <r>  -12.7284    1.0000 </r>
       <r>  -12.7279    1.0000 </r>
       <r>  -12.7166    1.0000 </r>
       <r>  -12.7132    1.0000 </r>
       <r>  -10.6804    1.0000 </r>
       <r>  -10.6252    1.0000 </r>
       <r>  -10.5611    1.0000 </r>
       <r>  -10.5579    1.0000 </r>
       <r>  -10.1643    1.0000 </r>
       <r>  -10.1631    1.0000 </r>
       <r>   -6.1438    1.0000 </r>
       <r>   -6.1202    1.0000 </r>
       <r>   -6.0266    1.0000 </r>
       <r>   -5.9567    1.0000 </r>
       <r>   -5.8898    1.0000 </r>
       <r>   -5.8606    1.0000 </r>
       <r>   -5.7961    1.0000 </r>
       <r>   -5.7637    1.0000 </r>
       <r>   -5.7133    1.0000 </r>
       <r>   -5.7007    1.0000 </r>
       <r>   -5.6652    1.0000 </r>
       <r>   -5.6648    1.0000 </r>
       <r>   -5.4312    1.0000 </r>
       <r>   -5.4172    1.0000 </r>
       <r>   -5.3722    1.0000 </r>
       <r>   -5.3718    1.0000 </r>
       <r>   -5.3300    1.0000 </r>
       <r>   -5.3073    1.0000 </r>
       <r>   -2.6740    1.0000 </r>
       <r>   -2.4164    1.0000 </r>
       <r>   -2.3237    1.0000 </r>
       <r>   -2.3168    1.0000 </r>
       <r>   -2.1928    1.0000 </r>
       <r>   -2.1602    1.0000 </r>
       <r>   -2.0138    1.0000 </r>
       <r>   -2.0059    1.0000 </r>
       <r>   -1.8910    1.0000 </r>
       <r>   -1.8641    1.0000 </r>
       <r>   -1.7688    1.0000 </r>
       <r>   -1.7321    1.0000 </r>
       <r>   -1.6329    1.0000 </r>
       <r>   -1.6200    1.0000 </r>
       <r>   -1.5409    1.0000 </r>
       <r>   -1.5061    1.0000 </r>
       <r>   -1.5020    1.0000 </r>
       <r>   -1.4700    1.0000 </r>
       <r>   -1.3807    1.0000 </r>
       <r>   -1.3571    1.0000 </r>
       <r>   -1.2167    1.0000 </r>
       <r>   -1.1927    1.0000 </r>
       <r>   -1.0780    1.0000 </r>
       <r>   -1.0627    1.0000 </r>
       <r>   -0.9869    1.0000 </r>
       <r>   -0.9311    1.0000 </r>
       <r>   -0.8870    1.0000 </r>
       <r>   -0.8706    1.0000 </r>
       <r>   -0.7633    1.0000 </r>
       <r>   -0.7429    1.0000 </r>
       <r>   -0.6225    1.0000 </r>
       <r>   -0.5639    1.0000 </r>
       <r>   -0.4669    1.0000 </r>
       <r>   -0.4337    1.0000 </r>
       <r>   -0.4018    1.0000 </r>
       <r>   -0.3811    1.0000 </r>
       <r>    0.7648    0.0000 </r>
       <r>    0.8630    0.0000 </r>
       <r>    0.8840    0.0000 </r>
       <r>    1.0492    0.0000 </r>
       <r>    1.0664    0.0000 </r>
       <r>    1.1499    0.0000 </r>
       <r>    1.2731    0.0000 </r>
       <r>    1.3340    0.0000 </r>
       <r>    1.4331    0.0000 </r>
       <r>    1.4654    0.0000 </r>
       <r>    1.5666    0.0000 </r>
       <r>    1.6492    0.0000 </r>
       <r>    1.6932    0.0000 </r>
       <r>    1.7732    0.0000 </r>
       <r>    1.8134    0.0000 </r>
       <r>    1.8863    0.0000 </r>
       <r>    1.9498    0.0000 </r>
       <r>    2.0530    0.0000 </r>
       <r>    2.0851    0.0000 </r>
       <r>    2.1312    0.0000 </r>
       <r>    2.2437    0.0000 </r>
       <r>    2.2734    0.0000 </r>
       <r>    2.3257    0.0000 </r>
       <r>    2.3332    0.0000 </r>
       <r>    2.4725    0.0000 </r>
       <r>    2.4888    0.0000 </r>
       <r>    2.6033    0.0000 </r>
       <r>    2.6851    0.0000 </r>
      </set>
      <set comment="kpoint 8">
       <r>  -28.6278    1.0000 </r>
       <r>  -28.6278    1.0000 </r>
       <r>  -27.6481    1.0000 </r>
       <r>  -27.6481    1.0000 </r>
       <r>  -27.6315    1.0000 </r>
       <r>  -27.6315    1.0000 </r>
       <r>  -27.5800    1.0000 </r>
       <r>  -27.5800    1.0000 </r>
       <r>  -27.4914    1.0000 </r>
       <r>  -27.4914    1.0000 </r>
       <r>  -27.4560    1.0000 </r>
       <r>  -27.4559    1.0000 </r>
       <r>  -13.9982    1.0000 </r>
       <r>  -13.9981    1.0000 </r>
       <r>  -13.9402    1.0000 </r>
       <r>  -13.9402    1.0000 </r>
       <r>  -13.8784    1.0000 </r>
       <r>  -13.8784    1.0000 </r>
       <r>  -13.2480    1.0000 </r>
       <r>  -13.2480    1.0000 </r>
       <r>  -13.2087    1.0000 </r>
       <r>  -13.2087    1.0000 </r>
       <r>  -13.1477    1.0000 </r>
       <r>  -13.1477    1.0000 </r>
       <r>  -13.1187    1.0000 </r>
       <r>  -13.1187    1.0000 </r>
       <r>  -13.0587    1.0000 </r>
       <r>  -13.0587    1.0000 </r>
       <r>  -13.0310    1.0000 </r>
       <r>  -13.0310    1.0000 </r>
       <r>  -13.0046    1.0000 </r>
       <r>  -13.0046    1.0000 </r>
       <r>  -12.9436    1.0000 </r>
       <r>  -12.9436    1.0000 </r>
       <r>  -12.9267    1.0000 </r>
       <r>  -12.9267    1.0000 </r>
       <r>  -12.8408    1.0000 </r>
       <r>  -12.8408    1.0000 </r>
       <r>  -12.7616    1.0000 </r>
       <r>  -12.7616    1.0000 </r>
       <r>  -12.7482    1.0000 </r>
       <r>  -12.7482    1.0000 </r>
       <r>  -12.7375    1.0000 </r>
       <r>  -12.7375    1.0000 </r>
       <r>  -12.7220    1.0000 </r>
[...]
       <r>   -1.5240    1.0000 </r>
       <r>   -1.4490    1.0000 </r>
       <r>   -1.4490    1.0000 </r>
       <r>   -1.3047    1.0000 </r>
       <r>   -1.3047    1.0000 </r>
       <r>   -1.1655    1.0000 </r>
       <r>   -1.1655    1.0000 </r>
       <r>   -0.9673    1.0000 </r>
       <r>   -0.9673    1.0000 </r>
       <r>   -0.9064    1.0000 </r>
       <r>   -0.9064    1.0000 </r>
       <r>   -0.8740    1.0000 </r>
       <r>   -0.8740    1.0000 </r>
       <r>   -0.8037    1.0000 </r>
       <r>   -0.8037    1.0000 </r>
       <r>   -0.5688    1.0000 </r>
       <r>   -0.5688    1.0000 </r>
       <r>   -0.5235    1.0000 </r>
       <r>   -0.5235    1.0000 </r>
       <r>   -0.4185    1.0000 </r>
       <r>   -0.4185    1.0000 </r>
       <r>    0.6530    0.0000 </r>
       <r>    0.6531    0.0000 </r>
       <r>    0.7918    0.0000 </r>
       <r>    0.7918    0.0000 </r>
       <r>    1.0113    0.0000 </r>
       <r>    1.0113    0.0000 </r>
       <r>    1.2987    0.0000 </r>
       <r>    1.2987    0.0000 </r>
       <r>    1.3534    0.0000 </r>
       <r>    1.3535    0.0000 </r>
       <r>    1.5327    0.0000 </r>
       <r>    1.5327    0.0000 </r>
       <r>    1.6109    0.0000 </r>
       <r>    1.6109    0.0000 </r>
       <r>    1.8973    0.0000 </r>
       <r>    1.8973    0.0000 </r>
       <r>    1.9575    0.0000 </r>
       <r>    1.9575    0.0000 </r>
       <r>    2.1501    0.0000 </r>
       <r>    2.1501    0.0000 </r>
       <r>    2.2435    0.0000 </r>
       <r>    2.2435    0.0000 </r>
       <r>    2.3265    0.0000 </r>
       <r>    2.3265    0.0000 </r>
       <r>    2.4949    0.0000 </r>
       <r>    2.4950    0.0000 </r>
       <r>    2.5463    0.0000 </r>
       <r>    2.5463    0.0000 </r>
      </set>
     </set>
    </set>
   </array>
  </eigenvalues>
  <separator name="orbital magnetization" >
   <v name="MAGDIPOLOUT">      0.00000000      0.00000000      0.00000000</v>
  </separator>
  <dos>
   <i name="efermi">     -0.26747982 </i>
   <total>
    <array>
     <dimension dim="1">gridpoints</dimension>
     <dimension dim="2">spin</dimension>
     <field>energy</field>
     <field>total</field>
     <field>integrated</field>
     <set>
      <set comment="spin 1">
       <r>   -30.2009     0.0000     0.0000 </r>
       <r>   -30.0856     0.0000     0.0000 </r>
       <r>   -29.9702     0.0000     0.0000 </r>
       <r>   -29.8549     0.0000     0.0000 </r>
       <r>   -29.7395     0.0000     0.0000 </r>
       <r>   -29.6242     0.0000     0.0000 </r>
       <r>   -29.5088     0.0000     0.0000 </r>
       <r>   -29.3935     0.0000     0.0000 </r>
       <r>   -29.2781     0.0000     0.0000 </r>
       <r>   -29.1628     0.0000     0.0000 </r>
       <r>   -29.0474     0.0000     0.0000 </r>
       <r>   -28.9321     0.0000     0.0000 </r>
       <r>   -28.8167     0.0000     0.0000 </r>
       <r>   -28.7014     0.0000     0.0000 </r>
       <r>   -28.5860     0.0000     4.0000 </r>
       <r>   -28.4707     0.0000     4.0000 </r>
       <r>   -28.3553     0.0000     4.0000 </r>
       <r>   -28.2400     0.0000     4.0000 </r>
       <r>   -28.1246     0.0000     4.0000 </r>
       <r>   -28.0093     0.0000     4.0000 </r>
       <r>   -27.8939     0.0000     4.0000 </r>
       <r>   -27.7786     0.0000     4.0000 </r>
       <r>   -27.6632     0.0000     4.0000 </r>
       <r>   -27.5479     0.0000    16.0000 </r>
       <r>   -27.4325     0.0000    24.0000 </r>
       <r>   -27.3172     0.0000    24.0000 </r>
       <r>   -27.2018     0.0000    24.0000 </r>
       <r>   -27.0865     0.0000    24.0000 </r>
       <r>   -26.9711     0.0000    24.0000 </r>
       <r>   -26.8558     0.0000    24.0000 </r>
       <r>   -26.7404     0.0000    24.0000 </r>
       <r>   -26.6251     0.0000    24.0000 </r>
       <r>   -26.5097     0.0000    24.0000 </r>
       <r>   -26.3944     0.0000    24.0000 </r>
       <r>   -26.2790     0.0000    24.0000 </r>
       <r>   -26.1636     0.0000    24.0000 </r>
       <r>   -26.0483     0.0000    24.0000 </r>
       <r>   -25.9329     0.0000    24.0000 </r>
       <r>   -25.8176     0.0000    24.0000 </r>
       <r>   -25.7022     0.0000    24.0000 </r>
       <r>   -25.5869     0.0000    24.0000 </r>
       <r>   -25.4715     0.0000    24.0000 </r>
       <r>   -25.3562     0.0000    24.0000 </r>
       <r>   -25.2408     0.0000    24.0000 </r>
       <r>   -25.1255     0.0000    24.0000 </r>
       <r>   -25.0101     0.0000    24.0000 </r>
       <r>   -24.8948     0.0000    24.0000 </r>
       <r>   -24.7794     0.0000    24.0000 </r>
       <r>   -24.6641     0.0000    24.0000 </r>
       <r>   -24.5487     0.0000    24.0000 </r>
       <r>   -24.4334     0.0000    24.0000 </r>
       <r>   -24.3180     0.0000    24.0000 </r>
       <r>   -24.2027     0.0000    24.0000 </r>
       <r>   -24.0873     0.0000    24.0000 </r>
       <r>   -23.9720     0.0000    24.0000 </r>
       <r>   -23.8566     0.0000    24.0000 </r>
       <r>   -23.7413     0.0000    24.0000 </r>
       <r>   -23.6259     0.0000    24.0000 </r>
       <r>   -23.5106     0.0000    24.0000 </r>
       <r>   -23.3952     0.0000    24.0000 </r>
       <r>   -23.2799     0.0000    24.0000 </r>
       <r>   -23.1645     0.0000    24.0000 </r>
       <r>   -23.0492     0.0000    24.0000 </r>
       <r>   -22.9338     0.0000    24.0000 </r>
       <r>   -22.8185     0.0000    24.0000 </r>
       <r>   -22.7031     0.0000    24.0000 </r>
       <r>   -22.5878     0.0000    24.0000 </r>
       <r>   -22.4724     0.0000    24.0000 </r>
       <r>   -22.3571     0.0000    24.0000 </r>
       <r>   -22.2417     0.0000    24.0000 </r>
       <r>   -22.1264     0.0000    24.0000 </r>
       <r>   -22.0110     0.0000    24.0000 </r>
       <r>   -21.8957     0.0000    24.0000 </r>
       <r>   -21.7803     0.0000    24.0000 </r>
       <r>   -21.6650     0.0000    24.0000 </r>
       <r>   -21.5496     0.0000    24.0000 </r>
       <r>   -21.4343     0.0000    24.0000 </r>
       <r>   -21.3189     0.0000    24.0000 </r>
       <r>   -21.2036     0.0000    24.0000 </r>
       <r>   -21.0882     0.0000    24.0000 </r>
       <r>   -20.9729     0.0000    24.0000 </r>
       <r>   -20.8575     0.0000    24.0000 </r>
       <r>   -20.7422     0.0000    24.0000 </r>
       <r>   -20.6268     0.0000    24.0000 </r>
       <r>   -20.5115     0.0000    24.0000 </r>
       <r>   -20.3961     0.0000    24.0000 </r>
       <r>   -20.2808     0.0000    24.0000 </r>
       <r>   -20.1654     0.0000    24.0000 </r>
       <r>   -20.0501     0.0000    24.0000 </r>
       <r>   -19.9347     0.0000    24.0000 </r>
       <r>   -19.8194     0.0000    24.0000 </r>
       <r>   -19.7040     0.0000    24.0000 </r>
       <r>   -19.5887     0.0000    24.0000 </r>
       <r>   -19.4733     0.0000    24.0000 </r>
       <r>   -19.3580     0.0000    24.0000 </r>
       <r>   -19.2426     0.0000    24.0000 </r>
       <r>   -19.1273     0.0000    24.0000 </r>
       <r>   -19.0119     0.0000    24.0000 </r>
       <r>   -18.8966     0.0000    24.0000 </r>
       <r>   -18.7812     0.0000    24.0000 </r>
       <r>   -18.6659     0.0000    24.0000 </r>
       <r>   -18.5505     0.0000    24.0000 </r>
       <r>   -18.4352     0.0000    24.0000 </r>
       <r>   -18.3198     0.0000    24.0000 </r>
       <r>   -18.2045     0.0000    24.0000 </r>
       <r>   -18.0891     0.0000    24.0000 </r>
       <r>   -17.9738     0.0000    24.0000 </r>
       <r>   -17.8584     0.0000    24.0000 </r>
       <r>   -17.7431     0.0000    24.0000 </r>
       <r>   -17.6277     0.0000    24.0000 </r>
       <r>   -17.5124     0.0000    24.0000 </r>
       <r>   -17.3970     0.0000    24.0000 </r>
       <r>   -17.2817     0.0000    24.0000 </r>
       <r>   -17.1663     0.0000    24.0000 </r>
       <r>   -17.0510     0.0000    24.0000 </r>
       <r>   -16.9356     0.0000    24.0000 </r>
       <r>   -16.8203     0.0000    24.0000 </r>
       <r>   -16.7049     0.0000    24.0000 </r>
       <r>   -16.5896     0.0000    24.0000 </r>
       <r>   -16.4742     0.0000    24.0000 </r>
       <r>   -16.3589     0.0000    24.0000 </r>
       <r>   -16.2435     0.0000    24.0000 </r>
       <r>   -16.1282     0.0000    24.0000 </r>
       <r>   -16.0128     0.0000    24.0000 </r>
       <r>   -15.8975     0.0000    24.0000 </r>
       <r>   -15.7821     0.0000    24.0000 </r>
       <r>   -15.6668     0.0000    24.0000 </r>
       <r>   -15.5514     0.0000    24.0000 </r>
       <r>   -15.4361     0.0000    24.0000 </r>
       <r>   -15.3207     0.0000    24.0000 </r>
       <r>   -15.2054     0.0000    24.0000 </r>
       <r>   -15.0900     0.0000    24.0000 </r>
       <r>   -14.9747     0.0000    24.0000 </r>
       <r>   -14.8593     0.0000    24.0000 </r>
       <r>   -14.7440     0.0000    24.0000 </r>
       <r>   -14.6286     0.0000    24.0000 </r>
       <r>   -14.5133     0.0000    24.0000 </r>
       <r>   -14.3979     0.0000    24.0000 </r>
       <r>   -14.2826     0.0000    24.0000 </r>
       <r>   -14.1672     0.0000    24.0000 </r>
       <r>   -14.0519     0.0000    24.0000 </r>
       <r>   -13.9365   380.3716    30.0530 </r>
       <r>   -13.8212     0.0000    36.0000 </r>
       <r>   -13.7058     0.0000    36.0000 </r>
       <r>   -13.5905     0.0000    36.0000 </r>
       <r>   -13.4751     0.0000    36.0000 </r>
       <r>   -13.3598     0.0000    36.0000 </r>
       <r>   -13.2444   139.4257    38.2563 </r>
       <r>   -13.1291    43.1109    45.4027 </r>
       <r>   -13.0137   101.3241    59.3645 </r>
       <r>   -12.8984     0.0000    72.0000 </r>
       <r>   -12.7830    66.4621    77.7798 </r>
       <r>   -12.6677     0.0000    96.0000 </r>
       <r>   -12.5523     0.0000    96.0000 </r>
       <r>   -12.4369     0.0000    96.0000 </r>
       <r>   -12.3216     0.0000    96.0000 </r>
       <r>   -12.2062     0.0000    96.0000 </r>
       <r>   -12.0909     0.0000    96.0000 </r>
       <r>   -11.9755     0.0000    96.0000 </r>
       <r>   -11.8602     0.0000    96.0000 </r>
       <r>   -11.7448     0.0000    96.0000 </r>
       <r>   -11.6295     0.0000    96.0000 </r>
       <r>   -11.5141     0.0000    96.0000 </r>
       <r>   -11.3988     0.0000    96.0000 </r>
       <r>   -11.2834     0.0000    96.0000 </r>
       <r>   -11.1681     0.0000    96.0000 </r>
       <r>   -11.0527     0.0000    96.0000 </r>
       <r>   -10.9374     0.0000    96.0000 </r>
       <r>   -10.8220     1.8044    96.0075 </r>
       <r>   -10.7067    13.3614    97.0235 </r>
       <r>   -10.5913    56.7606   100.7625 </r>
       <r>   -10.4760     0.0000   104.0000 </r>
       <r>   -10.3606     0.0000   104.0000 </r>
       <r>   -10.2453     0.0000   104.0000 </r>
       <r>   -10.1299     0.0000   108.0000 </r>
       <r>   -10.0146     0.0000   108.0000 </r>
       <r>    -9.8992     0.0000   108.0000 </r>
       <r>    -9.7839     0.0000   108.0000 </r>
       <r>    -9.6685     0.0000   108.0000 </r>
       <r>    -9.5532     0.0000   108.0000 </r>
       <r>    -9.4378     0.0000   108.0000 </r>
       <r>    -9.3225     0.0000   108.0000 </r>
       <r>    -9.2071     0.0000   108.0000 </r>
       <r>    -9.0918     0.0000   108.0000 </r>
       <r>    -8.9764     0.0000   108.0000 </r>
       <r>    -8.8611     0.0000   108.0000 </r>
       <r>    -8.7457     0.0000   108.0000 </r>
       <r>    -8.6304     0.0000   108.0000 </r>
       <r>    -8.5150     0.0000   108.0000 </r>
       <r>    -8.3997     0.0000   108.0000 </r>
       <r>    -8.2843     0.0000   108.0000 </r>
       <r>    -8.1690     0.0000   108.0000 </r>
       <r>    -8.0536     0.0000   108.0000 </r>
       <r>    -7.9383     0.0000   108.0000 </r>
       <r>    -7.8229     0.0000   108.0000 </r>
       <r>    -7.7076     0.0000   108.0000 </r>
       <r>    -7.5922     0.0000   108.0000 </r>
       <r>    -7.4769     0.0000   108.0000 </r>
       <r>    -7.3615     0.0000   108.0000 </r>
       <r>    -7.2462     0.0000   108.0000 </r>
       <r>    -7.1308     0.0000   108.0000 </r>
       <r>    -7.0155     0.0000   108.0000 </r>
       <r>    -6.9001     0.0000   108.0000 </r>
       <r>    -6.7848     0.0000   108.0000 </r>
       <r>    -6.6694     0.0000   108.0000 </r>
       <r>    -6.5541     0.0000   108.0000 </r>
       <r>    -6.4387     0.0000   108.0000 </r>
       <r>    -6.3234     0.0000   108.0000 </r>
       <r>    -6.2080     6.1865   108.0516 </r>
       <r>    -6.0927    13.3766   111.0534 </r>
       <r>    -5.9773    26.3532   115.1044 </r>
       <r>    -5.8620   107.1911   117.1806 </r>
       <r>    -5.7466    65.1083   124.5726 </r>
       <r>    -5.6313    12.3973   131.9672 </r>
       <r>    -5.5159    23.9384   132.6807 </r>
       <r>    -5.4006    63.6534   136.4580 </r>
       <r>    -5.2852    15.1881   141.8056 </r>
       <r>    -5.1699     2.9396   143.9980 </r>
       <r>    -5.0545     0.0000   144.0000 </r>
       <r>    -4.9392     0.0000   144.0000 </r>
       <r>    -4.8238     0.0000   144.0000 </r>
       <r>    -4.7085     0.0000   144.0000 </r>
       <r>    -4.5931     0.0000   144.0000 </r>
       <r>    -4.4778     0.0000   144.0000 </r>
       <r>    -4.3624     0.0000   144.0000 </r>
       <r>    -4.2471     0.0000   144.0000 </r>
       <r>    -4.1317     0.0000   144.0000 </r>
       <r>    -4.0164     0.0000   144.0000 </r>
       <r>    -3.9010     0.0000   144.0000 </r>
       <r>    -3.7857     0.0000   144.0000 </r>
       <r>    -3.6703     0.0000   144.0000 </r>
       <r>    -3.5550     0.0000   144.0000 </r>
       <r>    -3.4396     0.0000   144.0000 </r>
       <r>    -3.3243     0.6082   144.0175 </r>
       <r>    -3.2089     1.7098   144.1563 </r>
       <r>    -3.0936     2.0231   144.3843 </r>
       <r>    -2.9782     2.2544   144.6212 </r>
       <r>    -2.8629     3.8987   144.9387 </r>
       <r>    -2.7475     5.9316   145.5783 </r>
       <r>    -2.6322     5.5726   146.2401 </r>
       <r>    -2.5168    21.6141   147.7459 </r>
       <r>    -2.4015    14.0564   149.8129 </r>
       <r>    -2.2861    20.1501   151.7690 </r>
       <r>    -2.1708    45.7201   155.1532 </r>
       <r>    -2.0554    32.2041   157.2964 </r>
       <r>    -1.9401     5.4762   159.9771 </r>
       <r>    -1.8247    13.9168   163.0500 </r>
       <r>    -1.7094    36.2588   166.7589 </r>
       <r>    -1.5940    42.7337   171.3380 </r>
       <r>    -1.4787    40.9945   176.2680 </r>
       <r>    -1.3633    52.9633   181.3276 </r>
       <r>    -1.2480    18.1907   184.2223 </r>
       <r>    -1.1326    12.3461   187.8809 </r>
       <r>    -1.0173    41.5139   192.2861 </r>
       <r>    -0.9019    36.7552   195.5069 </r>
       <r>    -0.7866    26.4370   199.0837 </r>
       <r>    -0.6712     0.0000   204.0000 </r>
       <r>    -0.5559    17.6781   207.8273 </r>
       <r>    -0.4405    38.6075   210.0203 </r>
       <r>    -0.3252    17.5130   215.4395 </r>
       <r>    -0.2098     0.0000   216.0000 </r>
       <r>    -0.0945     0.0000   216.0000 </r>
       <r>     0.0209     0.0000   216.0000 </r>
       <r>     0.1362     0.0000   216.0000 </r>
       <r>     0.2516     0.0000   216.0000 </r>
       <r>     0.3669     0.0000   216.0000 </r>
       <r>     0.4823     0.0000   216.0000 </r>
       <r>     0.5976     0.0000   216.0000 </r>
       <r>     0.7130     8.6915   216.5025 </r>
       <r>     0.8283    10.0159   217.4893 </r>
       <r>     0.9437    17.9793   219.4230 </r>
       <r>     1.0591    28.6552   221.7737 </r>
       <r>     1.1744    40.1457   225.5761 </r>
       <r>     1.2898    44.0923   228.3314 </r>
       <r>     1.4051    33.0525   232.3446 </r>
       <r>     1.5205    12.0386   235.5193 </r>
       <r>     1.6358    27.0144   238.5528 </r>
       <r>     1.7512    28.7470   242.6119 </r>
       <r>     1.8665    28.4210   245.2597 </r>
       <r>     1.9819    15.9842   249.2087 </r>
       <r>     2.0972    25.4337   251.8810 </r>
       <r>     2.2126    28.9620   255.2721 </r>
       <r>     2.3279    64.5567   259.5955 </r>
       <r>     2.4433    27.8327   262.8158 </r>
       <r>     2.5586    27.9646   265.9185 </r>
       <r>     2.6740    25.0261   269.1786 </r>
       <r>     2.7893    17.7868   271.0566 </r>
       <r>     2.9047     0.0000   272.0000 </r>
       <r>     3.0200     0.0000   272.0000 </r>
       <r>     3.1354     0.0000   272.0000 </r>
       <r>     3.2507     0.0000   272.0000 </r>
       <r>     3.3661     0.0000   272.0000 </r>
       <r>     3.4814     0.0000   272.0000 </r>
       <r>     3.5968     0.0000   272.0000 </r>
       <r>     3.7121     0.0000   272.0000 </r>
       <r>     3.8275     0.0000   272.0000 </r>
       <r>     3.9428     0.0000   272.0000 </r>
       <r>     4.0582     0.0000   272.0000 </r>
       <r>     4.1735     0.0000   272.0000 </r>
       <r>     4.2889     0.0000   272.0000 </r>
       <r>     4.4042     0.0000   272.0000 </r>
      </set>
     </set>
    </array>
   </total>
  </dos>
 </calculation>
 <structure name="finalpos" >
  <crystal>
   <varray name="basis" >
    <v>      28.44138915       0.00000000       0.00000000 </v>
    <v>       0.00000000       6.61705665       0.00000000 </v>
    <v>       0.00000000       0.00000000      11.34438396 </v>
   </varray>
   <i name="volume">   2134.99358715 </i>
   <varray name="rec_basis" >
    <v>       0.03516003       0.00000000       0.00000000 </v>
    <v>       0.00000000       0.15112459       0.00000000 </v>
    <v>       0.00000000       0.00000000       0.08814934 </v>
   </varray>
  </crystal>
  <varray name="positions" >
   <v>       0.01060286       0.25000000       0.69827137 </v>
   <v>       0.14850228       0.75000002       0.19183199 </v>
   <v>       0.16304924       0.25000000       0.80896652 </v>
   <v>       0.32544407       0.25000000       0.69183206 </v>
   <v>       0.31089711       0.75000002       0.30896648 </v>
   <v>       0.46334350       0.75000002       0.19827131 </v>
   <v>       0.06793721       0.75000002       0.91146178 </v>
   <v>       0.10913646       0.25000000       0.39543199 </v>
   <v>       0.21039420       0.75000002       0.59496628 </v>
   <v>       0.36480990       0.75000002       0.89543191 </v>
   <v>       0.26355215       0.25000000       0.09496630 </v>
   <v>       0.40600914       0.25000000       0.41146186 </v>
   <v>       0.05559849       0.06930292       0.14722281 </v>
   <v>       0.09829373       0.93042433       0.64048621 </v>
   <v>       0.21716475       0.06708865       0.35291513 </v>
   <v>       0.05559849       0.43069707       0.14722281 </v>
   <v>       0.21716475       0.43291134       0.35291513 </v>
   <v>       0.09829373       0.56957567       0.64048621 </v>
   <v>       0.37565264       0.06957566       0.14048619 </v>
   <v>       0.25678160       0.93291134       0.85291513 </v>
   <v>       0.41834785       0.93069707       0.64722283 </v>
   <v>       0.25678160       0.56708866       0.85291513 </v>
   <v>       0.37565264       0.43042433       0.14048619 </v>
   <v>       0.41834785       0.56930293       0.64722283 </v>
   <v>       0.02395209       0.75000002       0.61731658 </v>
   <v>       0.12737317       0.25000000       0.08260823 </v>
   <v>       0.18705445       0.75000002       0.90927344 </v>
   <v>       0.34657319       0.75000002       0.58260829 </v>
   <v>       0.28689191       0.25000000       0.40927340 </v>
   <v>       0.44999425       0.25000000       0.11731652 </v>
   <v>       0.05573958       0.25000000       0.96274397 </v>
   <v>       0.08158949       0.75000002       0.45887610 </v>
   <v>       0.21911849       0.25000000       0.53739235 </v>
   <v>       0.39235688       0.25000000       0.95887618 </v>
   <v>       0.25482786       0.75000002       0.03739236 </v>
   <v>       0.41820675       0.75000002       0.46274389 </v>
  </varray>
 </structure>
</modeling>
