 vasp.5.4.4.18Apr17-6-g9f103f2a35 (build Nov 21 2017 15:30:27) complex          
  
 executed on             LinuxIFC date 2020.12.16  19:52:49
 running on   64 total cores
 distrk:  each k-point on   32 cores,    2 groups
 distr:  one band on NCORES_PER_BAND=   4 cores,    8 groups


--------------------------------------------------------------------------------------------------------


 INCAR:
 POTCAR:   PAW_PBE Sr_sv 07Sep2000                
 POTCAR:   PAW_PBE Si 05Jan2001                   

 ----------------------------------------------------------------------------- 
|                                                                             |
|           W    W    AA    RRRRR   N    N  II  N    N   GGGG   !!!           |
|           W    W   A  A   R    R  NN   N  II  NN   N  G    G  !!!           |
|           W    W  A    A  R    R  N N  N  II  N N  N  G       !!!           |
|           W WW W  AAAAAA  RRRRR   N  N N  II  N  N N  G  GGG   !            |
|           WW  WW  A    A  R   R   N   NN  II  N   NN  G    G                |
|           W    W  A    A  R    R  N    N  II  N    N   GGGG   !!!           |
|                                                                             |
|      You have enabled k-point parallelism (KPAR>1).                         |
|      This developmental code was originally  written by Paul Kent at ORNL,  |
|      and carefully double checked in Vienna.                                |
|      GW as well as linear response parallelism added by Martijn Marsman     |
|      and Georg Kresse.                                                      |
|      Carefully verify results versus KPAR=1.                                |
|      Report problems to Paul Kent and Vienna.                               |
|                                                                             |
 ----------------------------------------------------------------------------- 

 POTCAR:   PAW_PBE Sr_sv 07Sep2000                
   VRHFIN =Sr: 4s4p5s                                                           
   LEXCH  = PE                                                                  
   EATOM  =   842.4562 eV,   61.9188 Ry                                         
                                                                                
   TITEL  = PAW_PBE Sr_sv 07Sep2000                                             
   LULTRA =        F    use ultrasoft PP ?                                      
   IUNSCR =        1    unscreen: 0-lin 1-nonlin 2-no                           
   RPACOR =    2.200    partial core radius                                     
   POMASS =   87.620; ZVAL   =   10.000    mass and valenz                      
   RCORE  =    2.500    outmost cutoff radius                                   
   RWIGS  =    4.040; RWIGS  =    2.138    wigner-seitz radius (au A)           
   ENMAX  =  229.282; ENMIN  =  171.961 eV                                      
   RCLOC  =    2.201    cutoff for local pot                                    
   LCOR   =        T    correct aug charges                                     
   LPAW   =        T    paw PP                                                  
   EAUG   =  366.804                                                            
   DEXC   =     .000                                                            
   RMAX   =    3.045    core radius for proj-oper                               
   RAUG   =    1.300    factor for augmentation sphere                          
   RDEP   =    2.562    radius for radial grids                                 
   QCUT   =   -4.105; QGAM   =    8.210    optimization parameters              
                                                                                
   Description                                                                  
     l     E      TYP  RCUT    TYP  RCUT                                        
     0   .000     23  2.480                                                     
     0   .000     23  2.480                                                     
     1   .000     23  2.500                                                     
     1   .000     23  2.500                                                     
     2   .000     23  2.500                                                     
     2   .000     23  2.500                                                     
  local pseudopotential read in
  partial core-charges read in
  atomic valenz-charges read in
  non local Contribution for L=           0  read in
    real space projection operators read in
  non local Contribution for L=           0  read in
    real space projection operators read in
  non local Contribution for L=           1  read in
    real space projection operators read in
  non local Contribution for L=           1  read in
    real space projection operators read in
  non local Contribution for L=           2  read in
    real space projection operators read in
  non local Contribution for L=           2  read in
    real space projection operators read in
    PAW grid and wavefunctions read in
 
   number of l-projection  operators is LMAX  =           6
   number of lm-projection operators is LMMAX =          18
 
 POTCAR:   PAW_PBE Si 05Jan2001                   
   VRHFIN =Si: s2p2                                                             
   LEXCH  = PE                                                                  
   EATOM  =   103.0669 eV,    7.5752 Ry                                         
                                                                                
   TITEL  = PAW_PBE Si 05Jan2001                                                
   LULTRA =        F    use ultrasoft PP ?                                      
   IUNSCR =        1    unscreen: 0-lin 1-nonlin 2-no                           
   RPACOR =    1.500    partial core radius                                     
   POMASS =   28.085; ZVAL   =    4.000    mass and valenz                      
   RCORE  =    1.900    outmost cutoff radius                                   
   RWIGS  =    2.480; RWIGS  =    1.312    wigner-seitz radius (au A)           
   ENMAX  =  245.345; ENMIN  =  184.009 eV                                      
   ICORE  =        2    local potential                                         
   LCOR   =        T    correct aug charges                                     
   LPAW   =        T    paw PP                                                  
   EAUG   =  322.069                                                            
   DEXC   =    -.007                                                            
   RMAX   =    2.944    core radius for proj-oper                               
   RAUG   =    1.300    factor for augmentation sphere                          
   RDEP   =    1.993    radius for radial grids                                 
   QCUT   =   -4.246; QGAM   =    8.493    optimization parameters              
                                                                                
   Description                                                                  
     l     E      TYP  RCUT    TYP  RCUT                                        
     0   .000     23  1.900                                                     
     0   .000     23  1.900                                                     
     1   .000     23  1.900                                                     
     1   .000     23  1.900                                                     
     2   .000      7  1.900                                                     
  local pseudopotential read in
  partial core-charges read in
  atomic valenz-charges read in
  non local Contribution for L=           0  read in
    real space projection operators read in
  non local Contribution for L=           0  read in
    real space projection operators read in
  non local Contribution for L=           1  read in
    real space projection operators read in
  non local Contribution for L=           1  read in
    real space projection operators read in
    PAW grid and wavefunctions read in
 
   number of l-projection  operators is LMAX  =           4
   number of lm-projection operators is LMMAX =           8
 
 Optimization of the real space projectors (new method)

 maximal supplied QI-value         = 15.12
 optimisation between [QCUT,QGAM] = [ 11.34, 22.83] = [ 36.00,145.93] Ry 
 Optimized for a Real-space Cutoff    1.56 Angstroem

   l    n(q)    QCUT    max X(q) W(low)/X(q) W(high)/X(q)  e(spline) 
   0     11    11.338     6.584    0.15E-04    0.24E-05    0.13E-07
   0     11    11.338    11.383    0.41E-04    0.15E-04    0.15E-06
   1     10    11.338     3.802    0.90E-05    0.33E-06    0.26E-07
   1     10    11.338    39.081    0.19E-03    0.53E-04    0.42E-06
   2     10    11.338     4.950    0.16E-04    0.40E-04    0.77E-07
   2     10    11.338    88.754    0.21E-03    0.41E-03    0.42E-06
 Optimization of the real space projectors (new method)

 maximal supplied QI-value         = 19.84
 optimisation between [QCUT,QGAM] = [ 11.31, 22.82] = [ 35.82,145.81] Ry 
 Optimized for a Real-space Cutoff    1.16 Angstroem

   l    n(q)    QCUT    max X(q) W(low)/X(q) W(high)/X(q)  e(spline) 
   0      8    11.310     8.708    0.14E-04    0.11E-04    0.43E-08
   0      8    11.310   106.241    0.27E-03    0.30E-03    0.38E-07
   1      7    11.310     5.901    0.82E-05    0.48E-04    0.19E-07
   1      7    11.310    73.241    0.27E-03    0.27E-03    0.74E-07
 PAW_PBE Sr_sv 07Sep2000                :
 energy of atom  1       EATOM= -842.4562
 kinetic energy error for atom=    0.0012 (will be added to EATOM!!)
 PAW_PBE Si 05Jan2001                   :
 energy of atom  2       EATOM= -103.0669
 kinetic energy error for atom=    0.0006 (will be added to EATOM!!)
 
 
 POSCAR: sr8 si16                                
  positions in cartesian coordinates
  No initial velocities read in
 exchange correlation table for  LEXCH =        8
   RHO(1)=    0.500       N(1)  =     2000
   RHO(2)=  100.500       N(2)  =     4000
 


--------------------------------------------------------------------------------------------------------


 ion  position               nearest neighbor table
   1  0.015  0.250  0.691-  24 3.40  18 3.40  13 3.45  10 3.45  16 3.45  11 3.45  21 3.60  17 3.63
                            17 3.63   5 4.41   5 4.41   7 4.42   4 4.71   4 4.71   8 4.80   8 4.80
   2  0.985  0.750  0.309-  23 3.40  17 3.40   9 3.45  14 3.45  12 3.45  15 3.45  22 3.60  18 3.63
                            18 3.63   6 4.41   6 4.41   8 4.42   3 4.71   3 4.71   7 4.80   7 4.80
   3  0.485  0.750  0.191-  22 3.40  20 3.40  12 3.45  15 3.45   9 3.45  14 3.45  23 3.60  19 3.63
                            19 3.63   7 4.41   7 4.41   5 4.42   2 4.71   2 4.71   6 4.80   6 4.80
   4  0.515  0.250  0.809-  21 3.40  19 3.40  16 3.45  11 3.45  13 3.45  10 3.45  24 3.60  20 3.63
                            20 3.63   8 4.41   8 4.41   6 4.42   1 4.71   1 4.71   5 4.80   5 4.80
   5  0.159  0.750  0.907-  10 3.46  13 3.46  21 3.48  21 3.48  11 3.50  16 3.50  22 3.54   9 3.55
                            14 3.55  17 3.71  20 3.82   1 4.41   1 4.41   3 4.42   4 4.80   4 4.80
   6  0.841  0.250  0.093-  14 3.46   9 3.46  22 3.48  22 3.48  15 3.50  12 3.50  21 3.54  13 3.55
                            10 3.55  18 3.71  19 3.82   2 4.41   2 4.41   4 4.42   3 4.80   3 4.80
   7  0.341  0.250  0.407-  15 3.46  12 3.46  23 3.48  23 3.48  14 3.50   9 3.50  24 3.54  16 3.55
                            11 3.55  19 3.71  18 3.82   3 4.41   3 4.41   1 4.42   2 4.80   2 4.80
   8  0.659  0.750  0.593-  11 3.46  16 3.46  24 3.48  24 3.48  10 3.50  13 3.50  23 3.54  12 3.55
                            15 3.55  20 3.71  17 3.82   4 4.41   4 4.41   2 4.42   1 4.80   1 4.80
   9  0.194  0.073  0.147-  14 2.41  21 2.41  19 2.42   2 3.45   3 3.45   6 3.46   7 3.50   5 3.55

  10  0.806  0.927  0.853-  13 2.41  22 2.41  20 2.42   1 3.45   4 3.45   5 3.46   8 3.50   6 3.55

  11  0.306  0.927  0.647-  16 2.41  23 2.41  17 2.42   4 3.45   1 3.45   8 3.46   5 3.50   7 3.55

  12  0.694  0.073  0.353-  15 2.41  24 2.41  18 2.42   3 3.45   2 3.45   7 3.46   6 3.50   8 3.55

  13  0.806  0.573  0.853-  10 2.41  22 2.41  20 2.42   1 3.45   4 3.45   5 3.46   8 3.50   6 3.55

  14  0.194  0.427  0.147-   9 2.41  21 2.41  19 2.42   2 3.45   3 3.45   6 3.46   7 3.50   5 3.55

  15  0.694  0.427  0.353-  12 2.41  24 2.41  18 2.42   3 3.45   2 3.45   7 3.46   6 3.50   8 3.55

  16  0.306  0.573  0.647-  11 2.41  23 2.41  17 2.42   4 3.45   1 3.45   8 3.46   5 3.50   7 3.55

  17  0.083  0.750  0.592-  11 2.42  16 2.42  23 2.45   2 3.40   1 3.63   1 3.63   5 3.71   8 3.82

  18  0.917  0.250  0.408-  15 2.42  12 2.42  24 2.45   1 3.40   2 3.63   2 3.63   6 3.71   7 3.82

  19  0.417  0.250  0.092-  14 2.42   9 2.42  21 2.45   4 3.40   3 3.63   3 3.63   7 3.71   6 3.82

  20  0.583  0.750  0.908-  10 2.42  13 2.42  22 2.45   3 3.40   4 3.63   4 3.63   8 3.71   5 3.82

  21  0.198  0.250  0.967-  14 2.41   9 2.41  19 2.45   4 3.40   5 3.48   5 3.48   6 3.54   1 3.60

  22  0.802  0.750  0.033-  10 2.41  13 2.41  20 2.45   3 3.40   6 3.48   6 3.48   5 3.54   2 3.60

  23  0.302  0.750  0.467-  11 2.41  16 2.41  17 2.45   2 3.40   7 3.48   7 3.48   8 3.54   3 3.60

  24  0.698  0.250  0.533-  15 2.41  12 2.41  18 2.45   1 3.40   8 3.48   8 3.48   7 3.54   4 3.60

 
  LATTYP: Found a simple orthorhombic cell.
 ALAT       =     6.7778496742
 B/A-ratio  =     1.3292516818
 C/A-ratio  =     1.7117734747
  
  Lattice vectors:
  
 A1 = (   0.0000000000,  -6.7778496742,   0.0000000000)
 A2 = (  -9.0094680786,   0.0000000000,   0.0000000000)
 A3 = (   0.0000000000,   0.0000000000, -11.6021432877)


Analysis of symmetry for initial positions (statically):
=====================================================================
 Subroutine PRICEL returns:
 Original cell was already a primitive cell.
 

 Routine SETGRP: Setting up the symmetry group for a 
 simple orthorhombic supercell.


 Subroutine GETGRP returns: Found  8 space group operations
 (whereof  2 operations were pure point group operations)
 out of a pool of  8 trial point group operations.


The static configuration has the point symmetry S_2 .
 The point group associated with its full space group is D_2h.


Analysis of symmetry for dynamics (positions and initial velocities):
=====================================================================
 Subroutine PRICEL returns:
 Original cell was already a primitive cell.
 

 Routine SETGRP: Setting up the symmetry group for a 
 simple orthorhombic supercell.


 Subroutine GETGRP returns: Found  8 space group operations
 (whereof  2 operations were pure point group operations)
 out of a pool of  8 trial point group operations.


The dynamic configuration has the point symmetry S_2 .
 The point group associated with its full space group is D_2h.


 Subroutine INISYM returns: Found  8 space group operations
 (whereof  2 operations are pure point group operations),
 and found     1 'primitive' translations

 
 
 KPOINTS: k-density: 6.0                          

Automatic generation of k-mesh.
Space group operators:
 irot       det(A)        alpha          n_x          n_y          n_z        tau_x        tau_y        tau_z
    1     1.000000     0.000000     1.000000     0.000000     0.000000     0.000000     0.000000     0.000000
    2    -1.000000     0.000000     1.000000     0.000000     0.000000     0.000000     0.000000     0.000000
    3     1.000000   180.000000     0.000000     0.000000     1.000000    -0.500000     0.000000    -0.500000
    4    -1.000000   180.000000     0.000000     0.000000     1.000000    -0.500000     0.000000    -0.500000
    5     1.000000   180.000000     1.000000     0.000000     0.000000    -0.500000    -0.500000    -0.500000
    6    -1.000000   180.000000     1.000000     0.000000     0.000000    -0.500000    -0.500000    -0.500000
    7     1.000000   180.000000     0.000000     1.000000     0.000000    -0.000000    -0.500000    -0.000000
    8    -1.000000   180.000000     0.000000     1.000000     0.000000     0.000000    -0.500000     0.000000
 
 Subroutine IBZKPT returns following result:
 ===========================================
 
 Found     36 irreducible k-points:
 
 Following reciprocal coordinates:
            Coordinates               Weight
  0.000000  0.000000  0.000000      1.000000
  0.200000  0.000000  0.000000      2.000000
  0.400000  0.000000  0.000000      2.000000
  0.000000  0.166667  0.000000      2.000000
  0.200000  0.166667  0.000000      4.000000
  0.400000  0.166667  0.000000      4.000000
  0.000000  0.333333  0.000000      2.000000
  0.200000  0.333333  0.000000      4.000000
  0.400000  0.333333  0.000000      4.000000
  0.000000  0.500000  0.000000      1.000000
  0.200000  0.500000  0.000000      2.000000
  0.400000  0.500000  0.000000      2.000000
  0.000000  0.000000  0.250000      2.000000
  0.200000  0.000000  0.250000      4.000000
  0.400000  0.000000  0.250000      4.000000
  0.000000  0.166667  0.250000      4.000000
  0.200000  0.166667  0.250000      8.000000
  0.400000  0.166667  0.250000      8.000000
  0.000000  0.333333  0.250000      4.000000
  0.200000  0.333333  0.250000      8.000000
  0.400000  0.333333  0.250000      8.000000
  0.000000  0.500000  0.250000      2.000000
  0.200000  0.500000  0.250000      4.000000
  0.400000  0.500000  0.250000      4.000000
  0.000000  0.000000  0.500000      1.000000
  0.200000  0.000000  0.500000      2.000000
  0.400000  0.000000  0.500000      2.000000
  0.000000  0.166667  0.500000      2.000000
  0.200000  0.166667  0.500000      4.000000
  0.400000  0.166667  0.500000      4.000000
  0.000000  0.333333  0.500000      2.000000
  0.200000  0.333333  0.500000      4.000000
  0.400000  0.333333  0.500000      4.000000
  0.000000  0.500000  0.500000      1.000000
  0.200000  0.500000  0.500000      2.000000
  0.400000  0.500000  0.500000      2.000000
 
 Following cartesian coordinates:
            Coordinates               Weight
  0.000000  0.000000  0.000000      1.000000
  0.022199  0.000000  0.000000      2.000000
  0.044398  0.000000  0.000000      2.000000
  0.000000  0.024590  0.000000      2.000000
  0.022199  0.024590  0.000000      4.000000
  0.044398  0.024590  0.000000      4.000000
  0.000000  0.049180  0.000000      2.000000
  0.022199  0.049180  0.000000      4.000000
  0.044398  0.049180  0.000000      4.000000
  0.000000  0.073770  0.000000      1.000000
  0.022199  0.073770  0.000000      2.000000
  0.044398  0.073770  0.000000      2.000000
  0.000000  0.000000  0.021548      2.000000
  0.022199  0.000000  0.021548      4.000000
  0.044398  0.000000  0.021548      4.000000
  0.000000  0.024590  0.021548      4.000000
  0.022199  0.024590  0.021548      8.000000
  0.044398  0.024590  0.021548      8.000000
  0.000000  0.049180  0.021548      4.000000
  0.022199  0.049180  0.021548      8.000000
  0.044398  0.049180  0.021548      8.000000
  0.000000  0.073770  0.021548      2.000000
  0.022199  0.073770  0.021548      4.000000
  0.044398  0.073770  0.021548      4.000000
  0.000000  0.000000  0.043095      1.000000
  0.022199  0.000000  0.043095      2.000000
  0.044398  0.000000  0.043095      2.000000
  0.000000  0.024590  0.043095      2.000000
  0.022199  0.024590  0.043095      4.000000
  0.044398  0.024590  0.043095      4.000000
  0.000000  0.049180  0.043095      2.000000
  0.022199  0.049180  0.043095      4.000000
  0.044398  0.049180  0.043095      4.000000
  0.000000  0.073770  0.043095      1.000000
  0.022199  0.073770  0.043095      2.000000
  0.044398  0.073770  0.043095      2.000000
 
 TETIRR: Found    360 inequivalent tetrahedra from      720


--------------------------------------------------------------------------------------------------------




 Dimension of arrays:
   k-points           NKPTS =     36   k-points in BZ     NKDIM =     36   number of bands    NBANDS=     88
   number of dos      NEDOS =    301   number of ions     NIONS =     24
   non local maximal  LDIM  =      6   non local SUM 2l+1 LMDIM =     18
   total plane-waves  NPLWV = 128000
   max r-space proj   IRMAX =   2946   max aug-charges    IRDMAX=  10792
   dimension x,y,z NGX =    50 NGY =   40 NGZ =   64
   dimension x,y,z NGXF=   100 NGYF=   80 NGZF=  128
   support grid    NGXF=   100 NGYF=   80 NGZF=  128
   ions per type =               8  16
   NGX,Y,Z   is equivalent  to a cutoff of   9.23,  9.81,  9.17 a.u.
   NGXF,Y,Z  is equivalent  to a cutoff of  18.45, 19.62, 18.34 a.u.

 SYSTEM =  unknown system                          
 POSCAR =  sr8 si16                                

 Startparameter for this run:
   NWRITE =      2    write-flag & timer
   PREC   = normal    normal or accurate (medium, high low for compatibility)
   ISTART =      0    job   : 0-new  1-cont  2-samecut
   ICHARG =      2    charge: 1-file 2-atom 10-const
   ISPIN  =      1    spin polarized calculation?
   LNONCOLLINEAR =      F non collinear calculations
   LSORBIT =      F    spin-orbit coupling
   INIWAV =      1    electr: 0-lowe 1-rand  2-diag
   LASPH  =      F    aspherical Exc in radial PAW
   METAGGA=      F    non-selfconsistent MetaGGA calc.

 Electronic Relaxation 1
   ENCUT  =  500.0 eV  36.75 Ry    6.06 a.u.  16.43 12.36 21.15*2*pi/ulx,y,z
   ENINI  =  500.0     initial cutoff
   ENAUG  =  366.8 eV  augmentation charge cutoff
   NELM   =    100;   NELMIN=  2; NELMDL= -5     # of ELM steps 
   EDIFF  = 0.1E-05   stopping-criterion for ELM
   LREAL  =      T    real-space projection
   NLSPLINE    = F    spline interpolate recip. space projectors
   LCOMPAT=      F    compatible to vasp.4.4
   GGA_COMPAT  = T    GGA compatible to vasp.4.4-vasp.4.6
   LMAXPAW     = -100 max onsite density
   LMAXMIX     =    2 max onsite mixed and CHGCAR
   VOSKOWN=      0    Vosko Wilk Nusair interpolation
   ROPT   =   -0.00050  -0.00050
 Ionic relaxation
   EDIFFG = 0.1E-01   stopping-criterion for IOM
   NSW    =    200    number of steps for IOM
   NBLOCK =      1;   KBLOCK =    200    inner block; outer block 
   IBRION =      2    ionic relax: 0-MD 1-quasi-New 2-CG
   NFREE  =      1    steps in history (QN), initial steepest desc. (CG)
   ISIF   =      3    stress and relaxation
   IWAVPR =     11    prediction:  0-non 1-charg 2-wave 3-comb
   ISYM   =      2    0-nonsym 1-usesym 2-fastsym
   LCORR  =      T    Harris-Foulkes like correction to forces

   POTIM  = 0.5000    time-step for ionic-motion
   TEIN   =    0.0    initial temperature
   TEBEG  =    0.0;   TEEND  =   0.0 temperature during run
   SMASS  =  -3.00    Nose mass-parameter (am)
   estimated Nose-frequenzy (Omega)   =  0.10E-29 period in steps =****** mass=  -0.185E-26a.u.
   SCALEE = 1.0000    scale energy and forces
   NPACO  =    256;   APACO  = 16.0  distance and # of slots for P.C.
   PSTRESS=    0.0 pullay stress

  Mass of Ions in am
   POMASS =  87.62 28.09
  Ionic Valenz
   ZVAL   =  10.00  4.00
  Atomic Wigner-Seitz radii
   RWIGS  =  -1.00 -1.00
  virtual crystal weights 
   VCA    =   1.00  1.00
   NELECT =     144.0000    total number of electrons
   NUPDOWN=      -1.0000    fix difference up-down

 DOS related values:
   EMIN   =  10.00;   EMAX   =-10.00  energy-range for DOS
   EFERMI =   0.00
   ISMEAR =    -5;   SIGMA  =   0.01  broadening in eV -4-tet -1-fermi 0-gaus

 Electronic relaxation 2 (details)
   IALGO  =     38    algorithm
   LDIAG  =      T    sub-space diagonalisation (order eigenvalues)
   LSUBROT=      F    optimize rotation matrix (better conditioning)
   TURBO    =      0    0=normal 1=particle mesh
   IRESTART =      0    0=no restart 2=restart with 2 vectors
   NREBOOT  =      0    no. of reboots
   NMIN     =      0    reboot dimension
   EREF     =   0.00    reference energy to select bands
   IMIX   =      4    mixing-type and parameters
     AMIX     =   0.40;   BMIX     =  1.00
     AMIX_MAG =   1.60;   BMIX_MAG =  1.00
     AMIN     =   0.10
     WC   =   100.;   INIMIX=   1;  MIXPRE=   1;  MAXMIX= -45

 Intra band minimization:
   WEIMIN = 0.0010     energy-eigenvalue tresh-hold
   EBREAK =  0.28E-08  absolut break condition
   DEPER  =   0.30     relativ break condition  

   TIME   =   0.40     timestep for ELM

  volume/ion in A,a.u.               =      29.52       199.21
  Fermi-wavevector in a.u.,A,eV,Ry     =   0.962541  1.818939 12.605595  0.926485
  Thomas-Fermi vector in A             =   2.092009
 
 Write flags
   LWAVE        =      T    write WAVECAR
   LDOWNSAMPLE  =      F    k-point downsampling of WAVECAR
   LCHARG       =      T    write CHGCAR
   LVTOT        =      F    write LOCPOT, total local potential
   LVHAR        =      F    write LOCPOT, Hartree potential only
   LELF         =      F    write electronic localiz. function (ELF)
   LORBIT       =      0    0 simple, 1 ext, 2 COOP (PROOUT), +10 PAW based schemes


 Dipole corrections
   LMONO  =      F    monopole corrections only (constant potential shift)
   LDIPOL =      F    correct potential (dipole corrections)
   IDIPOL =      0    1-x, 2-y, 3-z, 4-all directions 
   EPSILON=  1.0000000 bulk dielectric constant

 Exchange correlation treatment:
   GGA     =    --    GGA type
   LEXCH   =     8    internal setting for exchange type
   VOSKOWN=      0    Vosko Wilk Nusair interpolation
   LHFCALC =     F    Hartree Fock is set to
   LHFONE  =     F    Hartree Fock one center treatment
   AEXX    =    0.0000 exact exchange contribution

 Linear response parameters
   LEPSILON=     F    determine dielectric tensor
   LRPA    =     F    only Hartree local field effects (RPA)
   LNABLA  =     F    use nabla operator in PAW spheres
   LVEL    =     F    velocity operator in full k-point grid
   LINTERFAST=   F  fast interpolation
   KINTER  =     0    interpolate to denser k-point grid
   CSHIFT  =0.1000    complex shift for real part using Kramers Kronig
   OMEGAMAX=  -1.0    maximum frequency
   DEG_THRESHOLD= 0.2000000E-02 threshold for treating states as degnerate
   RTIME   =   -0.100 relaxation time in fs
  (WPLASMAI=    0.000 imaginary part of plasma frequency in eV, 0.658/RTIME)
   DFIELD  = 0.0000000 0.0000000 0.0000000 field for delta impulse in time
 
 Orbital magnetization related:
   ORBITALMAG=     F  switch on orbital magnetization
   LCHIMAG   =     F  perturbation theory with respect to B field
   DQ        =  0.001000  dq finite difference perturbation B field
   LLRAUG    =     F  two centre corrections for induced B field



--------------------------------------------------------------------------------------------------------


 conjugate gradient relaxation of ions
 charge density and potential will be updated during run
 non-spin polarized calculation
 Variant of blocked Davidson
 Davidson routine will perform the subspace rotation
 perform sub-space diagonalisation
    after iterative eigenvector-optimisation
 modified Broyden-mixing scheme, WC =      100.0
 initial mixing is a Kerker type mixing with AMIX =  0.4000 and BMIX =      1.0000
 Hartree-type preconditioning will be used
 using additional bands           16
 real space projection scheme for non local part
 use partial core corrections
 calculate Harris-corrections to forces 
   (improved forces if not selfconsistent)
 use gradient corrections 
 use of overlap-Matrix (Vanderbilt PP)
 Fermi weights with tetrahedron method with Bloechl corrections


--------------------------------------------------------------------------------------------------------


  energy-cutoff  :      500.00
  volume of cell :      708.48
      direct lattice vectors                 reciprocal lattice vectors
     9.009468079  0.000000000  0.000000000     0.110994344  0.000000000  0.000000000
     0.000000000  6.777849674  0.000000000     0.000000000  0.147539419  0.000000000
     0.000000000  0.000000000 11.602143288     0.000000000  0.000000000  0.086190971

  length of vectors
     9.009468079  6.777849674 11.602143288     0.110994344  0.147539419  0.086190971


 
 k-points in units of 2pi/SCALE and weight: k-density: 6.0                          
   0.00000000  0.00000000  0.00000000       0.008
   0.02219887  0.00000000  0.00000000       0.017
   0.04439774  0.00000000  0.00000000       0.017
   0.00000000  0.02458990  0.00000000       0.017
   0.02219887  0.02458990  0.00000000       0.033
   0.04439774  0.02458990  0.00000000       0.033
   0.00000000  0.04917981  0.00000000       0.017
   0.02219887  0.04917981  0.00000000       0.033
   0.04439774  0.04917981  0.00000000       0.033
   0.00000000  0.07376971  0.00000000       0.008
   0.02219887  0.07376971  0.00000000       0.017
   0.04439774  0.07376971  0.00000000       0.017
   0.00000000  0.00000000  0.02154774       0.017
   0.02219887  0.00000000  0.02154774       0.033
   0.04439774  0.00000000  0.02154774       0.033
   0.00000000  0.02458990  0.02154774       0.033
   0.02219887  0.02458990  0.02154774       0.067
   0.04439774  0.02458990  0.02154774       0.067
   0.00000000  0.04917981  0.02154774       0.033
   0.02219887  0.04917981  0.02154774       0.067
   0.04439774  0.04917981  0.02154774       0.067
   0.00000000  0.07376971  0.02154774       0.017
   0.02219887  0.07376971  0.02154774       0.033
   0.04439774  0.07376971  0.02154774       0.033
   0.00000000  0.00000000  0.04309549       0.008
   0.02219887  0.00000000  0.04309549       0.017
   0.04439774  0.00000000  0.04309549       0.017
   0.00000000  0.02458990  0.04309549       0.017
   0.02219887  0.02458990  0.04309549       0.033
   0.04439774  0.02458990  0.04309549       0.033
   0.00000000  0.04917981  0.04309549       0.017
   0.02219887  0.04917981  0.04309549       0.033
   0.04439774  0.04917981  0.04309549       0.033
   0.00000000  0.07376971  0.04309549       0.008
   0.02219887  0.07376971  0.04309549       0.017
   0.04439774  0.07376971  0.04309549       0.017
 
 k-points in reciprocal lattice and weights: k-density: 6.0                          
   0.00000000  0.00000000  0.00000000       0.008
   0.20000000  0.00000000  0.00000000       0.017
   0.40000000  0.00000000  0.00000000       0.017
   0.00000000  0.16666667  0.00000000       0.017
   0.20000000  0.16666667  0.00000000       0.033
   0.40000000  0.16666667  0.00000000       0.033
   0.00000000  0.33333333  0.00000000       0.017
   0.20000000  0.33333333  0.00000000       0.033
   0.40000000  0.33333333  0.00000000       0.033
   0.00000000  0.50000000  0.00000000       0.008
   0.20000000  0.50000000  0.00000000       0.017
   0.40000000  0.50000000  0.00000000       0.017
   0.00000000  0.00000000  0.25000000       0.017
   0.20000000  0.00000000  0.25000000       0.033
   0.40000000  0.00000000  0.25000000       0.033
   0.00000000  0.16666667  0.25000000       0.033
   0.20000000  0.16666667  0.25000000       0.067
   0.40000000  0.16666667  0.25000000       0.067
   0.00000000  0.33333333  0.25000000       0.033
   0.20000000  0.33333333  0.25000000       0.067
   0.40000000  0.33333333  0.25000000       0.067
   0.00000000  0.50000000  0.25000000       0.017
   0.20000000  0.50000000  0.25000000       0.033
   0.40000000  0.50000000  0.25000000       0.033
   0.00000000  0.00000000  0.50000000       0.008
   0.20000000  0.00000000  0.50000000       0.017
   0.40000000  0.00000000  0.50000000       0.017
   0.00000000  0.16666667  0.50000000       0.017
   0.20000000  0.16666667  0.50000000       0.033
   0.40000000  0.16666667  0.50000000       0.033
   0.00000000  0.33333333  0.50000000       0.017
   0.20000000  0.33333333  0.50000000       0.033
   0.40000000  0.33333333  0.50000000       0.033
   0.00000000  0.50000000  0.50000000       0.008
   0.20000000  0.50000000  0.50000000       0.017
   0.40000000  0.50000000  0.50000000       0.017
 
 position of ions in fractional coordinates (direct lattice) 
   0.01517300  0.25000000  0.69130999
   0.98482700  0.75000002  0.30869001
   0.48482700  0.75000002  0.19130993
   0.51517300  0.25000000  0.80869005
   0.15930900  0.75000002  0.90664998
   0.84069100  0.25000000  0.09335000
   0.34069100  0.25000000  0.40665007
   0.65930900  0.75000002  0.59334998
   0.19427001  0.07254100  0.14674400
   0.80572999  0.92745899  0.85325598
   0.30572999  0.92745899  0.64674402
   0.69427001  0.07254100  0.35325598
   0.80572999  0.57254101  0.85325598
   0.19427001  0.42745899  0.14674400
   0.69427001  0.42745899  0.35325598
   0.30572999  0.57254101  0.64674402
   0.08290500  0.75000002  0.59200102
   0.91709498  0.25000000  0.40799898
   0.41709501  0.25000000  0.09200096
   0.58290502  0.75000002  0.90799902
   0.19769400  0.25000000  0.96694000
   0.80230599  0.75000002  0.03306002
   0.30230599  0.75000002  0.46693992
   0.69769401  0.25000000  0.53306000
 
 position of ions in cartesian coordinates  (Angst):
   0.13670066  1.69446242  8.02067757
   8.87276745  5.08338737  3.58146572
   4.36803341  5.08338737  2.21960521
   4.64143467  1.69446242  9.38253784
   1.43528938  5.08338737 10.51908302
   7.57417870  1.69446242  1.08306003
   3.06944466  1.69446242  4.71801233
   5.94002342  5.08338737  6.88413143
   1.75026941  0.49167198  1.70254493
   7.25919867  6.28617763  9.89959812
   2.75446463  6.28617763  7.50361681
   6.25500345  0.49167198  4.09852648
   7.25919867  3.88059688  9.89959812
   1.75026941  2.89725280  1.70254493
   6.25500345  2.89725280  4.09852648
   2.75446463  3.88059688  7.50361681
   0.74692994  5.08338737  6.86848068
   8.26253796  1.69446242  4.73366260
   3.75780416  1.69446242  1.06740832
   5.25166416  5.08338737 10.53473473
   1.78111780  1.69446242 11.21857643
   7.22835016  5.08338737  0.38356703
   2.72361612  5.08338737  5.41750383
   6.28585196  1.69446242  6.18463850
 


--------------------------------------------------------------------------------------------------------


 k-point  1 :   0.0000 0.0000 0.0000  plane waves:   18015
 k-point  2 :   0.2000 0.0000 0.0000  plane waves:   18061
 k-point  3 :   0.4000 0.0000 0.0000  plane waves:   17963
 k-point  4 :   0.0000 0.1667 0.0000  plane waves:   17981
 k-point  5 :   0.2000 0.1667 0.0000  plane waves:   17995
 k-point  6 :   0.4000 0.1667 0.0000  plane waves:   17998
 k-point  7 :   0.0000 0.3333 0.0000  plane waves:   17997
 k-point  8 :   0.2000 0.3333 0.0000  plane waves:   17955
 k-point  9 :   0.4000 0.3333 0.0000  plane waves:   17977
 k-point 10 :   0.0000 0.5000 0.0000  plane waves:   17944
 k-point 11 :   0.2000 0.5000 0.0000  plane waves:   17950
 k-point 12 :   0.4000 0.5000 0.0000  plane waves:   17980
 k-point 13 :   0.0000 0.0000 0.2500  plane waves:   18014
 k-point 14 :   0.2000 0.0000 0.2500  plane waves:   18010
 k-point 15 :   0.4000 0.0000 0.2500  plane waves:   17976
 k-point 16 :   0.0000 0.1667 0.2500  plane waves:   17994
 k-point 17 :   0.2000 0.1667 0.2500  plane waves:   18005
 k-point 18 :   0.4000 0.1667 0.2500  plane waves:   17983
 k-point 19 :   0.0000 0.3333 0.2500  plane waves:   17983
 k-point 20 :   0.2000 0.3333 0.2500  plane waves:   17976
 k-point 21 :   0.4000 0.3333 0.2500  plane waves:   17972
 k-point 22 :   0.0000 0.5000 0.2500  plane waves:   17960
 k-point 23 :   0.2000 0.5000 0.2500  plane waves:   17998
 k-point 24 :   0.4000 0.5000 0.2500  plane waves:   17972
 k-point 25 :   0.0000 0.0000 0.5000  plane waves:   17962
 k-point 26 :   0.2000 0.0000 0.5000  plane waves:   17982
 k-point 27 :   0.4000 0.0000 0.5000  plane waves:   17990
 k-point 28 :   0.0000 0.1667 0.5000  plane waves:   17998
 k-point 29 :   0.2000 0.1667 0.5000  plane waves:   17996
 k-point 30 :   0.4000 0.1667 0.5000  plane waves:   17998
 k-point 31 :   0.0000 0.3333 0.5000  plane waves:   18010
 k-point 32 :   0.2000 0.3333 0.5000  plane waves:   18006
 k-point 33 :   0.4000 0.3333 0.5000  plane waves:   17968
 k-point 34 :   0.0000 0.5000 0.5000  plane waves:   18004
 k-point 35 :   0.2000 0.5000 0.5000  plane waves:   18000
 k-point 36 :   0.4000 0.5000 0.5000  plane waves:   17992

 maximum and minimum number of plane-waves per node :      4533     4466

 maximum number of plane-waves:     18061
 maximum index in each direction: 
   IXMAX=   16   IYMAX=   12   IZMAX=   21
   IXMIN=  -16   IYMIN=  -12   IZMIN=  -21


 real space projection operators:
  total allocation   :       4328.62 KBytes
  max/ min on nodes  :       1126.75       1037.56


 parallel 3D FFT for wavefunctions:
    minimum data exchange during FFTs selected (reduces bandwidth)
 parallel 3D FFT for charge:
    minimum data exchange during FFTs selected (reduces bandwidth)


 total amount of memory used by VASP MPI-rank0    67772. kBytes
=======================================================================

   base      :      30000. kBytes
   nonlr-proj:       2580. kBytes
   fftplans  :       2347. kBytes
   grid      :       3658. kBytes
   one-center:         93. kBytes
   wavefun   :      29094. kBytes
 
     INWAV:  cpu time    0.0000: real time    0.0000
 Broyden mixing: mesh for mixing (old mesh)
   NGX = 33   NGY = 25   NGZ = 43
  (NGX  =100   NGY  = 80   NGZ  =128)
  gives a total of  35475 points

 initial charge density was supplied:
 charge density of overlapping atoms calculated
 number of electron     144.0000000 magnetization 
 keeping initial charge density in first step


--------------------------------------------------------------------------------------------------------


 Maximum index for non-local projection operator          837
 Maximum index for augmentation-charges         1136 (set IRDMAX)


--------------------------------------------------------------------------------------------------------


 First call to EWALD:  gamma=   0.199
 Maximum number of real-space cells 3x 3x 2
 Maximum number of reciprocal cells 3x 2x 3

    FEWALD:  cpu time    0.0017: real time    0.0018


--------------------------------------- Iteration      1(   1)  ---------------------------------------


    POTLOK:  cpu time    0.0504: real time    0.0611
    SETDIJ:  cpu time    0.0022: real time    0.0025
     EDDAV:  cpu time    2.4586: real time    2.4694
 BZINTS: Fermi energy: 10.729778;144.000000 electrons
         Band energy:-381.750008;  BLOECHL correction: -0.057844
       DOS:  cpu time    0.0463: real time    0.0465
    --------------------------------------------
      LOOP:  cpu time    2.5575: real time    2.5795

 eigenvalue-minimisations  :  6360
 total energy-change (2. order) : 0.7883898E+03  (-0.6013219E+04)
 number of electron     144.0000000 magnetization 
 augmentation part      144.0000000 magnetization 

 Free energy of the ion-electron system (eV)
  ---------------------------------------------------
  alpha Z        PSCENC =       332.24841166
  Ewald energy   TEWEN  =     -6374.53395873
  -Hartree energ DENC   =     -1695.20939011
  -exchange      EXHF   =         0.00000000
  -V(xc)+E(xc)   XCENC  =       126.13412487
  PAW double counting   =      4503.22894079    -4110.42850980
  entropy T*S    EENTRO =         0.00000000
  eigenvalues    EBANDS =      -381.75000796
  atomic energy  EATOM  =      8388.70021833
  Solvation  Ediel_sol  =         0.00000000
  ---------------------------------------------------
  free energy    TOTEN  =       788.38982904 eV

  energy without entropy =      788.38982904  energy(sigma->0) =      788.38982904


--------------------------------------------------------------------------------------------------------




--------------------------------------- Iteration      1(   2)  ---------------------------------------


     EDDAV:  cpu time    2.8025: real time    2.8201
 BZINTS: Fermi energy:  4.056689;144.000000 electrons
         Band energy:***********;  BLOECHL correction:  0.000000
       DOS:  cpu time    0.0096: real time    0.0096
    --------------------------------------------
      LOOP:  cpu time    2.8121: real time    2.8297

 eigenvalue-minimisations  :  7568
 total energy-change (2. order) :-0.8213568E+03  (-0.7955722E+03)
 number of electron     144.0000000 magnetization 
 augmentation part      144.0000000 magnetization 

 Free energy of the ion-electron system (eV)
  ---------------------------------------------------
  alpha Z        PSCENC =       332.24841166
  Ewald energy   TEWEN  =     -6374.53395873
  -Hartree energ DENC   =     -1695.20939011
  -exchange      EXHF   =         0.00000000
  -V(xc)+E(xc)   XCENC  =       126.13412487
  PAW double counting   =      4503.22894079    -4110.42850980
  entropy T*S    EENTRO =         0.00000000
  eigenvalues    EBANDS =     -1203.10684015
  atomic energy  EATOM  =      8388.70021833
  Solvation  Ediel_sol  =         0.00000000
  ---------------------------------------------------
  free energy    TOTEN  =       -32.96700315 eV

  energy without entropy =      -32.96700315  energy(sigma->0) =      -32.96700315


--------------------------------------------------------------------------------------------------------




--------------------------------------- Iteration      1(   3)  ---------------------------------------


     EDDAV:  cpu time    2.9799: real time    2.9977
 BZINTS: Fermi energy:  2.404751;144.000000 electrons
         Band energy:***********;  BLOECHL correction:  0.000000
       DOS:  cpu time    0.0080: real time    0.0080
    --------------------------------------------
      LOOP:  cpu time    2.9879: real time    3.0057

 eigenvalue-minimisations  :  8256
 total energy-change (2. order) :-0.7479864E+02  (-0.7428999E+02)
 number of electron     144.0000000 magnetization 
 augmentation part      144.0000000 magnetization 

 Free energy of the ion-electron system (eV)
  ---------------------------------------------------
  alpha Z        PSCENC =       332.24841166
  Ewald energy   TEWEN  =     -6374.53395873
  -Hartree energ DENC   =     -1695.20939011
  -exchange      EXHF   =         0.00000000
  -V(xc)+E(xc)   XCENC  =       126.13412487
  PAW double counting   =      4503.22894079    -4110.42850980
  entropy T*S    EENTRO =         0.00000000
  eigenvalues    EBANDS =     -1277.90547994
  atomic energy  EATOM  =      8388.70021833
  Solvation  Ediel_sol  =         0.00000000
  ---------------------------------------------------
  free energy    TOTEN  =      -107.76564294 eV

  energy without entropy =     -107.76564294  energy(sigma->0) =     -107.76564294


--------------------------------------------------------------------------------------------------------




--------------------------------------- Iteration      1(   4)  ---------------------------------------


     EDDAV:  cpu time    3.6060: real time    3.6256
 BZINTS: Fermi energy:  2.408280;144.000000 electrons
         Band energy:***********;  BLOECHL correction:  0.000000
       DOS:  cpu time    0.0082: real time    0.0083
    --------------------------------------------
      LOOP:  cpu time    3.6143: real time    3.6338

 eigenvalue-minimisations  : 10392
 total energy-change (2. order) :-0.3945481E+01  (-0.3934654E+01)
 number of electron     144.0000000 magnetization 
 augmentation part      144.0000000 magnetization 

 Free energy of the ion-electron system (eV)
  ---------------------------------------------------
  alpha Z        PSCENC =       332.24841166
  Ewald energy   TEWEN  =     -6374.53395873
  -Hartree energ DENC   =     -1695.20939011
  -exchange      EXHF   =         0.00000000
  -V(xc)+E(xc)   XCENC  =       126.13412487
  PAW double counting   =      4503.22894079    -4110.42850980
  entropy T*S    EENTRO =         0.00000000
  eigenvalues    EBANDS =     -1281.85096119
  atomic energy  EATOM  =      8388.70021833
  Solvation  Ediel_sol  =         0.00000000
  ---------------------------------------------------
  free energy    TOTEN  =      -111.71112419 eV

  energy without entropy =     -111.71112419  energy(sigma->0) =     -111.71112419


--------------------------------------------------------------------------------------------------------




--------------------------------------- Iteration      1(   5)  ---------------------------------------


     EDDAV:  cpu time    3.2483: real time    3.2674
 BZINTS: Fermi energy:  2.445788;144.000000 electrons
         Band energy:***********;  BLOECHL correction:  0.000000
       DOS:  cpu time    0.0093: real time    0.0094
    CHARGE:  cpu time    0.0831: real time    0.0834
    MIXING:  cpu time    0.0033: real time    0.0037
    --------------------------------------------
      LOOP:  cpu time    3.3441: real time    3.3638

 eigenvalue-minimisations  :  9112
 total energy-change (2. order) :-0.2569996E+00  (-0.2569501E+00)
 number of electron     144.0000013 magnetization 
 augmentation part        0.6704235 magnetization 

 Broyden mixing:
  rms(total) = 0.11027E+01    rms(broyden)= 0.11027E+01
  rms(prec ) = 0.16180E+01
  weight for this iteration     100.00

 Free energy of the ion-electron system (eV)
  ---------------------------------------------------
  alpha Z        PSCENC =       332.24841166
  Ewald energy   TEWEN  =     -6374.53395873
  -Hartree energ DENC   =     -1695.20939011
  -exchange      EXHF   =         0.00000000
  -V(xc)+E(xc)   XCENC  =       126.13412487
  PAW double counting   =      4503.22894079    -4110.42850980
  entropy T*S    EENTRO =         0.00000000
  eigenvalues    EBANDS =     -1282.10796083
  atomic energy  EATOM  =      8388.70021833
  Solvation  Ediel_sol  =         0.00000000
  ---------------------------------------------------
  free energy    TOTEN  =      -111.96812383 eV

  energy without entropy =     -111.96812383  energy(sigma->0) =     -111.96812383


--------------------------------------------------------------------------------------------------------




--------------------------------------- Iteration      1(   6)  ---------------------------------------


    POTLOK:  cpu time    0.0296: real time    0.0404
    SETDIJ:  cpu time    0.0016: real time    0.0016
     EDDAV:  cpu time    2.6465: real time    2.6528
 BZINTS: Fermi energy:  2.893932;144.000000 electrons
         Band energy:***********;  BLOECHL correction:  0.000000
       DOS:  cpu time    0.0079: real time    0.0079
    CHARGE:  cpu time    0.0816: real time    0.0818
    MIXING:  cpu time    0.0032: real time    0.0033
    --------------------------------------------
      LOOP:  cpu time    2.7704: real time    2.7879

 eigenvalue-minimisations  :  7064
 total energy-change (2. order) : 0.4976046E+01  (-0.1445529E+01)
 number of electron     144.0000012 magnetization 
 augmentation part        0.8577804 magnetization 

 Broyden mixing:
  rms(total) = 0.59615E+00    rms(broyden)= 0.59615E+00
  rms(prec ) = 0.74053E+00
  weight for this iteration     100.00

 eigenvalues of (default mixing * dielectric matrix)
  average eigenvalue GAMMA=   1.8811
  1.8811

 Free energy of the ion-electron system (eV)
  ---------------------------------------------------
  alpha Z        PSCENC =       332.24841166
  Ewald energy   TEWEN  =     -6374.53395873
  -Hartree energ DENC   =     -1686.52719387
  -exchange      EXHF   =         0.00000000
  -V(xc)+E(xc)   XCENC  =       127.47920903
  PAW double counting   =      4513.07690152    -4140.30055460
  entropy T*S    EENTRO =         0.00000000
  eigenvalues    EBANDS =     -1267.13511147
  atomic energy  EATOM  =      8388.70021833
  Solvation  Ediel_sol  =         0.00000000
  ---------------------------------------------------
  free energy    TOTEN  =      -106.99207812 eV

  energy without entropy =     -106.99207812  energy(sigma->0) =     -106.99207812


--------------------------------------------------------------------------------------------------------




--------------------------------------- Iteration      1(   7)  ---------------------------------------


    POTLOK:  cpu time    0.0270: real time    0.0380
    SETDIJ:  cpu time    0.0018: real time    0.0018
     EDDAV:  cpu time    3.0941: real time    3.1055
 BZINTS: Fermi energy:  3.116509;144.000000 electrons
         Band energy:***********;  BLOECHL correction:  0.000000
       DOS:  cpu time    0.0079: real time    0.0079
    CHARGE:  cpu time    0.0803: real time    0.0805
    MIXING:  cpu time    0.0030: real time    0.0032
    --------------------------------------------
      LOOP:  cpu time    3.2141: real time    3.2369

 eigenvalue-minimisations  :  8592
 total energy-change (2. order) : 0.7353052E-01  (-0.6166452E+00)
 number of electron     144.0000012 magnetization 
 augmentation part        0.7679210 magnetization 

 Broyden mixing:
  rms(total) = 0.23055E+00    rms(broyden)= 0.23055E+00
  rms(prec ) = 0.29219E+00
  weight for this iteration     100.00

 eigenvalues of (default mixing * dielectric matrix)
  average eigenvalue GAMMA=   1.8229
  1.8229  1.8229

 Free energy of the ion-electron system (eV)
  ---------------------------------------------------
  alpha Z        PSCENC =       332.24841166
  Ewald energy   TEWEN  =     -6374.53395873
  -Hartree energ DENC   =     -1670.62997934
  -exchange      EXHF   =         0.00000000
  -V(xc)+E(xc)   XCENC  =       128.11010960
  PAW double counting   =      4543.83942243    -4188.09428807
  entropy T*S    EENTRO =         0.00000000
  eigenvalues    EBANDS =     -1266.55848348
  atomic energy  EATOM  =      8388.70021833
  Solvation  Ediel_sol  =         0.00000000
  ---------------------------------------------------
  free energy    TOTEN  =      -106.91854761 eV

  energy without entropy =     -106.91854761  energy(sigma->0) =     -106.91854761


--------------------------------------------------------------------------------------------------------




--------------------------------------- Iteration      1(   8)  ---------------------------------------


    POTLOK:  cpu time    0.0272: real time    0.0380
    SETDIJ:  cpu time    0.0016: real time    0.0016
     EDDAV:  cpu time    2.7239: real time    2.7304
 BZINTS: Fermi energy:  3.103080;144.000000 electrons
         Band energy:***********;  BLOECHL correction:  0.000000
       DOS:  cpu time    0.0080: real time    0.0080
    CHARGE:  cpu time    0.0799: real time    0.0801
    MIXING:  cpu time    0.0031: real time    0.0034
    --------------------------------------------
      LOOP:  cpu time    2.8436: real time    2.8615

 eigenvalue-minimisations  :  7320
 total energy-change (2. order) :-0.4444734E-01  (-0.1942631E+00)
 number of electron     144.0000013 magnetization 
 augmentation part        0.6055047 magnetization 

 Broyden mixing:
  rms(total) = 0.82064E-01    rms(broyden)= 0.82064E-01
  rms(prec ) = 0.15133E+00
  weight for this iteration     100.00

 eigenvalues of (default mixing * dielectric matrix)
  average eigenvalue GAMMA=   1.6290
  2.4779  1.2045  1.2045

 Free energy of the ion-electron system (eV)
  ---------------------------------------------------
  alpha Z        PSCENC =       332.24841166
  Ewald energy   TEWEN  =     -6374.53395873
  -Hartree energ DENC   =     -1660.29677280
  -exchange      EXHF   =         0.00000000
  -V(xc)+E(xc)   XCENC  =       128.06663265
  PAW double counting   =      4595.09529559    -4244.70830456
  entropy T*S    EENTRO =         0.00000000
  eigenvalues    EBANDS =     -1271.53451708
  atomic energy  EATOM  =      8388.70021833
  Solvation  Ediel_sol  =         0.00000000
  ---------------------------------------------------
  free energy    TOTEN  =      -106.96299495 eV

  energy without entropy =     -106.96299495  energy(sigma->0) =     -106.96299495


--------------------------------------------------------------------------------------------------------




--------------------------------------- Iteration      1(   9)  ---------------------------------------


    POTLOK:  cpu time    0.0281: real time    0.0390
    SETDIJ:  cpu time    0.0015: real time    0.0015
     EDDAV:  cpu time    2.6909: real time    2.6973
 BZINTS: Fermi energy:  3.211694;144.000000 electrons
         Band energy:***********;  BLOECHL correction:  0.000000
       DOS:  cpu time    0.0091: real time    0.0092
    CHARGE:  cpu time    0.0806: real time    0.0808
    MIXING:  cpu time    0.0028: real time    0.0029
    --------------------------------------------
      LOOP:  cpu time    2.8131: real time    2.8307

 eigenvalue-minimisations  :  7272
 total energy-change (2. order) : 0.5652853E-01  (-0.4885035E-01)
 number of electron     144.0000012 magnetization 
 augmentation part        0.6135905 magnetization 

 Broyden mixing:
  rms(total) = 0.24757E-01    rms(broyden)= 0.24757E-01
  rms(prec ) = 0.28603E-01
  weight for this iteration     100.00

 eigenvalues of (default mixing * dielectric matrix)
  average eigenvalue GAMMA=   1.6849
  2.2062  2.2062  1.1636  1.1636

 Free energy of the ion-electron system (eV)
  ---------------------------------------------------
  alpha Z        PSCENC =       332.24841166
  Ewald energy   TEWEN  =     -6374.53395873
  -Hartree energ DENC   =     -1660.31340663
  -exchange      EXHF   =         0.00000000
  -V(xc)+E(xc)   XCENC  =       128.41531686
  PAW double counting   =      4606.50315068    -4258.41404855
  entropy T*S    EENTRO =         0.00000000
  eigenvalues    EBANDS =     -1269.51215004
  atomic energy  EATOM  =      8388.70021833
  Solvation  Ediel_sol  =         0.00000000
  ---------------------------------------------------
  free energy    TOTEN  =      -106.90646642 eV

  energy without entropy =     -106.90646642  energy(sigma->0) =     -106.90646642


--------------------------------------------------------------------------------------------------------




--------------------------------------- Iteration      1(  10)  ---------------------------------------


    POTLOK:  cpu time    0.0263: real time    0.0377
    SETDIJ:  cpu time    0.0016: real time    0.0016
     EDDAV:  cpu time    3.2692: real time    3.2769
 BZINTS: Fermi energy:  3.204202;144.000000 electrons
         Band energy:***********;  BLOECHL correction:  0.000000
       DOS:  cpu time    0.0091: real time    0.0091
    CHARGE:  cpu time    0.0813: real time    0.0815
    MIXING:  cpu time    0.0031: real time    0.0032
    --------------------------------------------
      LOOP:  cpu time    3.3905: real time    3.4099

 eigenvalue-minimisations  :  9224
 total energy-change (2. order) :-0.8403609E-02  (-0.7538159E-02)
 number of electron     144.0000013 magnetization 
 augmentation part        0.5569988 magnetization 

 Broyden mixing:
  rms(total) = 0.17939E-01    rms(broyden)= 0.17939E-01
  rms(prec ) = 0.22819E-01
  weight for this iteration     100.00

 eigenvalues of (default mixing * dielectric matrix)
  average eigenvalue GAMMA=   1.7361
  2.8249  2.8249  1.1081  1.1081  0.8147

 Free energy of the ion-electron system (eV)
  ---------------------------------------------------
  alpha Z        PSCENC =       332.24841166
  Ewald energy   TEWEN  =     -6374.53395873
  -Hartree energ DENC   =     -1661.61108393
  -exchange      EXHF   =         0.00000000
  -V(xc)+E(xc)   XCENC  =       128.43223821
  PAW double counting   =      4614.65537108    -4265.23485103
  entropy T*S    EENTRO =         0.00000000
  eigenvalues    EBANDS =     -1269.57121560
  atomic energy  EATOM  =      8388.70021833
  Solvation  Ediel_sol  =         0.00000000
  ---------------------------------------------------
  free energy    TOTEN  =      -106.91487002 eV

  energy without entropy =     -106.91487002  energy(sigma->0) =     -106.91487002


--------------------------------------------------------------------------------------------------------




--------------------------------------- Iteration      1(  11)  ---------------------------------------


    POTLOK:  cpu time    0.0275: real time    0.0389
    SETDIJ:  cpu time    0.0017: real time    0.0017
     EDDAV:  cpu time    3.0160: real time    3.0232
 BZINTS: Fermi energy:  3.201160;144.000000 electrons
         Band energy:***********;  BLOECHL correction:  0.000000
       DOS:  cpu time    0.0093: real time    0.0093
    CHARGE:  cpu time    0.0794: real time    0.0796
    MIXING:  cpu time    0.0031: real time    0.0032
    --------------------------------------------
      LOOP:  cpu time    3.1370: real time    3.1559

 eigenvalue-minimisations  :  8312
 total energy-change (2. order) :-0.6863049E-03  (-0.2798340E-03)
 number of electron     144.0000013 magnetization 
 augmentation part        0.5551903 magnetization 

 Broyden mixing:
  rms(total) = 0.86559E-02    rms(broyden)= 0.86559E-02
  rms(prec ) = 0.12032E-01
  weight for this iteration     100.00

 eigenvalues of (default mixing * dielectric matrix)
  average eigenvalue GAMMA=   1.6167
  2.7886  2.1235  1.5504  1.0189  1.1094  1.1094

 Free energy of the ion-electron system (eV)
  ---------------------------------------------------
  alpha Z        PSCENC =       332.24841166
  Ewald energy   TEWEN  =     -6374.53395873
  -Hartree energ DENC   =     -1662.91467244
  -exchange      EXHF   =         0.00000000
  -V(xc)+E(xc)   XCENC  =       128.50652750
  PAW double counting   =      4621.98335587    -4271.75635603
  entropy T*S    EENTRO =         0.00000000
  eigenvalues    EBANDS =     -1269.14908249
  atomic energy  EATOM  =      8388.70021833
  Solvation  Ediel_sol  =         0.00000000
  ---------------------------------------------------
  free energy    TOTEN  =      -106.91555633 eV

  energy without entropy =     -106.91555633  energy(sigma->0) =     -106.91555633


--------------------------------------------------------------------------------------------------------




--------------------------------------- Iteration      1(  12)  ---------------------------------------


    POTLOK:  cpu time    0.0285: real time    0.0397
    SETDIJ:  cpu time    0.0016: real time    0.0016
     EDDAV:  cpu time    2.7300: real time    2.7364
 BZINTS: Fermi energy:  3.197535;144.000000 electrons
         Band energy:***********;  BLOECHL correction:  0.000000
       DOS:  cpu time    0.0091: real time    0.0091
    CHARGE:  cpu time    0.0809: real time    0.0810
    MIXING:  cpu time    0.0031: real time    0.0032
    --------------------------------------------
      LOOP:  cpu time    2.8532: real time    2.8712

 eigenvalue-minimisations  :  7296
 total energy-change (2. order) : 0.5954439E-04  (-0.8268433E-04)
 number of electron     144.0000013 magnetization 
 augmentation part        0.5539921 magnetization 

 Broyden mixing:
  rms(total) = 0.55199E-02    rms(broyden)= 0.55199E-02
  rms(prec ) = 0.66496E-02
  weight for this iteration     100.00

 eigenvalues of (default mixing * dielectric matrix)
  average eigenvalue GAMMA=   1.6961
  3.1485  2.6364  1.8340  1.1130  1.1130  1.1796  0.8479

 Free energy of the ion-electron system (eV)
  ---------------------------------------------------
  alpha Z        PSCENC =       332.24841166
  Ewald energy   TEWEN  =     -6374.53395873
  -Hartree energ DENC   =     -1662.57854671
  -exchange      EXHF   =         0.00000000
  -V(xc)+E(xc)   XCENC  =       128.53622884
  PAW double counting   =      4622.62856734    -4272.85049884
  entropy T*S    EENTRO =         0.00000000
  eigenvalues    EBANDS =     -1269.06591867
  atomic energy  EATOM  =      8388.70021833
  Solvation  Ediel_sol  =         0.00000000
  ---------------------------------------------------
  free energy    TOTEN  =      -106.91549679 eV

  energy without entropy =     -106.91549679  energy(sigma->0) =     -106.91549679


--------------------------------------------------------------------------------------------------------




--------------------------------------- Iteration      1(  13)  ---------------------------------------


    POTLOK:  cpu time    0.0253: real time    0.0375
    SETDIJ:  cpu time    0.0015: real time    0.0015
     EDDAV:  cpu time    3.0897: real time    3.0971
 BZINTS: Fermi energy:  3.195529;144.000000 electrons
         Band energy:***********;  BLOECHL correction:  0.000000
       DOS:  cpu time    0.0090: real time    0.0091
    CHARGE:  cpu time    0.0813: real time    0.0815
    MIXING:  cpu time    0.0031: real time    0.0031
    --------------------------------------------
      LOOP:  cpu time    3.2100: real time    3.2298

 eigenvalue-minimisations  :  8624
 total energy-change (2. order) :-0.1833047E-05  (-0.4218950E-04)
 number of electron     144.0000013 magnetization 
 augmentation part        0.5556077 magnetization 

 Broyden mixing:
  rms(total) = 0.82452E-03    rms(broyden)= 0.82451E-03
  rms(prec ) = 0.12064E-02
  weight for this iteration     100.00

 eigenvalues of (default mixing * dielectric matrix)
  average eigenvalue GAMMA=   1.6421
  3.0415  2.2811  2.2811  1.1463  1.1463  1.1808  1.1808  0.8790

 Free energy of the ion-electron system (eV)
  ---------------------------------------------------
  alpha Z        PSCENC =       332.24841166
  Ewald energy   TEWEN  =     -6374.53395873
  -Hartree energ DENC   =     -1663.00582648
  -exchange      EXHF   =         0.00000000
  -V(xc)+E(xc)   XCENC  =       128.55293078
  PAW double counting   =      4622.90196953    -4272.88708395
  entropy T*S    EENTRO =         0.00000000
  eigenvalues    EBANDS =     -1268.89215976
  atomic energy  EATOM  =      8388.70021833
  Solvation  Ediel_sol  =         0.00000000
  ---------------------------------------------------
  free energy    TOTEN  =      -106.91549862 eV

  energy without entropy =     -106.91549862  energy(sigma->0) =     -106.91549862


--------------------------------------------------------------------------------------------------------




--------------------------------------- Iteration      1(  14)  ---------------------------------------


    POTLOK:  cpu time    0.0276: real time    0.0380
    SETDIJ:  cpu time    0.0015: real time    0.0015
     EDDAV:  cpu time    2.9439: real time    2.9509
 BZINTS: Fermi energy:  3.104117;144.000000 electrons
         Band energy:***********;  BLOECHL correction:  0.000000
       DOS:  cpu time    0.0068: real time    0.0068
    CHARGE:  cpu time    0.0812: real time    0.0814
    MIXING:  cpu time    0.0032: real time    0.0033
    --------------------------------------------
      LOOP:  cpu time    3.0641: real time    3.0818

 eigenvalue-minimisations  :  8056
 total energy-change (2. order) :-0.1240136E-05  (-0.5988158E-05)
 number of electron     144.0000013 magnetization 
 augmentation part        0.5568478 magnetization 

 Broyden mixing:
  rms(total) = 0.35564E-03    rms(broyden)= 0.35564E-03
  rms(prec ) = 0.44697E-03
  weight for this iteration     100.00

 eigenvalues of (default mixing * dielectric matrix)
  average eigenvalue GAMMA=   1.7281
  3.2756  2.6096  2.6096  1.8663  1.1433  1.1433  1.1050  0.9000  0.9000

 Free energy of the ion-electron system (eV)
  ---------------------------------------------------
  alpha Z        PSCENC =       332.24841166
  Ewald energy   TEWEN  =     -6374.53395873
  -Hartree energ DENC   =     -1662.97323874
  -exchange      EXHF   =         0.00000000
  -V(xc)+E(xc)   XCENC  =       128.55216149
  PAW double counting   =      4622.53798939    -4272.56265660
  entropy T*S    EENTRO =         0.00000000
  eigenvalues    EBANDS =     -1268.88442666
  atomic energy  EATOM  =      8388.70021833
  Solvation  Ediel_sol  =         0.00000000
  ---------------------------------------------------
  free energy    TOTEN  =      -106.91549986 eV

  energy without entropy =     -106.91549986  energy(sigma->0) =     -106.91549986


--------------------------------------------------------------------------------------------------------




--------------------------------------- Iteration      1(  15)  ---------------------------------------


    POTLOK:  cpu time    0.0265: real time    0.0381
    SETDIJ:  cpu time    0.0018: real time    0.0018
     EDDAV:  cpu time    2.4349: real time    2.4407
 BZINTS: Fermi energy:  3.102393;144.000000 electrons
         Band energy:***********;  BLOECHL correction:  0.000000
       DOS:  cpu time    0.0071: real time    0.0071
    CHARGE:  cpu time    0.0802: real time    0.0804
    MIXING:  cpu time    0.0034: real time    0.0035
    --------------------------------------------
      LOOP:  cpu time    2.5539: real time    2.5716

 eigenvalue-minimisations  :  6304
 total energy-change (2. order) : 0.1003898E-05  (-0.6165293E-06)
 number of electron     144.0000013 magnetization 
 augmentation part        0.5569281 magnetization 

 Broyden mixing:
  rms(total) = 0.12586E-03    rms(broyden)= 0.12586E-03
  rms(prec ) = 0.21691E-03
  weight for this iteration     100.00

 eigenvalues of (default mixing * dielectric matrix)
  average eigenvalue GAMMA=   1.6829
  3.3931  2.5384  2.5384  1.9589  1.1441  1.1441  1.1344  1.1344  0.9746  0.8688

 Free energy of the ion-electron system (eV)
  ---------------------------------------------------
  alpha Z        PSCENC =       332.24841166
  Ewald energy   TEWEN  =     -6374.53395873
  -Hartree energ DENC   =     -1662.97016348
  -exchange      EXHF   =         0.00000000
  -V(xc)+E(xc)   XCENC  =       128.55131100
  PAW double counting   =      4622.32009488    -4272.35019900
  entropy T*S    EENTRO =         0.00000000
  eigenvalues    EBANDS =     -1268.88121351
  atomic energy  EATOM  =      8388.70021833
  Solvation  Ediel_sol  =         0.00000000
  ---------------------------------------------------
  free energy    TOTEN  =      -106.91549885 eV

  energy without entropy =     -106.91549885  energy(sigma->0) =     -106.91549885


--------------------------------------------------------------------------------------------------------




--------------------------------------- Iteration      1(  16)  ---------------------------------------


    POTLOK:  cpu time    0.0279: real time    0.0389
    SETDIJ:  cpu time    0.0015: real time    0.0015
     EDDAV:  cpu time    1.9820: real time    1.9867
 BZINTS: Fermi energy:  3.101024;144.000000 electrons
         Band energy:***********;  BLOECHL correction: -0.000000
       DOS:  cpu time    0.0069: real time    0.0069
    --------------------------------------------
      LOOP:  cpu time    2.0183: real time    2.0340

 eigenvalue-minimisations  :  4576
 total energy-change (2. order) :-0.3775876E-06  (-0.1357179E-06)
 number of electron     144.0000013 magnetization 
 augmentation part        0.5569281 magnetization 

 Free energy of the ion-electron system (eV)
  ---------------------------------------------------
  alpha Z        PSCENC =       332.24841166
  Ewald energy   TEWEN  =     -6374.53395873
  -Hartree energ DENC   =     -1662.97870912
  -exchange      EXHF   =         0.00000000
  -V(xc)+E(xc)   XCENC  =       128.55163860
  PAW double counting   =      4622.28449611    -4272.31123290
  entropy T*S    EENTRO =         0.00000000
  eigenvalues    EBANDS =     -1268.87636318
  atomic energy  EATOM  =      8388.70021833
  Solvation  Ediel_sol  =         0.00000000
  ---------------------------------------------------
  free energy    TOTEN  =      -106.91549923 eV

  energy without entropy =     -106.91549923  energy(sigma->0) =     -106.91549923


--------------------------------------------------------------------------------------------------------




 average (electrostatic) potential at core
  the test charge radii are     1.1929  0.9892
  (the norm of the test charge is              1.0000)
       1 -38.5976       2 -38.5976       3 -38.5976       4 -38.5976       5 -38.7700
       6 -38.7700       7 -38.7700       8 -38.7700       9 -85.6409      10 -85.6409
      11 -85.6409      12 -85.6409      13 -85.6409      14 -85.6409      15 -85.6409
      16 -85.6409      17 -85.6659      18 -85.6659      19 -85.6659      20 -85.6659
      21 -85.5962      22 -85.5962      23 -85.5962      24 -85.5962
 
 
 
 E-fermi :   3.1010     XC(G=0):  -8.5116     alpha+bet : -9.2320


 k-point     1 :       0.0000    0.0000    0.0000
  band No.  band energies     occupation 
      1     -32.6072      2.00000
      2     -32.6070      2.00000
      3     -32.6065      2.00000
      4     -32.6065      2.00000
      5     -32.4482      2.00000
      6     -32.4482      2.00000
      7     -32.4470      2.00000
      8     -32.4469      2.00000
      9     -14.6904      2.00000
     10     -14.6886      2.00000
     11     -14.6853      2.00000
     12     -14.6837      2.00000
     13     -14.6669      2.00000
     14     -14.6602      2.00000
     15     -14.6535      2.00000
     16     -14.6526      2.00000
     17     -14.6498      2.00000
     18     -14.6462      2.00000
     19     -14.6363      2.00000
     20     -14.6339      2.00000
     21     -14.5413      2.00000
     22     -14.5397      2.00000
     23     -14.5202      2.00000
     24     -14.5201      2.00000
     25     -14.5109      2.00000
     26     -14.5039      2.00000
     27     -14.4942      2.00000
     28     -14.4941      2.00000
     29     -14.4937      2.00000
     30     -14.4909      2.00000
     31     -14.4885      2.00000
     32     -14.4867      2.00000
     33      -7.7548      2.00000
     34      -7.6117      2.00000
     35      -7.6012      2.00000
     36      -7.5672      2.00000
     37      -3.1525      2.00000
     38      -3.1153      2.00000
     39      -2.7867      2.00000
     40      -2.7791      2.00000
     41      -2.6680      2.00000
     42      -2.6552      2.00000
     43      -2.6394      2.00000
     44      -2.5342      2.00000
     45      -2.5281      2.00000
     46      -2.5255      2.00000
     47      -2.5087      2.00000
     48      -2.2358      2.00000
     49      -0.6813      2.00000
     50       0.3958      2.00000
     51       0.4028      2.00000
     52       0.5363      2.00000
     53       0.8937      2.00000
     54       1.1191      2.00000
     55       1.2229      2.00000
     56       1.3618      2.00000
     57       1.5326      2.00000
     58       1.5725      2.00000
     59       1.5915      2.00000
     60       1.6455      2.00000
     61       1.7457      2.00000
     62       1.7636      2.00000
     63       1.7737      2.00000
     64       1.8008      2.00000
     65       1.8253      2.00000
     66       2.0657      2.00000
     67       2.0724      2.00000
     68       2.0756      2.00000
     69       2.5417      2.00000
     70       2.6516      2.00000
     71       2.7695      2.00000
     72       2.8424      2.00000
     73       4.1439      0.00000
     74       4.2206      0.00000
     75       4.5277      0.00000
     76       4.6077      0.00000
     77       4.6265      0.00000
     78       4.7929      0.00000
     79       5.0678      0.00000
     80       5.2501      0.00000
     81       5.5676      0.00000
     82       5.6284      0.00000
     83       5.6462      0.00000
     84       5.7682      0.00000
     85       5.8346      0.00000
     86       5.8691      0.00000
     87       6.0541      0.00000
     88       6.0549      0.00000

 k-point     2 :       0.2000    0.0000    0.0000
  band No.  band energies     occupation 
      1     -32.6071      2.00000
      2     -32.6070      2.00000
      3     -32.6065      2.00000
      4     -32.6065      2.00000
      5     -32.4481      2.00000
      6     -32.4481      2.00000
      7     -32.4471      2.00000
      8     -32.4470      2.00000
      9     -14.6906      2.00000
     10     -14.6893      2.00000
     11     -14.6847      2.00000
     12     -14.6837      2.00000
     13     -14.6662      2.00000
     14     -14.6607      2.00000
     15     -14.6524      2.00000
     16     -14.6523      2.00000
     17     -14.6502      2.00000
     18     -14.6465      2.00000
     19     -14.6363      2.00000
     20     -14.6343      2.00000
     21     -14.5396      2.00000
     22     -14.5370      2.00000
     23     -14.5230      2.00000
     24     -14.5205      2.00000
     25     -14.5087      2.00000
     26     -14.5031      2.00000
     27     -14.4944      2.00000
     28     -14.4938      2.00000
     29     -14.4935      2.00000
     30     -14.4912      2.00000
     31     -14.4907      2.00000
     32     -14.4893      2.00000
     33      -7.7360      2.00000
     34      -7.6088      2.00000
     35      -7.6001      2.00000
     36      -7.5838      2.00000
     37      -3.1672      2.00000
     38      -3.0720      2.00000
     39      -2.9380      2.00000
     40      -2.7446      2.00000
     41      -2.6462      2.00000
     42      -2.6313      2.00000
     43      -2.5530      2.00000
     44      -2.5450      2.00000
     45      -2.5393      2.00000
     46      -2.5357      2.00000
     47      -2.5036      2.00000
     48      -2.3816      2.00000
     49      -0.5209      2.00000
     50       0.3415      2.00000
     51       0.3556      2.00000
     52       0.5851      2.00000
     53       0.8599      2.00000
     54       1.1641      2.00000
     55       1.3301      2.00000
     56       1.3697      2.00000
     57       1.4714      2.00000
     58       1.4894      2.00000
     59       1.5141      2.00000
     60       1.6608      2.00000
     61       1.8215      2.00000
     62       1.8388      2.00000
     63       1.8401      2.00000
     64       1.9228      2.00000
     65       1.9484      2.00000
     66       2.0852      2.00000
     67       2.1018      2.00000
     68       2.1101      2.00000
     69       2.5352      2.00000
     70       2.6487      2.00000
     71       2.6633      2.00000
     72       2.8247      2.00000
     73       4.1835      0.00000
     74       4.2249      0.00000
     75       4.5109      0.00000
     76       4.6600      0.00000
     77       4.7089      0.00000
     78       4.7257      0.00000
     79       4.7536      0.00000
     80       5.1432      0.00000
     81       5.1912      0.00000
     82       5.4285      0.00000
     83       5.5266      0.00000
     84       5.6443      0.00000
     85       5.8272      0.00000
     86       6.0067      0.00000
     87       6.0669      0.00000
     88       6.2131      0.00000

 k-point     3 :       0.4000    0.0000    0.0000
  band No.  band energies     occupation 
      1     -32.6071      2.00000
      2     -32.6071      2.00000
      3     -32.6065      2.00000
      4     -32.6065      2.00000
      5     -32.4478      2.00000
      6     -32.4477      2.00000
      7     -32.4474      2.00000
      8     -32.4474      2.00000
      9     -14.6907      2.00000
     10     -14.6903      2.00000
     11     -14.6841      2.00000
     12     -14.6838      2.00000
     13     -14.6642      2.00000
     14     -14.6621      2.00000
     15     -14.6519      2.00000
     16     -14.6511      2.00000
     17     -14.6497      2.00000
     18     -14.6476      2.00000
     19     -14.6360      2.00000
     20     -14.6352      2.00000
     21     -14.5347      2.00000
     22     -14.5307      2.00000
     23     -14.5284      2.00000
     24     -14.5242      2.00000
     25     -14.5030      2.00000
     26     -14.5003      2.00000
     27     -14.4960      2.00000
     28     -14.4953      2.00000
     29     -14.4943      2.00000
     30     -14.4941      2.00000
     31     -14.4927      2.00000
     32     -14.4919      2.00000
     33      -7.6877      2.00000
     34      -7.6299      2.00000
     35      -7.6021      2.00000
     36      -7.5992      2.00000
     37      -3.1672      2.00000
     38      -3.0942      2.00000
     39      -2.9340      2.00000
     40      -2.7338      2.00000
     41      -2.6239      2.00000
     42      -2.6144      2.00000
     43      -2.5997      2.00000
     44      -2.5734      2.00000
     45      -2.5669      2.00000
     46      -2.5595      2.00000
     47      -2.4880      2.00000
     48      -2.4859      2.00000
     49      -0.1903      2.00000
     50       0.1394      2.00000
     51       0.3621      2.00000
     52       0.4987      2.00000
     53       0.9878      2.00000
     54       1.1392      2.00000
     55       1.3801      2.00000
     56       1.3959      2.00000
     57       1.4137      2.00000
     58       1.4165      2.00000
     59       1.5522      2.00000
     60       1.6525      2.00000
     61       1.9088      2.00000
     62       1.9320      2.00000
     63       1.9925      2.00000
     64       2.0693      2.00000
     65       2.1298      2.00000
     66       2.1586      2.00000
     67       2.2300      2.00000
     68       2.3296      2.00000
     69       2.4879      2.00000
     70       2.5072      2.00000
     71       2.5091      2.00000
     72       2.6829      2.00000
     73       4.2307      0.00000
     74       4.3057      0.00000
     75       4.3273      0.00000
     76       4.5833      0.00000
     77       4.5975      0.00000
     78       4.6387      0.00000
     79       4.6691      0.00000
     80       4.8240      0.00000
     81       5.1944      0.00000
     82       5.2736      0.00000
     83       5.3933      0.00000
     84       5.5635      0.00000
     85       5.5934      0.00000
     86       5.7958      0.00000
     87       6.0063      0.00000
     88       6.1850      0.00000

 k-point     4 :       0.0000    0.1667    0.0000
  band No.  band energies     occupation 
      1     -32.6071      2.00000
      2     -32.6070      2.00000
      3     -32.6065      2.00000
      4     -32.6065      2.00000
      5     -32.4482      2.00000
      6     -32.4482      2.00000
      7     -32.4470      2.00000
      8     -32.4469      2.00000
      9     -14.6907      2.00000
     10     -14.6888      2.00000
     11     -14.6855      2.00000
     12     -14.6848      2.00000
     13     -14.6655      2.00000
     14     -14.6623      2.00000
     15     -14.6559      2.00000
     16     -14.6557      2.00000
     17     -14.6485      2.00000
     18     -14.6429      2.00000
     19     -14.6357      2.00000
     20     -14.6349      2.00000
     21     -14.5413      2.00000
     22     -14.5398      2.00000
     23     -14.5202      2.00000
     24     -14.5200      2.00000
     25     -14.5090      2.00000
     26     -14.5034      2.00000
     27     -14.4952      2.00000
     28     -14.4946      2.00000
     29     -14.4932      2.00000
     30     -14.4909      2.00000
     31     -14.4886      2.00000
     32     -14.4870      2.00000
     33      -7.7352      2.00000
     34      -7.6054      2.00000
     35      -7.6017      2.00000
     36      -7.5668      2.00000
     37      -3.1384      2.00000
     38      -3.0702      2.00000
     39      -2.7768      2.00000
     40      -2.7670      2.00000
     41      -2.7119      2.00000
     42      -2.7059      2.00000
     43      -2.6551      2.00000
     44      -2.6548      2.00000
     45      -2.5818      2.00000
     46      -2.5227      2.00000
     47      -2.5050      2.00000
     48      -2.2538      2.00000
     49      -0.4378      2.00000
     50       0.5233      2.00000
     51       0.5442      2.00000
     52       0.7079      2.00000
     53       0.8614      2.00000
     54       0.8953      2.00000
     55       1.1365      2.00000
     56       1.4067      2.00000
     57       1.5218      2.00000
     58       1.5715      2.00000
     59       1.5836      2.00000
     60       1.6363      2.00000
     61       1.6595      2.00000
     62       1.7436      2.00000
     63       1.8420      2.00000
     64       1.8504      2.00000
     65       1.8952      2.00000
     66       1.9479      2.00000
     67       2.1296      2.00000
     68       2.1365      2.00000
     69       2.3912      2.00000
     70       2.5281      2.00000
     71       2.8741      2.00000
     72       2.9884      2.00000
     73       4.0795      0.00000
     74       4.3040      0.00000
     75       4.6753      0.00000
     76       4.7756      0.00000
     77       4.8079      0.00000
     78       4.8979      0.00000
     79       4.9406      0.00000
[...]
     28     -12.9160      2.00000
     29     -12.9138      2.00000
     30     -12.9138      2.00000
     31     -12.9012      2.00000
     32     -12.9012      2.00000
     33      -6.7925      2.00000
     34      -6.7925      2.00000
     35      -6.7377      2.00000
     36      -6.7377      2.00000
     37      -2.5572      2.00000
     38      -2.5572      2.00000
     39      -2.1722      2.00000
     40      -2.1722      2.00000
     41      -1.9394      2.00000
     42      -1.9394      2.00000
     43      -1.8231      2.00000
     44      -1.8231      2.00000
     45      -1.6090      2.00000
     46      -1.6090      2.00000
     47      -1.5256      2.00000
     48      -1.5256      2.00000
     49       1.0460      2.00000
     50       1.0460      2.00000
     51       1.2787      2.00000
     52       1.2787      2.00000
     53       1.9020      2.00000
     54       1.9020      2.00000
     55       1.9500      2.00000
     56       1.9500      2.00000
     57       2.3406      2.00000
     58       2.3406      2.00000
     59       2.3945      2.00000
     60       2.3945      2.00000
     61       2.8620      2.00000
     62       2.8620      2.00000
     63       2.9010      2.00000
     64       2.9010      2.00000
     65       3.1255      2.00000
     66       3.1255      2.00000
     67       3.2123      2.00000
     68       3.2123      2.00000
     69       3.5361      2.00000
     70       3.5361      2.00000
     71       3.7484      2.00000
     72       3.7484      2.00000
     73       4.8186      0.00000
     74       4.8186      0.00000
     75       5.0556      0.00000
     76       5.0556      0.00000
     77       5.4733      0.00000
     78       5.4733      0.00000
     79       5.6319      0.00000
     80       5.6319      0.00000
     81       6.1576      0.00000
     82       6.1576      0.00000
     83       6.1796      0.00000
     84       6.1796      0.00000
     85       6.7455      0.00000
     86       6.7455      0.00000
     87       7.1674      0.00000
     88       7.1698      0.00000

 k-point    36 :       0.4000    0.5000    0.5000
  band No.  band energies     occupation 
      1     -31.0206      2.00000
      2     -31.0206      2.00000
      3     -31.0205      2.00000
      4     -31.0205      2.00000
      5     -30.7904      2.00000
      6     -30.7904      2.00000
      7     -30.7894      2.00000
      8     -30.7894      2.00000
      9     -13.1854      2.00000
     10     -13.1854      2.00000
     11     -13.1841      2.00000
     12     -13.1841      2.00000
     13     -13.1700      2.00000
     14     -13.1700      2.00000
     15     -13.1688      2.00000
     16     -13.1688      2.00000
     17     -13.1201      2.00000
     18     -13.1201      2.00000
     19     -13.1178      2.00000
     20     -13.1178      2.00000
     21     -12.9626      2.00000
     22     -12.9626      2.00000
     23     -12.9477      2.00000
     24     -12.9477      2.00000
     25     -12.9244      2.00000
     26     -12.9244      2.00000
     27     -12.9163      2.00000
     28     -12.9163      2.00000
     29     -12.9152      2.00000
     30     -12.9152      2.00000
     31     -12.9117      2.00000
     32     -12.9117      2.00000
     33      -6.7687      2.00000
     34      -6.7687      2.00000
     35      -6.7476      2.00000
     36      -6.7476      2.00000
     37      -2.5211      2.00000
     38      -2.5211      2.00000
     39      -2.3909      2.00000
     40      -2.3909      2.00000
     41      -1.8264      2.00000
     42      -1.8264      2.00000
     43      -1.7877      2.00000
     44      -1.7877      2.00000
     45      -1.6364      2.00000
     46      -1.6364      2.00000
     47      -1.5770      2.00000
     48      -1.5770      2.00000
     49       1.1587      2.00000
     50       1.1587      2.00000
     51       1.3634      2.00000
     52       1.3634      2.00000
     53       1.8671      2.00000
     54       1.8671      2.00000
     55       2.0537      2.00000
     56       2.0537      2.00000
     57       2.4582      2.00000
     58       2.4582      2.00000
     59       2.5294      2.00000
     60       2.5294      2.00000
     61       2.7134      2.00000
     62       2.7134      2.00000
     63       2.7913      2.00000
     64       2.7913      2.00000
     65       3.1657      2.00000
     66       3.1657      2.00000
     67       3.1836      2.00000
     68       3.1836      2.00000
     69       3.6320      2.00000
     70       3.6320      2.00000
     71       3.6595      2.00000
     72       3.6595      2.00000
     73       4.9324      0.00000
     74       4.9324      0.00000
     75       5.1448      0.00000
     76       5.1448      0.00000
     77       5.2921      0.00000
     78       5.2921      0.00000
     79       5.4371      0.00000
     80       5.4371      0.00000
     81       6.1236      0.00000
     82       6.1236      0.00000
     83       6.3774      0.00000
     84       6.3774      0.00000
     85       6.7128      0.00000
     86       6.7128      0.00000
     87       6.9207      0.00000
     88       6.9207      0.00000


--------------------------------------------------------------------------------------------------------


 soft charge-density along one line, spin component           1
         0         1         2         3         4         5         6         7         8         9
 total charge-density along one line
 
 pseudopotential strength for first ion, spin component:           1
-11.345  -7.564   0.000   0.002   0.001  -0.000  -0.000  -0.000
 -7.564  -5.754   0.000  -0.002  -0.001  -0.000   0.000   0.000
  0.000   0.000 -15.032   0.000   0.000   0.114  -0.000  -0.000
  0.002  -0.002   0.000 -15.034   0.002  -0.000   0.115  -0.000
  0.001  -0.001   0.000   0.002 -15.033  -0.000  -0.000   0.114
 -0.000  -0.000   0.114  -0.000  -0.000   0.037  -0.000  -0.000
 -0.000   0.000  -0.000   0.115  -0.000  -0.000   0.037  -0.000
 -0.000   0.000  -0.000  -0.000   0.114  -0.000  -0.000   0.037
  0.000   0.000  -0.000   0.000   0.000   0.000  -0.000  -0.000
  0.000   0.000  -0.000   0.000   0.000   0.000  -0.000  -0.000
 -0.000  -0.000  -0.000   0.000   0.000   0.000   0.000   0.000
  0.001   0.001   0.000   0.000   0.000  -0.000   0.000   0.000
 -0.000  -0.000  -0.000   0.000   0.000   0.000  -0.000   0.000
  0.000   0.000  -0.000   0.000   0.000   0.000   0.000   0.000
  0.000   0.000  -0.000   0.000   0.000  -0.000   0.000   0.000
 -0.000  -0.000  -0.000  -0.000   0.000  -0.000  -0.000  -0.000
  0.000   0.000   0.000  -0.000  -0.000   0.000  -0.000  -0.000
 -0.000  -0.000  -0.000   0.000  -0.000  -0.000   0.000  -0.000
 total augmentation occupancy for first ion, spin component:           1
  2.144  -0.321   0.000  -0.006  -0.004   0.000   0.021   0.011   0.000  -0.000   0.002  -0.010  -0.001   0.000   0.000  -0.005
 -0.321   0.703   0.000   0.014   0.009   0.000  -0.042  -0.015   0.000   0.000  -0.004   0.019   0.002   0.000  -0.000   0.012
  0.000   0.000   2.016  -0.000   0.000   0.071  -0.000   0.000  -0.009  -0.003   0.000   0.000   0.000   0.021   0.011   0.000
 -0.006   0.014  -0.000   2.014   0.002  -0.000   0.077  -0.007   0.000   0.000   0.004   0.019   0.004   0.000   0.000   0.006
 -0.004   0.009   0.000   0.002   2.015   0.000  -0.007   0.073  -0.000  -0.000   0.010   0.006   0.011   0.000   0.000  -0.023
 -0.000   0.000   0.071   0.000   0.000   0.323   0.000   0.000   0.029   0.019  -0.000  -0.000   0.000  -0.082  -0.060  -0.000
  0.021  -0.042  -0.000   0.077  -0.007  -0.000   0.315   0.013  -0.000  -0.000  -0.007  -0.047  -0.017   0.000   0.000   0.026
  0.011  -0.015   0.000  -0.007   0.073   0.000   0.013   0.325  -0.000  -0.000  -0.030  -0.017  -0.026  -0.000  -0.000   0.095
 -0.000  -0.000  -0.009   0.000   0.000   0.029   0.000   0.000   0.120  -0.044   0.000  -0.000   0.000  -0.374   0.136  -0.000
  0.000   0.000  -0.003  -0.000   0.000   0.019   0.000   0.000  -0.044   0.079   0.000   0.000  -0.000   0.136  -0.245   0.000
  0.002  -0.004  -0.000   0.004   0.010   0.000  -0.007  -0.030  -0.000  -0.000   0.103   0.030   0.012   0.000  -0.000  -0.323
 -0.010   0.019  -0.000   0.019   0.006  -0.000  -0.047  -0.017  -0.000  -0.000   0.030   0.113   0.028   0.000   0.000  -0.097
 -0.001   0.002   0.000   0.004   0.011  -0.000  -0.017  -0.026   0.000  -0.000   0.012   0.028   0.083   0.000   0.000  -0.031
  0.000  -0.000   0.021   0.000   0.000  -0.082  -0.000   0.000  -0.374   0.136   0.000  -0.000   0.000   1.233  -0.453  -0.000
  0.000  -0.000   0.011  -0.000  -0.000  -0.060   0.000  -0.000   0.136  -0.245   0.000   0.000   0.000  -0.453   0.793  -0.000
 -0.005   0.012  -0.000   0.006  -0.023   0.000   0.026   0.095   0.000   0.000  -0.323  -0.097  -0.031  -0.000   0.000   1.063
  0.017  -0.043  -0.000  -0.040  -0.001   0.000   0.150   0.040  -0.000   0.000  -0.097  -0.349  -0.084   0.000   0.000   0.340
  0.008  -0.021   0.000  -0.005  -0.022   0.000   0.046   0.072   0.000  -0.000  -0.031  -0.084  -0.257   0.000   0.000   0.089


------------------------ aborting loop because EDIFF is reached ----------------------------------------


    CHARGE:  cpu time    0.0789: real time    0.0791
    FORLOC:  cpu time    0.0038: real time    0.0038
    FORNL :  cpu time    0.4696: real time    0.4707
    STRESS:  cpu time    1.3921: real time    1.3954
    FORCOR:  cpu time    0.0251: real time    0.0251
    FORHAR:  cpu time    0.0081: real time    0.0081
    MIXING:  cpu time    0.0027: real time    0.0027
    OFIELD:  cpu time    0.0000: real time    0.0000

 ---------------------------------------------------------------------------------------------

         DFTD3 V3.0 Rev 1        
 Edisp (eV)   -4.29721

 E6    (eV) :    -1.7989
 E8    (eV) :    -2.4983
 % E8        : 58.14
    FORVDW:  cpu time    0.0828: real time    0.1243

  FORCE on cell =-STRESS in cart. coord.  units (eV):
  Direction    XX          YY          ZZ          XY          YZ          ZX
  --------------------------------------------------------------------------------------
  Alpha Z   389.04001   389.04001   389.04001
  Ewald   -2269.27278 -2248.08456 -2244.27121    -0.00000    -0.00000    -0.00013
  Hartree   491.52345   510.05874   505.01452    -0.00000    -0.00000    -0.00000
  E(xc)    -499.98332  -499.87158  -499.82575    -0.00000    -0.00000    -0.00000
  Local     187.36891   153.21406   156.02521     0.00000     0.00000     0.00010
  n-local   232.51368   228.53562   229.39652    -0.12593    -0.14793    -0.13371
  augment   -70.02845   -68.85920   -69.14513     0.00000    -0.00000    -0.00000
  Kinetic  1542.33436  1539.96374  1537.37544     1.14279    -1.24704     0.24106
  Fock        0.00000     0.00000     0.00000     0.00000     0.00000     0.00000
  vdW        -4.15858    -4.24206    -4.26966     0.00000    -0.00000     0.00000
  -------------------------------------------------------------------------------------
  Total      -0.66272    -0.24523    -0.66004     0.00000     0.00000     0.00000
  in kB      -1.75486    -0.64935    -1.74776     0.00000     0.00000     0.00000
  external pressure =       -1.38 kB  Pullay stress =        0.00 kB


 VOLUME and BASIS-vectors are now :
 -----------------------------------------------------------------------------
  energy-cutoff  :      500.00
  volume of cell :      605.06
      direct lattice vectors                 reciprocal lattice vectors
     8.573760898  0.000000000  0.000000000     0.116634930 -0.000000000  0.000000000
     0.000000000  6.413545305  0.000000000    -0.000000000  0.155920002  0.000000000
     0.000000000  0.000000000 11.003438451     0.000000000  0.000000000  0.090880683

  length of vectors
     8.573760898  6.413545305 11.003438451     0.116634930  0.155920002  0.090880683


 FORCES acting on ions
    electron-ion (+dipol)            ewald-force                    non-local-force                 convergence-correction
 -----------------------------------------------------------------------------------------------
   0.231E+01 0.953E-04 0.565E+01   -.268E+01 0.153E-04 -.607E+01   0.417E+00 -.109E-17 0.485E+00   0.710E-03 -.169E-07 -.404E-03
   -.231E+01 0.131E-04 -.565E+01   0.268E+01 -.216E-04 0.607E+01   -.417E+00 -.128E-17 -.485E+00   -.710E-03 -.415E-08 0.404E-03
   -.231E+01 0.767E-05 0.565E+01   0.268E+01 -.216E-04 -.607E+01   -.417E+00 0.772E-18 0.485E+00   -.710E-03 -.374E-08 -.405E-03
   0.231E+01 0.899E-04 -.565E+01   -.268E+01 0.153E-04 0.607E+01   0.417E+00 0.826E-19 -.485E+00   0.710E-03 -.165E-07 0.405E-03
   -.228E+02 0.112E-04 -.527E+01   0.219E+02 -.196E-04 0.543E+01   0.855E+00 -.107E-17 -.153E+00   0.223E-03 -.272E-08 -.715E-03
   0.228E+02 0.925E-04 0.527E+01   -.219E+02 0.187E-04 -.543E+01   -.855E+00 0.673E-18 0.153E+00   -.223E-03 -.149E-07 0.715E-03
   0.228E+02 0.912E-04 -.527E+01   -.219E+02 0.187E-04 0.543E+01   -.855E+00 -.327E-18 -.153E+00   -.223E-03 -.135E-07 -.715E-03
   -.228E+02 0.998E-05 0.527E+01   0.219E+02 -.196E-04 -.543E+01   0.855E+00 0.123E-18 0.153E+00   0.223E-03 -.132E-08 0.715E-03
   0.832E+01 0.250E+02 -.140E+02   -.876E+01 -.261E+02 0.147E+02   0.477E+00 0.114E+01 -.731E+00   0.571E-03 0.114E-02 -.431E-03
   -.832E+01 -.250E+02 0.140E+02   0.876E+01 0.261E+02 -.147E+02   -.477E+00 -.114E+01 0.731E+00   -.571E-03 -.114E-02 0.431E-03
   -.832E+01 -.250E+02 -.140E+02   0.876E+01 0.261E+02 0.147E+02   -.477E+00 -.114E+01 -.731E+00   -.571E-03 -.114E-02 -.431E-03
   0.832E+01 0.250E+02 0.140E+02   -.876E+01 -.261E+02 -.147E+02   0.477E+00 0.114E+01 0.731E+00   0.571E-03 0.114E-02 0.431E-03
   -.832E+01 0.250E+02 0.140E+02   0.876E+01 -.261E+02 -.147E+02   -.477E+00 0.114E+01 0.731E+00   -.571E-03 0.114E-02 0.431E-03
   0.832E+01 -.250E+02 -.140E+02   -.876E+01 0.261E+02 0.147E+02   0.477E+00 -.114E+01 -.731E+00   0.571E-03 -.114E-02 -.431E-03
   0.832E+01 -.250E+02 0.140E+02   -.876E+01 0.261E+02 -.147E+02   0.477E+00 -.114E+01 0.731E+00   0.571E-03 -.114E-02 0.431E-03
   -.832E+01 0.250E+02 -.140E+02   0.876E+01 -.261E+02 0.147E+02   -.477E+00 0.114E+01 -.731E+00   -.571E-03 0.114E-02 -.431E-03
   0.388E+02 -.108E-04 0.641E+00   -.405E+02 -.875E-05 -.159E+01   0.171E+01 -.299E-18 0.979E+00   0.873E-03 0.103E-08 -.482E-05
   -.388E+02 -.309E-05 -.641E+00   0.405E+02 0.892E-05 0.159E+01   -.171E+01 -.162E-18 -.979E+00   -.873E-03 0.960E-09 0.481E-05
   -.388E+02 0.742E-05 0.641E+00   0.405E+02 0.892E-05 -.159E+01   -.171E+01 0.112E-17 0.979E+00   -.873E-03 0.122E-08 -.482E-05
   0.388E+02 -.259E-06 -.641E+00   -.405E+02 -.875E-05 0.159E+01   0.171E+01 -.277E-18 -.979E+00   0.873E-03 0.129E-08 0.482E-05
   0.623E+01 -.508E-05 0.288E+02   -.599E+01 0.959E-05 -.302E+02   -.268E+00 0.112E-17 0.126E+01   0.654E-03 0.848E-09 0.118E-02
   -.623E+01 -.116E-04 -.288E+02   0.599E+01 -.101E-04 0.302E+02   0.268E+00 0.558E-18 -.126E+01   -.654E-03 0.990E-09 -.118E-02
   -.623E+01 0.411E-06 0.288E+02   0.599E+01 -.101E-04 -.302E+02   0.268E+00 -.304E-17 0.126E+01   -.654E-03 0.111E-09 0.118E-02
   0.623E+01 0.695E-05 -.288E+02   -.599E+01 0.959E-05 0.302E+02   -.268E+00 -.292E-17 -.126E+01   0.654E-03 -.296E-10 -.118E-02
 -----------------------------------------------------------------------------------------------
   -.331E-03 0.458E-03 0.472E-04   0.275E-13 0.295E-13 0.355E-14   -.555E-16 -.226E-15 0.000E+00   0.526E-07 -.670E-07 0.917E-09
 
 
 POSITION                                       TOTAL-FORCE (eV/Angst)
 -----------------------------------------------------------------------------------
      0.12738      1.60339      7.61373         0.054661      0.000000      0.038883
      8.44638      4.81016      3.38971        -0.054661     -0.000000     -0.038883
      4.15950      4.81016      2.11201        -0.054661     -0.000000      0.038883
      4.41426      1.60339      8.89142         0.054661      0.000000     -0.038883
      1.35333      4.81016      9.97511        -0.002765     -0.000000     -0.010332
      7.22043      1.60339      1.02832         0.002765      0.000000      0.010332
      2.93355      1.60339      4.47340         0.002765     -0.000000     -0.010332
      5.64021      4.81016      6.53004        -0.002765     -0.000000      0.010332
      1.64892      0.40337      1.64120         0.050433      0.014749     -0.053572
      6.92485      6.01017      9.36224        -0.050433     -0.014749      0.053572
      2.63797      6.01017      7.14292        -0.050433     -0.014749     -0.053572
      5.93580      0.40337      3.86052         0.050433      0.014749      0.053572
      6.92485      3.61015      9.36224        -0.050433      0.014749      0.053572
      1.64892      2.80340      1.64120         0.050433     -0.014749     -0.053572
      5.93580      2.80340      3.86052         0.050433     -0.014749      0.053572
      2.63797      3.61015      7.14292        -0.050433      0.014749     -0.053572
      0.64292      4.81016      6.50431        -0.037312     -0.000000      0.022624
      7.93084      1.60339      4.49913         0.037312      0.000000     -0.022624
      3.64396      1.60339      1.00259         0.037312      0.000000      0.022624
      4.92980      4.81016     10.00085        -0.037312     -0.000000     -0.022624
      1.68319      1.60339     10.56723        -0.007131     -0.000000     -0.030746
      6.89057      4.81016      0.43621         0.007131     -0.000000      0.030746
      2.60369      4.81016      5.06551         0.007131      0.000000     -0.030746
      5.97007      1.60339      5.93793        -0.007131      0.000000      0.030746
 -----------------------------------------------------------------------------------
    total drift:                               -0.000331      0.000458      0.000047


--------------------------------------------------------------------------------------------------------



  FREE ENERGIE OF THE ION-ELECTRON SYSTEM (eV)
  ---------------------------------------------------
  free  energy   TOTEN  =      -112.40448862 eV

  energy  without entropy=     -112.40448862  energy(sigma->0) =     -112.40448862
 
 d Force =-0.4661871E-03[-0.494E-03,-0.438E-03]  d Energy = 0.1019126E-03-0.568E-03
 d Force =-0.9939293E-02[-0.101E-01,-0.978E-02]  d Ewald  = 0.2127367E+01-0.214E+01


--------------------------------------------------------------------------------------------------------


    POTLOK:  cpu time    0.0310: real time    0.0311


--------------------------------------------------------------------------------------------------------




--------------------------------------------------------------------------------------------------------


  
 reached required accuracy - stopping structural energy minimisation
 writing wavefunctions
     LOOP+:  cpu time   19.8731: real time   20.4126
    4ORBIT:  cpu time    0.0000: real time    0.0000
 BZINTS: Fermi energy:  4.258733;144.000000 electrons
         Band energy:***********;  BLOECHL correction:  0.000000

 total amount of memory used by VASP MPI-rank0    67906. kBytes
=======================================================================

   base      :      30000. kBytes
   nonlr-proj:       2714. kBytes
   fftplans  :       2347. kBytes
   grid      :       3658. kBytes
   one-center:         93. kBytes
   wavefun   :      29094. kBytes
 
  
  
 General timing and accounting informations for this job:
 ========================================================
  
                  Total CPU time used (sec):      256.366
                            User time (sec):      254.610
                          System time (sec):        1.756
                         Elapsed time (sec):      260.944
  
                   Maximum memory used (kb):      172232.
                   Average memory used (kb):           0.
  
                          Minor page faults:        35266
                          Major page faults:          223
                 Voluntary context switches:        18417
