 vasp.5.4.4.18Apr17-6-g9f103f2a35 (build Nov 21 2017 15:30:27) complex          
  
 executed on             LinuxIFC date 2020.11.09  11:51:34
 running on   64 total cores
 distrk:  each k-point on   32 cores,    2 groups
 distr:  one band on NCORES_PER_BAND=   4 cores,    8 groups


--------------------------------------------------------------------------------------------------------


 INCAR:
 POTCAR:   PAW_PBE Ba_sv 06Sep2000                
 POTCAR:   PAW_PBE Si 05Jan2001                   

 ----------------------------------------------------------------------------- 
|                                                                             |
|           W    W    AA    RRRRR   N    N  II  N    N   GGGG   !!!           |
|           W    W   A  A   R    R  NN   N  II  NN   N  G    G  !!!           |
|           W    W  A    A  R    R  N N  N  II  N N  N  G       !!!           |
|           W WW W  AAAAAA  RRRRR   N  N N  II  N  N N  G  GGG   !            |
|           WW  WW  A    A  R   R   N   NN  II  N   NN  G    G                |
|           W    W  A    A  R    R  N    N  II  N    N   GGGG   !!!           |
|                                                                             |
|      You have enabled k-point parallelism (KPAR>1).                         |
|      This developmental code was originally  written by Paul Kent at ORNL,  |
|      and carefully double checked in Vienna.                                |
|      GW as well as linear response parallelism added by Martijn Marsman     |
|      and Georg Kresse.                                                      |
|      Carefully verify results versus KPAR=1.                                |
|      Report problems to Paul Kent and Vienna.                               |
|                                                                             |
 ----------------------------------------------------------------------------- 


 ----------------------------------------------------------------------------- 
|                                                                             |
|  ADVICE TO THIS USER RUNNING 'VASP/VAMP'   (HEAR YOUR MASTER'S VOICE ...):  |
|                                                                             |
|      You have switched on vdW-DFT.                                          |
|      This routine was written and supplied by Jiri Klimes.                  |
|      We recommed that you carefully read and cite the following             |
|      publication                                                            |
|      J. Klimes, D.R. Bowler, A. Michelides                                  |
|        J. Phys.: Cond Matt. 22 022201 (2010)                                |
|      J. Klimes, D.R. Bowler, A. Michelides                                  |
|        Phys. Rev. B. 83, 195131 (2011)                                      |
|      and references therein.                                                |
|                                                                             |
 ----------------------------------------------------------------------------- 

 POTCAR:   PAW_PBE Ba_sv 06Sep2000                
   VRHFIN =Ba: 5s5p6s                                                           
   LEXCH  = PE                                                                  
   EATOM  =   700.2255 eV,   51.4651 Ry                                         
                                                                                
   TITEL  = PAW_PBE Ba_sv 06Sep2000                                             
   LULTRA =        F    use ultrasoft PP ?                                      
   IUNSCR =        1    unscreen: 0-lin 1-nonlin 2-no                           
   RPACOR =    2.400    partial core radius                                     
   POMASS =  137.327; ZVAL   =   10.000    mass and valenz                      
   RCORE  =    2.800    outmost cutoff radius                                   
   RWIGS  =    3.740; RWIGS  =    1.979    wigner-seitz radius (au A)           
   ENMAX  =  187.210; ENMIN  =  140.408 eV                                      
   RCLOC  =    2.516    cutoff for local pot                                    
   LCOR   =        T    correct aug charges                                     
   LPAW   =        T    paw PP                                                  
   EAUG   =  351.165                                                            
   DEXC   =     .000                                                            
   RMAX   =    3.370    core radius for proj-oper                               
   RAUG   =    1.300    factor for augmentation sphere                          
   RDEP   =    2.976    radius for radial grids                                 
   QCUT   =   -3.709; QGAM   =    7.419    optimization parameters              
                                                                                
   Description                                                                  
     l     E      TYP  RCUT    TYP  RCUT                                        
     0   .000     23  2.800                                                     
     0   .000     23  2.800                                                     
     1   .000     23  2.700                                                     
     1  2.000     23  2.700                                                     
     2   .000     23  2.700                                                     
     2   .000     23  2.700                                                     
  local pseudopotential read in
  partial core-charges read in
  atomic valenz-charges read in
  non local Contribution for L=           0  read in
    real space projection operators read in
  non local Contribution for L=           0  read in
    real space projection operators read in
  non local Contribution for L=           1  read in
    real space projection operators read in
  non local Contribution for L=           1  read in
    real space projection operators read in
  non local Contribution for L=           2  read in
    real space projection operators read in
  non local Contribution for L=           2  read in
    real space projection operators read in
    PAW grid and wavefunctions read in
 
   number of l-projection  operators is LMAX  =           6
   number of lm-projection operators is LMMAX =          18
 
 POTCAR:   PAW_PBE Si 05Jan2001                   
   VRHFIN =Si: s2p2                                                             
   LEXCH  = PE                                                                  
   EATOM  =   103.0669 eV,    7.5752 Ry                                         
                                                                                
   TITEL  = PAW_PBE Si 05Jan2001                                                
   LULTRA =        F    use ultrasoft PP ?                                      
   IUNSCR =        1    unscreen: 0-lin 1-nonlin 2-no                           
   RPACOR =    1.500    partial core radius                                     
   POMASS =   28.085; ZVAL   =    4.000    mass and valenz                      
   RCORE  =    1.900    outmost cutoff radius                                   
   RWIGS  =    2.480; RWIGS  =    1.312    wigner-seitz radius (au A)           
   ENMAX  =  245.345; ENMIN  =  184.009 eV                                      
   ICORE  =        2    local potential                                         
   LCOR   =        T    correct aug charges                                     
   LPAW   =        T    paw PP                                                  
   EAUG   =  322.069                                                            
   DEXC   =    -.007                                                            
   RMAX   =    2.944    core radius for proj-oper                               
   RAUG   =    1.300    factor for augmentation sphere                          
   RDEP   =    1.993    radius for radial grids                                 
   QCUT   =   -4.246; QGAM   =    8.493    optimization parameters              
                                                                                
   Description                                                                  
     l     E      TYP  RCUT    TYP  RCUT                                        
     0   .000     23  1.900                                                     
     0   .000     23  1.900                                                     
     1   .000     23  1.900                                                     
     1   .000     23  1.900                                                     
     2   .000      7  1.900                                                     
  local pseudopotential read in
  partial core-charges read in
  atomic valenz-charges read in
  non local Contribution for L=           0  read in
    real space projection operators read in
  non local Contribution for L=           0  read in
    real space projection operators read in
  non local Contribution for L=           1  read in
    real space projection operators read in
  non local Contribution for L=           1  read in
    real space projection operators read in
    PAW grid and wavefunctions read in
 
   number of l-projection  operators is LMAX  =           4
   number of lm-projection operators is LMMAX =           8
 
 Optimization of the real space projectors (new method)

 maximal supplied QI-value         = 13.42
 optimisation between [QCUT,QGAM] = [ 11.40, 22.81] = [ 36.42,145.68] Ry 
 Optimized for a Real-space Cutoff    1.56 Angstroem

   l    n(q)    QCUT    max X(q) W(low)/X(q) W(high)/X(q)  e(spline) 
   0     11    11.404     7.198    0.14E-04    0.26E-04    0.99E-07
   0     11    11.404    15.603    0.29E-04    0.72E-04    0.44E-06
   1     10    11.404     3.746    0.20E-04    0.24E-04    0.43E-07
   1     10    11.404     4.362    0.22E-03    0.97E-04    0.22E-06
   2     10    11.404     5.782    0.83E-04    0.62E-05    0.27E-06
   2     10    11.404    65.505    0.42E-03    0.31E-04    0.12E-05
 Optimization of the real space projectors (new method)

 maximal supplied QI-value         = 19.84
 optimisation between [QCUT,QGAM] = [ 11.31, 22.82] = [ 35.82,145.81] Ry 
 Optimized for a Real-space Cutoff    1.16 Angstroem

   l    n(q)    QCUT    max X(q) W(low)/X(q) W(high)/X(q)  e(spline) 
   0      8    11.310     8.708    0.14E-04    0.11E-04    0.43E-08
   0      8    11.310   106.241    0.27E-03    0.30E-03    0.38E-07
   1      7    11.310     5.901    0.82E-05    0.48E-04    0.19E-07
   1      7    11.310    73.241    0.27E-03    0.27E-03    0.74E-07

 ----------------------------------------------------------------------------- 
|                                                                             |
|  ADVICE TO THIS USER RUNNING 'VASP/VAMP'   (HEAR YOUR MASTER'S VOICE ...):  |
|                                                                             |
|      You enforced a specific xc-type in the INCAR file,                     |
|      a different type was found on the POTCAR file                          |
|          I HOPE YOU KNOW, WHAT YOU ARE  DOING                               |
|                                                                             |
 ----------------------------------------------------------------------------- 

 PAW_PBE Ba_sv 06Sep2000                :
 energy of atom  1       EATOM= -700.2255
 kinetic energy error for atom=    0.0005 (will be added to EATOM!!)
 PAW_PBE Si 05Jan2001                   :
 energy of atom  2       EATOM= -103.0669
 kinetic energy error for atom=    0.0006 (will be added to EATOM!!)
 
 
 POSCAR: ba8 si16                                
  positions in direct lattice
  velocities in cartesian coordinates
 exchange correlation table for  LEXCH =       43
   RHO(1)=    0.500       N(1)  =     2000
   RHO(2)=  100.500       N(2)  =     4000
 


--------------------------------------------------------------------------------------------------------


 ion  position               nearest neighbor table
   1  0.010  0.269  0.715-  21 3.23  16 3.33  11 3.33  17 3.43  17 3.43   5 4.46   5 4.46   7 4.49
                             4 4.66
   2  0.365  0.767  0.316-  22 3.23  15 3.33  12 3.33  18 3.43  18 3.43   6 4.46   6 4.46   8 4.49
                             3 4.66
   3  0.177  0.768  0.209-  20 3.33  12 3.41  15 3.42  14 3.46   9 3.46  23 3.54  19 3.58  19 3.58
                            22 3.69   5 3.82   7 4.13   7 4.13   6 4.40   6 4.40   2 4.66
   4  0.198  0.268  0.822-  19 3.33  11 3.41  16 3.42  13 3.46  10 3.46  24 3.54  20 3.58  20 3.58
                            21 3.69   6 3.82   8 4.13   8 4.13   5 4.40   5 4.40   1 4.66
   5  0.086  0.769  0.930-  21 3.36  21 3.36  16 3.37  11 3.38  20 3.40   9 3.40  14 3.41  17 3.65
                             3 3.82   4 4.40   4 4.40   1 4.46   1 4.46
   6  0.289  0.268  0.101-  22 3.36  22 3.36  15 3.37  12 3.38  19 3.40  10 3.40  13 3.41  18 3.65
                             4 3.82   3 4.40   3 4.40   2 4.46   2 4.46
   7  0.130  0.268  0.410-  15 3.35  12 3.35  14 3.40   9 3.40  23 3.44  23 3.44  11 3.48  16 3.49
                            19 3.54  24 3.91   3 4.13   3 4.13   1 4.49
   8  0.245  0.768  0.622-  16 3.35  11 3.35  13 3.40  10 3.40  24 3.44  24 3.44  12 3.48  15 3.49
                            20 3.54  23 3.91   4 4.13   4 4.13   2 4.49
   9  0.064  0.085  0.166-  14 2.40  21 2.41  19 2.47   7 3.40   5 3.40   3 3.46
  10  0.312  0.952  0.866-  13 2.40  22 2.41  20 2.47   8 3.40   6 3.40   4 3.46
  11  0.115  0.952  0.657-  16 2.40  23 2.43  17 2.43   1 3.33   8 3.35   5 3.38   4 3.41   7 3.48

  12  0.260  0.084  0.375-  15 2.40  24 2.43  18 2.43   2 3.33   7 3.35   6 3.38   3 3.41   8 3.48

  13  0.312  0.584  0.865-  10 2.40  22 2.41  20 2.47   8 3.40   6 3.41   4 3.46
  14  0.064  0.452  0.166-   9 2.40  21 2.41  19 2.47   7 3.40   5 3.41   3 3.46
  15  0.260  0.451  0.374-  12 2.40  24 2.43  18 2.43   2 3.33   7 3.35   6 3.37   3 3.42   8 3.49

  16  0.116  0.586  0.657-  11 2.40  23 2.43  17 2.43   1 3.33   8 3.35   5 3.37   4 3.42   7 3.49

  17  0.028  0.769  0.631-  23 2.43  11 2.43  16 2.43   1 3.43   1 3.43   5 3.65
  18  0.347  0.267  0.401-  24 2.43  12 2.43  15 2.43   2 3.43   2 3.43   6 3.65
  19  0.147  0.269  0.097-  21 2.42  14 2.47   9 2.47   4 3.33   6 3.40   7 3.54   3 3.58   3 3.58

  20  0.228  0.768  0.934-  22 2.42  13 2.47  10 2.47   3 3.33   5 3.40   8 3.54   4 3.58   4 3.58

  21  0.063  0.269  0.980-  14 2.41   9 2.41  19 2.42   1 3.23   5 3.36   5 3.36   4 3.69
  22  0.312  0.768  0.052-  13 2.41  10 2.41  20 2.42   2 3.23   6 3.36   6 3.36   3 3.69
  23  0.097  0.768  0.474-  16 2.43  17 2.43  11 2.43   7 3.44   7 3.44   3 3.54   8 3.91
  24  0.278  0.268  0.558-  15 2.43  18 2.43  12 2.43   8 3.44   8 3.44   4 3.54   7 3.91
 
  LATTYP: Found a simple orthorhombic cell.
 ALAT       =     6.5403619403
 B/A-ratio  =     1.7198445489
 C/A-ratio  =     3.6709693283
  
  Lattice vectors:
  
 A1 = (   0.0000000000,   6.5403619403,   0.0000000000)
 A2 = (   0.0000000000,   0.0000000000, -11.2484058311)
 A3 = ( -24.0094680786,   0.0000000000,   0.0000000000)


Analysis of symmetry for initial positions (statically):
=====================================================================
 Subroutine PRICEL returns:
 Original cell was already a primitive cell.
 

 Routine SETGRP: Setting up the symmetry group for a 
 simple orthorhombic supercell.


 Subroutine GETGRP returns: Found  2 space group operations
 (whereof  1 operations were pure point group operations)
 out of a pool of  8 trial point group operations.


The static configuration has the point symmetry C_1 .
 The point group associated with its full space group is S_2 .


Analysis of symmetry for dynamics (positions and initial velocities):
=====================================================================
 Subroutine PRICEL returns:
 Original cell was already a primitive cell.
 

 Routine SETGRP: Setting up the symmetry group for a 
 simple orthorhombic supercell.


 Subroutine GETGRP returns: Found  2 space group operations
 (whereof  1 operations were pure point group operations)
 out of a pool of  8 trial point group operations.


The dynamic configuration has the point symmetry C_1 .
 The point group associated with its full space group is S_2 .


 Subroutine INISYM returns: Found  2 space group operations
 (whereof  1 operations are pure point group operations),
 and found     1 'primitive' translations

 
 
 KPOINTS: k-points along high symmetry lines      
  interpolating k-points between supplied coordinates
  k-points in reciprocal lattice
Space group operators:
 irot       det(A)        alpha          n_x          n_y          n_z        tau_x        tau_y        tau_z
    1     1.000000     0.000000     1.000000     0.000000     0.000000     0.000000     0.000000     0.000000
    2    -1.000000     0.000000     1.000000     0.000000     0.000000    -0.624754     0.036311    -0.968552


--------------------------------------------------------------------------------------------------------




 Dimension of arrays:
   k-points           NKPTS =     80   k-points in BZ     NKDIM =     80   number of bands    NBANDS=     88
   number of dos      NEDOS =    301   number of ions     NIONS =     24
   non local maximal  LDIM  =      6   non local SUM 2l+1 LMDIM =     18
   total plane-waves  NPLWV = 322560
   max r-space proj   IRMAX =   2977   max aug-charges    IRDMAX=  11629
   dimension x,y,z NGX =   140 NGY =   36 NGZ =   64
   dimension x,y,z NGXF=   280 NGYF=   72 NGZF=  128
   support grid    NGXF=   280 NGYF=   72 NGZF=  128
   ions per type =               8  16
   NGX,Y,Z   is equivalent  to a cutoff of   9.69,  9.15,  9.46 a.u.
   NGXF,Y,Z  is equivalent  to a cutoff of  19.39, 18.30, 18.92 a.u.

 SYSTEM =  unknown system                          
 POSCAR =  ba8 si16                                

 Startparameter for this run:
   NWRITE =      2    write-flag & timer
   PREC   = normal    normal or accurate (medium, high low for compatibility)
   ISTART =      0    job   : 0-new  1-cont  2-samecut
   ICHARG =     11    charge: 1-file 2-atom 10-const
   ISPIN  =      1    spin polarized calculation?
   LNONCOLLINEAR =      F non collinear calculations
   LSORBIT =      F    spin-orbit coupling
   INIWAV =      1    electr: 0-lowe 1-rand  2-diag
   LASPH  =      T    aspherical Exc in radial PAW
   METAGGA=      F    non-selfconsistent MetaGGA calc.

 Electronic Relaxation 1
   ENCUT  =  500.0 eV  36.75 Ry    6.06 a.u.  43.77 11.92 20.51*2*pi/ulx,y,z
   ENINI  =  500.0     initial cutoff
   ENAUG  =  351.2 eV  augmentation charge cutoff
   NELM   =    100;   NELMIN=  2; NELMDL= -5     # of ELM steps 
   EDIFF  = 0.1E-05   stopping-criterion for ELM
   LREAL  =      T    real-space projection
   NLSPLINE    = F    spline interpolate recip. space projectors
   LCOMPAT=      F    compatible to vasp.4.4
   GGA_COMPAT  = T    GGA compatible to vasp.4.4-vasp.4.6
   LMAXPAW     = -100 max onsite density
   LMAXMIX     =    2 max onsite mixed and CHGCAR
   VOSKOWN=      0    Vosko Wilk Nusair interpolation
   ROPT   =   -0.00050  -0.00050
 Ionic relaxation
   EDIFFG = -.1E-01   stopping-criterion for IOM
   NSW    =      0    number of steps for IOM
   NBLOCK =      1;   KBLOCK =      1    inner block; outer block 
   IBRION =     -1    ionic relax: 0-MD 1-quasi-New 2-CG
   NFREE  =      0    steps in history (QN), initial steepest desc. (CG)
   ISIF   =      2    stress and relaxation
   IWAVPR =     10    prediction:  0-non 1-charg 2-wave 3-comb
   ISYM   =      2    0-nonsym 1-usesym 2-fastsym
   LCORR  =      T    Harris-Foulkes like correction to forces

   POTIM  = 0.3000    time-step for ionic-motion
   TEIN   =    0.0    initial temperature
   TEBEG  =    0.0;   TEEND  =   0.0 temperature during run
   SMASS  =  -3.00    Nose mass-parameter (am)
   estimated Nose-frequenzy (Omega)   =  0.10E-29 period in steps =****** mass=  -0.132E-25a.u.
   SCALEE = 1.0000    scale energy and forces
   NPACO  =    256;   APACO  = 16.0  distance and # of slots for P.C.
   PSTRESS=    0.0 pullay stress

  Mass of Ions in am
   POMASS = 137.33 28.09
  Ionic Valenz
   ZVAL   =  10.00  4.00
  Atomic Wigner-Seitz radii
   RWIGS  =  -1.00 -1.00
  virtual crystal weights 
   VCA    =   1.00  1.00
   NELECT =     144.0000    total number of electrons
   NUPDOWN=      -1.0000    fix difference up-down

 DOS related values:
   EMIN   =  10.00;   EMAX   =-10.00  energy-range for DOS
   EFERMI =   0.00
   ISMEAR =     0;   SIGMA  =   0.01  broadening in eV -4-tet -1-fermi 0-gaus

 Electronic relaxation 2 (details)
   IALGO  =     38    algorithm
   LDIAG  =      T    sub-space diagonalisation (order eigenvalues)
   LSUBROT=      F    optimize rotation matrix (better conditioning)
   TURBO    =      0    0=normal 1=particle mesh
   IRESTART =      0    0=no restart 2=restart with 2 vectors
   NREBOOT  =      0    no. of reboots
   NMIN     =      0    reboot dimension
   EREF     =   0.00    reference energy to select bands
   IMIX   =      4    mixing-type and parameters
     AMIX     =   0.40;   BMIX     =  1.00
     AMIX_MAG =   1.60;   BMIX_MAG =  1.00
     AMIN     =   0.10
     WC   =   100.;   INIMIX=   1;  MIXPRE=   1;  MAXMIX= -45

 Intra band minimization:
   WEIMIN = 0.0000     energy-eigenvalue tresh-hold
   EBREAK =  0.28E-08  absolut break condition
   DEPER  =   0.30     relativ break condition  

   TIME   =   0.40     timestep for ELM

  volume/ion in A,a.u.               =      73.60       496.66
  Fermi-wavevector in a.u.,A,eV,Ry     =   0.709856  1.341434  6.855925  0.503896
  Thomas-Fermi vector in A             =   1.796549
 
 Write flags
   LWAVE        =      T    write WAVECAR
   LDOWNSAMPLE  =      F    k-point downsampling of WAVECAR
   LCHARG       =      T    write CHGCAR
   LVTOT        =      F    write LOCPOT, total local potential
   LVHAR        =      F    write LOCPOT, Hartree potential only
   LELF         =      F    write electronic localiz. function (ELF)
   LORBIT       =      0    0 simple, 1 ext, 2 COOP (PROOUT), +10 PAW based schemes


 Dipole corrections
   LMONO  =      F    monopole corrections only (constant potential shift)
   LDIPOL =      F    correct potential (dipole corrections)
   IDIPOL =      0    1-x, 2-y, 3-z, 4-all directions 
   EPSILON=  1.0000000 bulk dielectric constant

 Exchange correlation treatment:
   GGA     =    MK    GGA type
   LEXCH   =    43    internal setting for exchange type
   VOSKOWN=      0    Vosko Wilk Nusair interpolation
   LHFCALC =     F    Hartree Fock is set to
   LHFONE  =     F    Hartree Fock one center treatment
   AEXX    =    0.0000 exact exchange contribution

 vdW DFT:
   LUSE_VDW   =     T    switch on vdW DFT
   Zab_VDW    =******    correlation parameter
   PARAM1     =0.1234
   PARAM2     =0.7114
   PARAM3     =0.0000
   -- rVV10 --
   BPARAM     = 6.3000
   CPARAM     = 0.0093

 Linear response parameters
   LEPSILON=     F    determine dielectric tensor
   LRPA    =     F    only Hartree local field effects (RPA)
   LNABLA  =     F    use nabla operator in PAW spheres
   LVEL    =     F    velocity operator in full k-point grid
   LINTERFAST=   F  fast interpolation
   KINTER  =     0    interpolate to denser k-point grid
   CSHIFT  =0.1000    complex shift for real part using Kramers Kronig
   OMEGAMAX=  -1.0    maximum frequency
   DEG_THRESHOLD= 0.2000000E-02 threshold for treating states as degnerate
   RTIME   =   -0.100 relaxation time in fs
  (WPLASMAI=    0.000 imaginary part of plasma frequency in eV, 0.658/RTIME)
   DFIELD  = 0.0000000 0.0000000 0.0000000 field for delta impulse in time
 
 Orbital magnetization related:
   ORBITALMAG=     F  switch on orbital magnetization
   LCHIMAG   =     F  perturbation theory with respect to B field
   DQ        =  0.001000  dq finite difference perturbation B field
   LLRAUG    =     F  two centre corrections for induced B field



--------------------------------------------------------------------------------------------------------


 Static calculation
 charge density and potential remain constant during run
 non-spin polarized calculation
 Variant of blocked Davidson
 Davidson routine will perform the subspace rotation
 perform sub-space diagonalisation
    after iterative eigenvector-optimisation
 no mixing
 using additional bands           16
 real space projection scheme for non local part
 use partial core corrections
 calculate Harris-corrections to forces 
   (improved forces if not selfconsistent)
 use gradient corrections 
 WARNING: stress and forces are not correct
  (second derivative of E(xc) not defined)
 use of overlap-Matrix (Vanderbilt PP)
 Gauss-broadening in eV      SIGMA  =   0.01


--------------------------------------------------------------------------------------------------------


  energy-cutoff  :      500.00
  volume of cell :     1766.34
      direct lattice vectors                 reciprocal lattice vectors
    24.009468079  0.000000000  0.000000000     0.041650236  0.000000000  0.000000000
     0.000000000  6.540361940  0.000000000     0.000000000  0.152896737  0.000000000
     0.000000000  0.000000000 11.248405831     0.000000000  0.000000000  0.088901487

  length of vectors
    24.009468079  6.540361940 11.248405831     0.041650236  0.152896737  0.088901487


 
 k-points in units of 2pi/SCALE and weight: k-points along high symmetry lines      
   0.00000000  0.00000000  0.00000000       0.013
   0.00000000  0.00402360  0.00000000       0.013
   0.00000000  0.00804720  0.00000000       0.013
   0.00000000  0.01207080  0.00000000       0.013
   0.00000000  0.01609439  0.00000000       0.013
   0.00000000  0.02011799  0.00000000       0.013
   0.00000000  0.02414159  0.00000000       0.013
   0.00000000  0.02816519  0.00000000       0.013
   0.00000000  0.03218879  0.00000000       0.013
   0.00000000  0.03621239  0.00000000       0.013
   0.00000000  0.04023598  0.00000000       0.013
   0.00000000  0.04425958  0.00000000       0.013
   0.00000000  0.04828318  0.00000000       0.013
   0.00000000  0.05230678  0.00000000       0.013
   0.00000000  0.05633038  0.00000000       0.013
   0.00000000  0.06035398  0.00000000       0.013
   0.00000000  0.06437757  0.00000000       0.013
   0.00000000  0.06840117  0.00000000       0.013
   0.00000000  0.07242477  0.00000000       0.013
   0.00000000  0.07644837  0.00000000       0.013
   0.00000000  0.07644837  0.00000000       0.013
   0.00000000  0.07644837  0.00233951       0.013
   0.00000000  0.07644837  0.00467903       0.013
   0.00000000  0.07644837  0.00701854       0.013
   0.00000000  0.07644837  0.00935805       0.013
   0.00000000  0.07644837  0.01169756       0.013
   0.00000000  0.07644837  0.01403708       0.013
   0.00000000  0.07644837  0.01637659       0.013
   0.00000000  0.07644837  0.01871610       0.013
   0.00000000  0.07644837  0.02105562       0.013
   0.00000000  0.07644837  0.02339513       0.013
   0.00000000  0.07644837  0.02573464       0.013
   0.00000000  0.07644837  0.02807415       0.013
   0.00000000  0.07644837  0.03041367       0.013
   0.00000000  0.07644837  0.03275318       0.013
   0.00000000  0.07644837  0.03509269       0.013
   0.00000000  0.07644837  0.03743220       0.013
   0.00000000  0.07644837  0.03977172       0.013
   0.00000000  0.07644837  0.04211123       0.013
   0.00000000  0.07644837  0.04445074       0.013
   0.00000000  0.07644837  0.04445074       0.013
   0.00000000  0.07242477  0.04445074       0.013
   0.00000000  0.06840117  0.04445074       0.013
   0.00000000  0.06437757  0.04445074       0.013
   0.00000000  0.06035398  0.04445074       0.013
   0.00000000  0.05633038  0.04445074       0.013
   0.00000000  0.05230678  0.04445074       0.013
   0.00000000  0.04828318  0.04445074       0.013
   0.00000000  0.04425958  0.04445074       0.013
   0.00000000  0.04023598  0.04445074       0.013
   0.00000000  0.03621239  0.04445074       0.013
   0.00000000  0.03218879  0.04445074       0.013
   0.00000000  0.02816519  0.04445074       0.013
   0.00000000  0.02414159  0.04445074       0.013
   0.00000000  0.02011799  0.04445074       0.013
   0.00000000  0.01609439  0.04445074       0.013
   0.00000000  0.01207080  0.04445074       0.013
   0.00000000  0.00804720  0.04445074       0.013
   0.00000000  0.00402360  0.04445074       0.013
   0.00000000  0.00000000  0.04445074       0.013
   0.00000000  0.00000000  0.04445074       0.013
   0.00000000  0.00000000  0.04211123       0.013
   0.00000000  0.00000000  0.03977172       0.013
   0.00000000  0.00000000  0.03743220       0.013
   0.00000000  0.00000000  0.03509269       0.013
   0.00000000  0.00000000  0.03275318       0.013
   0.00000000  0.00000000  0.03041367       0.013
   0.00000000  0.00000000  0.02807415       0.013
   0.00000000  0.00000000  0.02573464       0.013
   0.00000000  0.00000000  0.02339513       0.013
   0.00000000  0.00000000  0.02105562       0.013
   0.00000000  0.00000000  0.01871610       0.013
   0.00000000  0.00000000  0.01637659       0.013
   0.00000000  0.00000000  0.01403708       0.013
   0.00000000  0.00000000  0.01169756       0.013
   0.00000000  0.00000000  0.00935805       0.013
   0.00000000  0.00000000  0.00701854       0.013
   0.00000000  0.00000000  0.00467903       0.013
   0.00000000  0.00000000  0.00233951       0.013
   0.00000000  0.00000000  0.00000000       0.013
 
 k-points in reciprocal lattice and weights: k-points along high symmetry lines      
   0.00000000  0.00000000  0.00000000       0.013
   0.00000000  0.02631579  0.00000000       0.013
   0.00000000  0.05263158  0.00000000       0.013
   0.00000000  0.07894737  0.00000000       0.013
   0.00000000  0.10526316  0.00000000       0.013
   0.00000000  0.13157895  0.00000000       0.013
   0.00000000  0.15789474  0.00000000       0.013
   0.00000000  0.18421053  0.00000000       0.013
   0.00000000  0.21052632  0.00000000       0.013
   0.00000000  0.23684211  0.00000000       0.013
   0.00000000  0.26315789  0.00000000       0.013
   0.00000000  0.28947368  0.00000000       0.013
   0.00000000  0.31578947  0.00000000       0.013
   0.00000000  0.34210526  0.00000000       0.013
   0.00000000  0.36842105  0.00000000       0.013
   0.00000000  0.39473684  0.00000000       0.013
   0.00000000  0.42105263  0.00000000       0.013
   0.00000000  0.44736842  0.00000000       0.013
   0.00000000  0.47368421  0.00000000       0.013
   0.00000000  0.50000000  0.00000000       0.013
   0.00000000  0.50000000  0.00000000       0.013
   0.00000000  0.50000000  0.02631579       0.013
   0.00000000  0.50000000  0.05263158       0.013
   0.00000000  0.50000000  0.07894737       0.013
   0.00000000  0.50000000  0.10526316       0.013
   0.00000000  0.50000000  0.13157895       0.013
   0.00000000  0.50000000  0.15789474       0.013
   0.00000000  0.50000000  0.18421053       0.013
   0.00000000  0.50000000  0.21052632       0.013
   0.00000000  0.50000000  0.23684211       0.013
   0.00000000  0.50000000  0.26315789       0.013
   0.00000000  0.50000000  0.28947368       0.013
   0.00000000  0.50000000  0.31578947       0.013
   0.00000000  0.50000000  0.34210526       0.013
   0.00000000  0.50000000  0.36842105       0.013
   0.00000000  0.50000000  0.39473684       0.013
   0.00000000  0.50000000  0.42105263       0.013
   0.00000000  0.50000000  0.44736842       0.013
   0.00000000  0.50000000  0.47368421       0.013
   0.00000000  0.50000000  0.50000000       0.013
   0.00000000  0.50000000  0.50000000       0.013
   0.00000000  0.47368421  0.50000000       0.013
   0.00000000  0.44736842  0.50000000       0.013
   0.00000000  0.42105263  0.50000000       0.013
   0.00000000  0.39473684  0.50000000       0.013
   0.00000000  0.36842105  0.50000000       0.013
   0.00000000  0.34210526  0.50000000       0.013
   0.00000000  0.31578947  0.50000000       0.013
   0.00000000  0.28947368  0.50000000       0.013
   0.00000000  0.26315789  0.50000000       0.013
   0.00000000  0.23684211  0.50000000       0.013
   0.00000000  0.21052632  0.50000000       0.013
   0.00000000  0.18421053  0.50000000       0.013
   0.00000000  0.15789474  0.50000000       0.013
   0.00000000  0.13157895  0.50000000       0.013
   0.00000000  0.10526316  0.50000000       0.013
   0.00000000  0.07894737  0.50000000       0.013
   0.00000000  0.05263158  0.50000000       0.013
   0.00000000  0.02631579  0.50000000       0.013
   0.00000000  0.00000000  0.50000000       0.013
   0.00000000  0.00000000  0.50000000       0.013
   0.00000000  0.00000000  0.47368421       0.013
   0.00000000  0.00000000  0.44736842       0.013
   0.00000000  0.00000000  0.42105263       0.013
   0.00000000  0.00000000  0.39473684       0.013
   0.00000000  0.00000000  0.36842105       0.013
   0.00000000  0.00000000  0.34210526       0.013
   0.00000000  0.00000000  0.31578947       0.013
   0.00000000  0.00000000  0.28947368       0.013
   0.00000000  0.00000000  0.26315789       0.013
   0.00000000  0.00000000  0.23684211       0.013
   0.00000000  0.00000000  0.21052632       0.013
   0.00000000  0.00000000  0.18421053       0.013
   0.00000000  0.00000000  0.15789474       0.013
   0.00000000  0.00000000  0.13157895       0.013
   0.00000000  0.00000000  0.10526316       0.013
   0.00000000  0.00000000  0.07894737       0.013
   0.00000000  0.00000000  0.05263158       0.013
   0.00000000  0.00000000  0.02631579       0.013
   0.00000000  0.00000000  0.00000000       0.013
 
 position of ions in fractional coordinates (direct lattice) 
   0.01027447  0.26886387  0.71532901
   0.36497200  0.76744725  0.31611878
   0.17726435  0.76829560  0.20933671
   0.19798212  0.26801551  0.82211105
   0.08647491  0.76869176  0.93045028
   0.28877156  0.26761936  0.10099748
   0.13042964  0.26840416  0.40964849
   0.24481683  0.76790696  0.62179934
   0.06358407  0.08479145  0.16586303
   0.31166240  0.95151964  0.86558473
   0.11548180  0.95204790  0.65689244
   0.25976467  0.08426319  0.37455534
   0.31159608  0.58416415  0.86546113
   0.06365038  0.45214695  0.16598663
   0.25972208  0.45068934  0.37429497
   0.11552438  0.58562176  0.65715282
   0.02815493  0.76884495  0.63059690
   0.34709153  0.26746616  0.40085088
   0.14737799  0.26853035  0.09734576
   0.22786848  0.76778077  0.93410201
   0.06321363  0.26870167  0.97976296
   0.31203283  0.76760945  0.05168484
   0.09739594  0.76831826  0.47351325
   0.27785053  0.26799285  0.55793446
 
 position of ions in cartesian coordinates  (Angst):
   0.24668444  1.75846699  8.04631100
   8.76278366  5.01938280  3.55583228
   4.25602280  5.02493133  2.35470430
   4.75344528  1.75291847  9.24743875
   2.07621661  5.02752231 10.46608241
   6.93325147  1.75032748  1.13606064
   3.13154627  1.75546036  4.60789244
   5.87792180  5.02238943  6.99425132
   1.52661971  0.55456675  1.86569468
   7.48284837  6.22328287  9.73644837
   2.77265660  6.22673783  7.38899280
   6.23681148  0.55111179  4.21315049
   7.48125624  3.82064496  9.73505807
   1.52821183  2.95720472  1.86708498
   6.23578907  2.94767141  4.21022169
   2.77367901  3.83017827  7.39192159
   0.67598482  5.02852427  7.09320987
   8.33348308  1.74932553  4.50893342
   3.53846722  1.75628567  1.09498458
   5.47100110  5.02156412 10.50715847
   1.51772565  1.75740619 11.02077140
   7.49174231  5.02044361  0.58137207
   2.33842468  5.02507953  5.32626916
   6.67104340  1.75277026  6.27587318
 


--------------------------------------------------------------------------------------------------------


 k-point  1 :   0.0000 0.0000 0.0000  plane waves:   44837
 k-point  2 :   0.0000 0.0263 0.0000  plane waves:   44813
 k-point  3 :   0.0000 0.0526 0.0000  plane waves:   44811
 k-point  4 :   0.0000 0.0789 0.0000  plane waves:   44822
 k-point  5 :   0.0000 0.1053 0.0000  plane waves:   44820
 k-point  6 :   0.0000 0.1316 0.0000  plane waves:   44848
 k-point  7 :   0.0000 0.1579 0.0000  plane waves:   44840
 k-point  8 :   0.0000 0.1842 0.0000  plane waves:   44836
 k-point  9 :   0.0000 0.2105 0.0000  plane waves:   44836
 k-point 10 :   0.0000 0.2368 0.0000  plane waves:   44842
 k-point 11 :   0.0000 0.2632 0.0000  plane waves:   44852
 k-point 12 :   0.0000 0.2895 0.0000  plane waves:   44832
 k-point 13 :   0.0000 0.3158 0.0000  plane waves:   44866
 k-point 14 :   0.0000 0.3421 0.0000  plane waves:   44886
 k-point 15 :   0.0000 0.3684 0.0000  plane waves:   44886
 k-point 16 :   0.0000 0.3947 0.0000  plane waves:   44892
 k-point 17 :   0.0000 0.4211 0.0000  plane waves:   44870
 k-point 18 :   0.0000 0.4474 0.0000  plane waves:   44860
 k-point 19 :   0.0000 0.4737 0.0000  plane waves:   44876
 k-point 20 :   0.0000 0.5000 0.0000  plane waves:   44844
 k-point 21 :   0.0000 0.5000 0.0000  plane waves:   44844
 k-point 22 :   0.0000 0.5000 0.0263  plane waves:   44870
 k-point 23 :   0.0000 0.5000 0.0526  plane waves:   44894
 k-point 24 :   0.0000 0.5000 0.0789  plane waves:   44890
 k-point 25 :   0.0000 0.5000 0.1053  plane waves:   44914
 k-point 26 :   0.0000 0.5000 0.1316  plane waves:   44918
 k-point 27 :   0.0000 0.5000 0.1579  plane waves:   44890
 k-point 28 :   0.0000 0.5000 0.1842  plane waves:   44866
 k-point 29 :   0.0000 0.5000 0.2105  plane waves:   44866
 k-point 30 :   0.0000 0.5000 0.2368  plane waves:   44874
 k-point 31 :   0.0000 0.5000 0.2632  plane waves:   44846
 k-point 32 :   0.0000 0.5000 0.2895  plane waves:   44852
 k-point 33 :   0.0000 0.5000 0.3158  plane waves:   44840
 k-point 34 :   0.0000 0.5000 0.3421  plane waves:   44844
 k-point 35 :   0.0000 0.5000 0.3684  plane waves:   44858
 k-point 36 :   0.0000 0.5000 0.3947  plane waves:   44852
 k-point 37 :   0.0000 0.5000 0.4211  plane waves:   44864
 k-point 38 :   0.0000 0.5000 0.4474  plane waves:   44870
 k-point 39 :   0.0000 0.5000 0.4737  plane waves:   44890
 k-point 40 :   0.0000 0.5000 0.5000  plane waves:   44884
 k-point 41 :   0.0000 0.5000 0.5000  plane waves:   44884
 k-point 42 :   0.0000 0.4737 0.5000  plane waves:   44850
 k-point 43 :   0.0000 0.4474 0.5000  plane waves:   44848
 k-point 44 :   0.0000 0.4211 0.5000  plane waves:   44844
 k-point 45 :   0.0000 0.3947 0.5000  plane waves:   44844
 k-point 46 :   0.0000 0.3684 0.5000  plane waves:   44864
 k-point 47 :   0.0000 0.3421 0.5000  plane waves:   44830
 k-point 48 :   0.0000 0.3158 0.5000  plane waves:   44792
 k-point 49 :   0.0000 0.2895 0.5000  plane waves:   44796
 k-point 50 :   0.0000 0.2632 0.5000  plane waves:   44800
 k-point 51 :   0.0000 0.2368 0.5000  plane waves:   44796
 k-point 52 :   0.0000 0.2105 0.5000  plane waves:   44786
 k-point 53 :   0.0000 0.1842 0.5000  plane waves:   44792
 k-point 54 :   0.0000 0.1579 0.5000  plane waves:   44750
 k-point 55 :   0.0000 0.1316 0.5000  plane waves:   44750
 k-point 56 :   0.0000 0.1053 0.5000  plane waves:   44758
 k-point 57 :   0.0000 0.0789 0.5000  plane waves:   44788
 k-point 58 :   0.0000 0.0526 0.5000  plane waves:   44788
 k-point 59 :   0.0000 0.0263 0.5000  plane waves:   44800
 k-point 60 :   0.0000 0.0000 0.5000  plane waves:   44786
 k-point 61 :   0.0000 0.0000 0.5000  plane waves:   44786
 k-point 62 :   0.0000 0.0000 0.4737  plane waves:   44797
 k-point 63 :   0.0000 0.0000 0.4474  plane waves:   44811
 k-point 64 :   0.0000 0.0000 0.4211  plane waves:   44821
 k-point 65 :   0.0000 0.0000 0.3947  plane waves:   44805
 k-point 66 :   0.0000 0.0000 0.3684  plane waves:   44813
 k-point 67 :   0.0000 0.0000 0.3421  plane waves:   44803
 k-point 68 :   0.0000 0.0000 0.3158  plane waves:   44795
 k-point 69 :   0.0000 0.0000 0.2895  plane waves:   44789
 k-point 70 :   0.0000 0.0000 0.2632  plane waves:   44785
 k-point 71 :   0.0000 0.0000 0.2368  plane waves:   44773
 k-point 72 :   0.0000 0.0000 0.2105  plane waves:   44771
 k-point 73 :   0.0000 0.0000 0.1842  plane waves:   44755
 k-point 74 :   0.0000 0.0000 0.1579  plane waves:   44773
 k-point 75 :   0.0000 0.0000 0.1316  plane waves:   44797
 k-point 76 :   0.0000 0.0000 0.1053  plane waves:   44797
 k-point 77 :   0.0000 0.0000 0.0789  plane waves:   44801
 k-point 78 :   0.0000 0.0000 0.0526  plane waves:   44813
 k-point 79 :   0.0000 0.0000 0.0263  plane waves:   44829
 k-point 80 :   0.0000 0.0000 0.0000  plane waves:   44837

 maximum and minimum number of plane-waves per node :     11338    11133

 maximum number of plane-waves:     44918
 maximum index in each direction: 
   IXMAX=   43   IYMAX=   11   IZMAX=   20
   IXMIN=  -43   IYMIN=  -12   IZMIN=  -21


 real space projection operators:
  total allocation   :       4365.84 KBytes
  max/ min on nodes  :       1098.55       1087.22


 parallel 3D FFT for wavefunctions:
    minimum data exchange during FFTs selected (reduces bandwidth)
 parallel 3D FFT for charge:
    minimum data exchange during FFTs selected (reduces bandwidth)


 total amount of memory used by VASP MPI-rank0   206642. kBytes
=======================================================================

   base      :      30000. kBytes
   nonlr-proj:       2554. kBytes
   fftplans  :       5316. kBytes
   grid      :       7942. kBytes
   one-center:         93. kBytes
   wavefun   :     160737. kBytes
 
     INWAV:  cpu time    0.0001: real time    0.0003
 initial charge density was supplied:
 number of electron     144.0000006 magnetization 
 keeping initial charge density in first step


--------------------------------------------------------------------------------------------------------


 Maximum index for non-local projection operator          722
 Maximum index for augmentation-charges          560 (set IRDMAX)


--------------------------------------------------------------------------------------------------------


 First call to EWALD:  gamma=   0.147
 Maximum number of real-space cells 2x 5x 3
 Maximum number of reciprocal cells 5x 2x 3

    FEWALD:  cpu time    0.2287: real time    0.2292


--------------------------------------- Iteration      1(   1)  ---------------------------------------


vdW kernel read from vdw_kernel.bindat
  0.0000  0.2424  0.5071  0.7962  1.1119  1.4567  1.8333  2.2446  2.6937  3.1842
  3.7199  4.3049  4.9438  5.6415  6.4036  7.2358  8.1446  9.1372 10.2212 11.4050
 12.6979 14.1099 15.6519 17.3360 19.1751 21.1837 23.3773 25.7729 28.3892 31.2465
 34.3669 37.7748 41.4965 45.5611 50.0000
 
    POTLOK:  cpu time    2.7287: real time    3.0907
    SETDIJ:  cpu time    0.0037: real time    0.0040
     EDDAV:  cpu time   15.5462: real time   15.5951
       DOS:  cpu time    0.0023: real time    0.0025
    --------------------------------------------
      LOOP:  cpu time   18.2810: real time   18.6923

 eigenvalue-minimisations  : 14688
 total energy-change (2. order) : 0.1107063E+04  (-0.4715605E+04)
 number of electron     144.0000006 magnetization 
 augmentation part      144.0000006 magnetization 

 Free energy of the ion-electron system (eV)
  ---------------------------------------------------
  alpha Z        PSCENC =       182.20216268
  Ewald energy   TEWEN  =     14168.75486563
  -Hartree energ DENC   =    -20599.18573235
  -exchange      EXHF   =         0.00000000
  -V(xc)+E(xc)   XCENC  =        47.86297257
  PAW double counting   =      3870.05451552    -3575.52578058
  entropy T*S    EENTRO =        -0.00067591
  eigenvalues    EBANDS =      -256.25068000
  atomic energy  EATOM  =      7269.15145414
  Solvation  Ediel_sol  =         0.00000000
  ---------------------------------------------------
  free energy    TOTEN  =      1107.06310169 eV

  energy without entropy =     1107.06377761  energy(sigma->0) =     1107.06343965


--------------------------------------------------------------------------------------------------------




--------------------------------------- Iteration      1(   2)  ---------------------------------------


     EDDAV:  cpu time   20.6595: real time   20.7092
       DOS:  cpu time    0.0010: real time    0.0010
    --------------------------------------------
      LOOP:  cpu time   20.6605: real time   20.7102

 eigenvalue-minimisations  : 21144
 total energy-change (2. order) :-0.1027677E+04  (-0.9998427E+03)
 number of electron     144.0000006 magnetization 
 augmentation part      144.0000006 magnetization 

 Free energy of the ion-electron system (eV)
  ---------------------------------------------------
  alpha Z        PSCENC =       182.20216268
  Ewald energy   TEWEN  =     14168.75486563
  -Hartree energ DENC   =    -20599.18573235
  -exchange      EXHF   =         0.00000000
  -V(xc)+E(xc)   XCENC  =        47.86297257
  PAW double counting   =      3870.05451552    -3575.52578058
  entropy T*S    EENTRO =        -0.00000000
  eigenvalues    EBANDS =     -1283.92851332
  atomic energy  EATOM  =      7269.15145414
  Solvation  Ediel_sol  =         0.00000000
  ---------------------------------------------------
  free energy    TOTEN  =        79.38594429 eV

  energy without entropy =       79.38594429  energy(sigma->0) =       79.38594429


--------------------------------------------------------------------------------------------------------




--------------------------------------- Iteration      1(   3)  ---------------------------------------


     EDDAV:  cpu time   17.3891: real time   17.4315
       DOS:  cpu time    0.0010: real time    0.0010
    --------------------------------------------
      LOOP:  cpu time   17.3901: real time   17.4325

 eigenvalue-minimisations  : 17424
 total energy-change (2. order) :-0.1646000E+03  (-0.1636508E+03)
 number of electron     144.0000006 magnetization 
 augmentation part      144.0000006 magnetization 

 Free energy of the ion-electron system (eV)
  ---------------------------------------------------
  alpha Z        PSCENC =       182.20216268
  Ewald energy   TEWEN  =     14168.75486563
  -Hartree energ DENC   =    -20599.18573235
  -exchange      EXHF   =         0.00000000
  -V(xc)+E(xc)   XCENC  =        47.86297257
  PAW double counting   =      3870.05451552    -3575.52578058
  entropy T*S    EENTRO =        -0.00000000
  eigenvalues    EBANDS =     -1448.52850608
  atomic energy  EATOM  =      7269.15145414
  Solvation  Ediel_sol  =         0.00000000
  ---------------------------------------------------
  free energy    TOTEN  =       -85.21404847 eV

  energy without entropy =      -85.21404847  energy(sigma->0) =      -85.21404847


--------------------------------------------------------------------------------------------------------




--------------------------------------- Iteration      1(   4)  ---------------------------------------


     EDDAV:  cpu time   19.1890: real time   19.2353
       DOS:  cpu time    0.0010: real time    0.0010
    --------------------------------------------
      LOOP:  cpu time   19.1900: real time   19.2363

 eigenvalue-minimisations  : 19728
 total energy-change (2. order) :-0.5815048E+01  (-0.5793034E+01)
 number of electron     144.0000006 magnetization 
 augmentation part      144.0000006 magnetization 

 Free energy of the ion-electron system (eV)
  ---------------------------------------------------
  alpha Z        PSCENC =       182.20216268
  Ewald energy   TEWEN  =     14168.75486563
  -Hartree energ DENC   =    -20599.18573235
  -exchange      EXHF   =         0.00000000
  -V(xc)+E(xc)   XCENC  =        47.86297257
  PAW double counting   =      3870.05451552    -3575.52578058
  entropy T*S    EENTRO =        -0.00000000
  eigenvalues    EBANDS =     -1454.34355429
  atomic energy  EATOM  =      7269.15145414
  Solvation  Ediel_sol  =         0.00000000
  ---------------------------------------------------
  free energy    TOTEN  =       -91.02909669 eV

  energy without entropy =      -91.02909669  energy(sigma->0) =      -91.02909669


--------------------------------------------------------------------------------------------------------




--------------------------------------- Iteration      1(   5)  ---------------------------------------


     EDDAV:  cpu time   21.5137: real time   21.5656
       DOS:  cpu time    0.0010: real time    0.0010
    --------------------------------------------
      LOOP:  cpu time   21.5147: real time   21.5666

 eigenvalue-minimisations  : 22248
 total energy-change (2. order) :-0.2419341E+00  (-0.2418251E+00)
 number of electron     144.0000006 magnetization 
 augmentation part      144.0000006 magnetization 

 Free energy of the ion-electron system (eV)
  ---------------------------------------------------
  alpha Z        PSCENC =       182.20216268
  Ewald energy   TEWEN  =     14168.75486563
  -Hartree energ DENC   =    -20599.18573235
  -exchange      EXHF   =         0.00000000
  -V(xc)+E(xc)   XCENC  =        47.86297257
  PAW double counting   =      3870.05451552    -3575.52578058
  entropy T*S    EENTRO =        -0.00000000
  eigenvalues    EBANDS =     -1454.58548838
  atomic energy  EATOM  =      7269.15145414
  Solvation  Ediel_sol  =         0.00000000
  ---------------------------------------------------
  free energy    TOTEN  =       -91.27103077 eV

  energy without entropy =      -91.27103077  energy(sigma->0) =      -91.27103077


--------------------------------------------------------------------------------------------------------




--------------------------------------- Iteration      1(   6)  ---------------------------------------


     EDDAV:  cpu time   19.6103: real time   19.6577
       DOS:  cpu time    0.0012: real time    0.0012
    --------------------------------------------
      LOOP:  cpu time   19.6114: real time   19.6588

 eigenvalue-minimisations  : 19704
 total energy-change (2. order) :-0.5048014E-02  (-0.5046610E-02)
 number of electron     144.0000006 magnetization 
 augmentation part      144.0000006 magnetization 

 Free energy of the ion-electron system (eV)
  ---------------------------------------------------
  alpha Z        PSCENC =       182.20216268
  Ewald energy   TEWEN  =     14168.75486563
  -Hartree energ DENC   =    -20599.18573235
  -exchange      EXHF   =         0.00000000
  -V(xc)+E(xc)   XCENC  =        47.86297257
  PAW double counting   =      3870.05451552    -3575.52578058
  entropy T*S    EENTRO =        -0.00000000
  eigenvalues    EBANDS =     -1454.59053639
  atomic energy  EATOM  =      7269.15145414
  Solvation  Ediel_sol  =         0.00000000
  ---------------------------------------------------
  free energy    TOTEN  =       -91.27607879 eV

  energy without entropy =      -91.27607879  energy(sigma->0) =      -91.27607879


--------------------------------------------------------------------------------------------------------




--------------------------------------- Iteration      1(   7)  ---------------------------------------


     EDDAV:  cpu time   20.3506: real time   20.4002
       DOS:  cpu time    0.0085: real time    0.0086
    --------------------------------------------
      LOOP:  cpu time   20.3591: real time   20.4088

 eigenvalue-minimisations  : 22248
 total energy-change (2. order) :-0.2168904E-03  (-0.2168449E-03)
 number of electron     144.0000006 magnetization 
 augmentation part      144.0000006 magnetization 

 Free energy of the ion-electron system (eV)
  ---------------------------------------------------
  alpha Z        PSCENC =       182.20216268
  Ewald energy   TEWEN  =     14168.75486563
  -Hartree energ DENC   =    -20599.18573235
  -exchange      EXHF   =         0.00000000
  -V(xc)+E(xc)   XCENC  =        47.86297257
  PAW double counting   =      3870.05451552    -3575.52578058
  entropy T*S    EENTRO =        -0.00000000
  eigenvalues    EBANDS =     -1454.59075329
  atomic energy  EATOM  =      7269.15145414
  Solvation  Ediel_sol  =         0.00000000
  ---------------------------------------------------
  free energy    TOTEN  =       -91.27629568 eV

  energy without entropy =      -91.27629568  energy(sigma->0) =      -91.27629568


--------------------------------------------------------------------------------------------------------




--------------------------------------- Iteration      1(   8)  ---------------------------------------


     EDDAV:  cpu time   16.9044: real time   16.9454
       DOS:  cpu time    0.0013: real time    0.0013
    --------------------------------------------
      LOOP:  cpu time   16.9057: real time   16.9467

 eigenvalue-minimisations  : 18432
 total energy-change (2. order) :-0.9835956E-05  (-0.9834954E-05)
 number of electron     144.0000006 magnetization 
 augmentation part      144.0000006 magnetization 

 Free energy of the ion-electron system (eV)
  ---------------------------------------------------
  alpha Z        PSCENC =       182.20216268
  Ewald energy   TEWEN  =     14168.75486563
  -Hartree energ DENC   =    -20599.18573235
  -exchange      EXHF   =         0.00000000
  -V(xc)+E(xc)   XCENC  =        47.86297257
  PAW double counting   =      3870.05451552    -3575.52578058
  entropy T*S    EENTRO =        -0.00000000
  eigenvalues    EBANDS =     -1454.59076312
  atomic energy  EATOM  =      7269.15145414
  Solvation  Ediel_sol  =         0.00000000
  ---------------------------------------------------
  free energy    TOTEN  =       -91.27630551 eV

  energy without entropy =      -91.27630551  energy(sigma->0) =      -91.27630551


--------------------------------------------------------------------------------------------------------




--------------------------------------- Iteration      1(   9)  ---------------------------------------


     EDDAV:  cpu time   14.7433: real time   14.7793
       DOS:  cpu time    0.0011: real time    0.0011
    --------------------------------------------
      LOOP:  cpu time   14.7443: real time   14.7804

 eigenvalue-minimisations  : 15088
 total energy-change (2. order) :-0.5271613E-06  (-0.5271540E-06)
 number of electron     144.0000006 magnetization 
 augmentation part      144.0000006 magnetization 

 Free energy of the ion-electron system (eV)
  ---------------------------------------------------
  alpha Z        PSCENC =       182.20216268
  Ewald energy   TEWEN  =     14168.75486563
  -Hartree energ DENC   =    -20599.18573235
  -exchange      EXHF   =         0.00000000
  -V(xc)+E(xc)   XCENC  =        47.86297257
  PAW double counting   =      3870.05451552    -3575.52578058
  entropy T*S    EENTRO =        -0.00000000
  eigenvalues    EBANDS =     -1454.59076365
  atomic energy  EATOM  =      7269.15145414
  Solvation  Ediel_sol  =         0.00000000
  ---------------------------------------------------
  free energy    TOTEN  =       -91.27630604 eV

  energy without entropy =      -91.27630604  energy(sigma->0) =      -91.27630604


--------------------------------------------------------------------------------------------------------




 average (electrostatic) potential at core
  the test charge radii are     1.2192  0.9892
  (the norm of the test charge is              1.0000)
       1 -41.4232       2 -41.4234       3 -40.2630       4 -40.2629       5 -40.3147
       6 -40.3147       7 -40.3606       8 -40.3606       9 -89.1108      10 -89.1107
      11 -89.4090      12 -89.4091      13 -89.1109      14 -89.1110      15 -89.4098
      16 -89.4097      17 -89.5522      18 -89.5525      19 -89.0641      20 -89.0641
      21 -89.1137      22 -89.1138      23 -89.4807      24 -89.4807
 
 
 
 E-fermi :  -0.7867     XC(G=0):  -4.3109     alpha+bet : -4.1101


 k-point     1 :       0.0000    0.0000    0.0000
  band No.  band energies     occupation 
      1     -29.2833      2.00000
      2     -29.2831      2.00000
      3     -28.2645      2.00000
      4     -28.2573      2.00000
      5     -28.2288      2.00000
      6     -28.2189      2.00000
      7     -28.1601      2.00000
      8     -28.1494      2.00000
      9     -14.6636      2.00000
     10     -14.6618      2.00000
     11     -14.5836      2.00000
     12     -14.5825      2.00000
     13     -14.5065      2.00000
     14     -14.5060      2.00000
     15     -13.9553      2.00000
     16     -13.8542      2.00000
     17     -13.7916      2.00000
     18     -13.7703      2.00000
     19     -13.7115      2.00000
     20     -13.6883      2.00000
     21     -13.6717      2.00000
     22     -13.6155      2.00000
     23     -13.6003      2.00000
     24     -13.5751      2.00000
     25     -13.5596      2.00000
     26     -13.5456      2.00000
     27     -13.4377      2.00000
     28     -13.4165      2.00000
     29     -13.3876      2.00000
     30     -13.3780      2.00000
     31     -13.3482      2.00000
     32     -13.3478      2.00000
     33     -11.3917      2.00000
     34     -11.2809      2.00000
     35     -10.9145      2.00000
     36     -10.8930      2.00000
     37      -6.6743      2.00000
     38      -6.6440      2.00000
     39      -6.4992      2.00000
     40      -6.4590      2.00000
     41      -6.4400      2.00000
     42      -6.4381      2.00000
     43      -6.2250      2.00000
     44      -6.1744      2.00000
     45      -6.1500      2.00000
     46      -6.0714      2.00000
     47      -5.8350      2.00000
     48      -5.8145      2.00000
     49      -3.8216      2.00000
     50      -3.3972      2.00000
     51      -2.9150      2.00000
     52      -2.9010      2.00000
     53      -2.6501      2.00000
     54      -2.4552      2.00000
     55      -2.3019      2.00000
     56      -2.2811      2.00000
     57      -2.1397      2.00000
     58      -2.0830      2.00000
     59      -1.9722      2.00000
     60      -1.9671      2.00000
     61      -1.7622      2.00000
     62      -1.7280      2.00000
     63      -1.6607      2.00000
     64      -1.6448      2.00000
     65      -1.5387      2.00000
     66      -1.4268      2.00000
     67      -1.4087      2.00000
     68      -1.2933      2.00000
     69      -1.2506      2.00000
     70      -1.2266      2.00000
     71      -1.0063      2.00000
     72      -0.8320      2.00000
     73       0.4690      0.00000
     74       0.5029      0.00000
     75       0.5136      0.00000
     76       0.5261      0.00000
     77       0.5566      0.00000
     78       0.6715      0.00000
     79       0.8390      0.00000
     80       0.9367      0.00000
     81       1.0581      0.00000
     82       1.2043      0.00000
     83       1.2507      0.00000
     84       1.3555      0.00000
     85       1.4033      0.00000
     86       1.5576      0.00000
     87       1.5688      0.00000
     88       1.6812      0.00000

 k-point     2 :       0.0000    0.0263    0.0000
  band No.  band energies     occupation 
      1     -29.2833      2.00000
      2     -29.2831      2.00000
      3     -28.2645      2.00000
      4     -28.2572      2.00000
      5     -28.2288      2.00000
      6     -28.2189      2.00000
      7     -28.1601      2.00000
      8     -28.1494      2.00000
      9     -14.6635      2.00000
     10     -14.6617      2.00000
     11     -14.5836      2.00000
     12     -14.5825      2.00000
     13     -14.5068      2.00000
     14     -14.5063      2.00000
     15     -13.9551      2.00000
     16     -13.8543      2.00000
     17     -13.7951      2.00000
     18     -13.7667      2.00000
     19     -13.7132      2.00000
     20     -13.6876      2.00000
     21     -13.6716      2.00000
     22     -13.6188      2.00000
     23     -13.5998      2.00000
     24     -13.5727      2.00000
     25     -13.5595      2.00000
     26     -13.5461      2.00000
     27     -13.4373      2.00000
     28     -13.4165      2.00000
     29     -13.3875      2.00000
     30     -13.3778      2.00000
     31     -13.3482      2.00000
     32     -13.3480      2.00000
     33     -11.3907      2.00000
     34     -11.2805      2.00000
     35     -10.9140      2.00000
     36     -10.8926      2.00000
     37      -6.6729      2.00000
     38      -6.6424      2.00000
     39      -6.4988      2.00000
     40      -6.4636      2.00000
     41      -6.4392      2.00000
     42      -6.4371      2.00000
     43      -6.2245      2.00000
     44      -6.1736      2.00000
     45      -6.1489      2.00000
     46      -6.0715      2.00000
     47      -5.8374      2.00000
     48      -5.8166      2.00000
     49      -3.8153      2.00000
     50      -3.3927      2.00000
     51      -2.9111      2.00000
     52      -2.8998      2.00000
     53      -2.6495      2.00000
     54      -2.4555      2.00000
     55      -2.3015      2.00000
     56      -2.2833      2.00000
     57      -2.1388      2.00000
     58      -2.0840      2.00000
     59      -1.9770      2.00000
     60      -1.9676      2.00000
     61      -1.7750      2.00000
     62      -1.7154      2.00000
     63      -1.6625      2.00000
     64      -1.6409      2.00000
     65      -1.5401      2.00000
     66      -1.4308      2.00000
     67      -1.4055      2.00000
     68      -1.2926      2.00000
     69      -1.2506      2.00000
     70      -1.2325      2.00000
     71      -1.0029      2.00000
     72      -0.8341      2.00000
     73       0.4595      0.00000
     74       0.4859      0.00000
     75       0.5084      0.00000
     76       0.5422      0.00000
     77       0.5680      0.00000
     78       0.6786      0.00000
     79       0.8377      0.00000
     80       0.9384      0.00000
     81       1.0546      0.00000
     82       1.2040      0.00000
     83       1.2385      0.00000
     84       1.3583      0.00000
     85       1.4090      0.00000
     86       1.5364      0.00000
     87       1.5838      0.00000
     88       1.7628      0.00000

 k-point     3 :       0.0000    0.0526    0.0000
  band No.  band energies     occupation 
      1     -29.2833      2.00000
      2     -29.2831      2.00000
      3     -28.2643      2.00000
      4     -28.2572      2.00000
      5     -28.2288      2.00000
      6     -28.2190      2.00000
      7     -28.1601      2.00000
      8     -28.1495      2.00000
      9     -14.6634      2.00000
     10     -14.6616      2.00000
     11     -14.5837      2.00000
     12     -14.5826      2.00000
     13     -14.5076      2.00000
     14     -14.5071      2.00000
     15     -13.9547      2.00000
     16     -13.8544      2.00000
     17     -13.8023      2.00000
     18     -13.7593      2.00000
     19     -13.7176      2.00000
     20     -13.6862      2.00000
     21     -13.6716      2.00000
     22     -13.6268      2.00000
     23     -13.5982      2.00000
     24     -13.5671      2.00000
     25     -13.5589      2.00000
     26     -13.5475      2.00000
     27     -13.4362      2.00000
     28     -13.4164      2.00000
     29     -13.3871      2.00000
     30     -13.3771      2.00000
     31     -13.3485      2.00000
     32     -13.3484      2.00000
     33     -11.3878      2.00000
     34     -11.2795      2.00000
     35     -10.9124      2.00000
     36     -10.8912      2.00000
     37      -6.6685      2.00000
     38      -6.6376      2.00000
     39      -6.4980      2.00000
     40      -6.4740      2.00000
     41      -6.4422      2.00000
     42      -6.4318      2.00000
     43      -6.2231      2.00000
     44      -6.1712      2.00000
     45      -6.1457      2.00000
     46      -6.0719      2.00000
     47      -5.8445      2.00000
     48      -5.8227      2.00000
     49      -3.7965      2.00000
     50      -3.3791      2.00000
     51      -2.8992      2.00000
     52      -2.8962      2.00000
     53      -2.6476      2.00000
     54      -2.4565      2.00000
     55      -2.3002      2.00000
     56      -2.2901      2.00000
     57      -2.1358      2.00000
     58      -2.0870      2.00000
     59      -1.9905      2.00000
     60      -1.9692      2.00000
     61      -1.7949      2.00000
     62      -1.6989      2.00000
     63      -1.6682      2.00000
     64      -1.6274      2.00000
     65      -1.5437      2.00000
     66      -1.4427      2.00000
     67      -1.3958      2.00000
     68      -1.2909      2.00000
     69      -1.2506      2.00000
     70      -1.2488      2.00000
     71      -0.9943      2.00000
     72      -0.8402      2.00000
     73       0.4356      0.00000
     74       0.4492      0.00000
     75       0.5234      0.00000
     76       0.5513      0.00000
     77       0.5955      0.00000
     78       0.6962      0.00000
     79       0.8331      0.00000
     80       0.9433      0.00000
     81       1.0427      0.00000
     82       1.2060      0.00000
     83       1.2063      0.00000
     84       1.3656      0.00000
     85       1.4202      0.00000
     86       1.4977      0.00000
     87       1.6031      0.00000
     88       1.6905      0.00000

 k-point     4 :       0.0000    0.0789    0.0000
  band No.  band energies     occupation 
      1     -29.2833      2.00000
      2     -29.2831      2.00000
      3     -28.2641      2.00000
      4     -28.2571      2.00000
      5     -28.2287      2.00000
      6     -28.2191      2.00000
      7     -28.1602      2.00000
      8     -28.1497      2.00000
      9     -14.6631      2.00000
     10     -14.6613      2.00000
     11     -14.5839      2.00000
     12     -14.5828      2.00000
     13     -14.5088      2.00000
     14     -14.5083      2.00000
     15     -13.9539      2.00000
     16     -13.8547      2.00000
     17     -13.8102      2.00000
     18     -13.7512      2.00000
     19     -13.7237      2.00000
     20     -13.6845      2.00000
     21     -13.6717      2.00000
     22     -13.6367      2.00000
     23     -13.5960      2.00000
     24     -13.5615      2.00000
     25     -13.5576      2.00000
     26     -13.5496      2.00000
     27     -13.4343      2.00000
     28     -13.4165      2.00000
     29     -13.3865      2.00000
     30     -13.3757      2.00000
     31     -13.3492      2.00000
     32     -13.3486      2.00000
     33     -11.3830      2.00000
     34     -11.2778      2.00000
     35     -10.9097      2.00000
     36     -10.8890      2.00000
     37      -6.6616      2.00000
     38      -6.6297      2.00000
     39      -6.4976      2.00000
     40      -6.4870      2.00000
     41      -6.4460      2.00000
     42      -6.4264      2.00000
     43      -6.2207      2.00000
     44      -6.1673      2.00000
     45      -6.1407      2.00000
     46      -6.0727      2.00000
     47      -5.8558      2.00000
     48      -5.8323      2.00000
     49      -3.7661      2.00000
     50      -3.3570      2.00000
     51      -2.8904      2.00000
     52      -2.8798      2.00000
     53      -2.6445      2.00000
     54      -2.4580      2.00000
     55      -2.3026      2.00000
     56      -2.2971      2.00000
     57      -2.1301      2.00000
     58      -2.0922      2.00000
     59      -2.0102      2.00000
     60      -1.9719      2.00000
     61      -1.8136      2.00000
     62      -1.6906      2.00000
     63      -1.6779      2.00000
     64      -1.6032      2.00000
     65      -1.5488      2.00000
     66      -1.4624      2.00000
     67      -1.3802      2.00000
     68      -1.2892      2.00000
     69      -1.2723      2.00000
     70      -1.2504      2.00000
     71      -0.9832      2.00000
     72      -0.8497      2.00000
     73       0.4052      0.00000
     74       0.4103      0.00000
     75       0.5461      0.00000
     76       0.5602      0.00000
     77       0.6256      0.00000
     78       0.7185      0.00000
     79       0.8226      0.00000
     80       0.9509      0.00000
     81       1.0227      0.00000
     82       1.1617      0.00000
     83       1.2164      0.00000
     84       1.3767      0.00000
     85       1.4151      0.00000
     86       1.4747      0.00000
     87       1.6250      0.00000
     88       1.6900      0.00000

 k-point     5 :       0.0000    0.1053    0.0000
  band No.  band energies     occupation 
      1     -29.2833      2.00000
      2     -29.2831      2.00000
      3     -28.2638      2.00000
      4     -28.2570      2.00000
      5     -28.2287      2.00000
      6     -28.2192      2.00000
      7     -28.1603      2.00000
      8     -28.1500      2.00000
      9     -14.6627      2.00000
     10     -14.6610      2.00000
     11     -14.5841      2.00000
     12     -14.5831      2.00000
     13     -14.5105      2.00000
     14     -14.5101      2.00000
     15     -13.9528      2.00000
     16     -13.8552      2.00000
     17     -13.8179      2.00000
     18     -13.7436      2.00000
     19     -13.7308      2.00000
     20     -13.6830      2.00000
     21     -13.6722      2.00000
     22     -13.6471      2.00000
     23     -13.5934      2.00000
     24     -13.5588      2.00000
     25     -13.5539      2.00000
     26     -13.5519      2.00000
     27     -13.4316      2.00000
     28     -13.4169      2.00000
     29     -13.3858      2.00000
     30     -13.3737      2.00000
     31     -13.3502      2.00000
     32     -13.3489      2.00000
     33     -11.3766      2.00000
     34     -11.2755      2.00000
     35     -10.9062      2.00000
     36     -10.8859      2.00000
     37      -6.6527      2.00000
     38      -6.6189      2.00000
     39      -6.5021      2.00000
     40      -6.4987      2.00000
     41      -6.4488      2.00000
     42      -6.4214      2.00000
     43      -6.2174      2.00000
     44      -6.1619      2.00000
     45      -6.1340      2.00000
     46      -6.0741      2.00000
     47      -5.8707      2.00000
     48      -5.8450      2.00000
     49      -3.7248      2.00000
     50      -3.3271      2.00000
     51      -2.8824      2.00000
     52      -2.8535      2.00000
     53      -2.6406      2.00000
     54      -2.4598      2.00000
     55      -2.3177      2.00000
     56      -2.2943      2.00000
     57      -2.1217      2.00000
     58      -2.0995      2.00000
     59      -2.0336      2.00000
     60      -1.9757      2.00000
     61      -1.8308      2.00000
     62      -1.6921      2.00000
     63      -1.6891      2.00000
     64      -1.5724      2.00000
     65      -1.5542      2.00000
     66      -1.4887      2.00000
     67      -1.3598      2.00000
     68      -1.2994      2.00000
     69      -1.2890      2.00000
     70      -1.2498      2.00000
     71      -0.9725      2.00000
     72      -0.8621      2.00000
     73       0.3706      0.00000
     74       0.3742      0.00000
     75       0.5700      0.00000
     76       0.5741      0.00000
     77       0.6540      0.00000
     78       0.7414      0.00000
     79       0.8039      0.00000
     80       0.9601      0.00000
     81       1.0017      0.00000
     82       1.1118      0.00000
     83       1.2353      0.00000
     84       1.3651      0.00000
     85       1.3906      0.00000
     86       1.4875      0.00000
     87       1.6394      0.00000
     88       1.6714      0.00000

 k-point     6 :       0.0000    0.1316    0.0000
  band No.  band energies     occupation 
      1     -29.2833      2.00000
      2     -29.2831      2.00000
      3     -28.2634      2.00000
      4     -28.2568      2.00000
      5     -28.2286      2.00000
      6     -28.2193      2.00000
      7     -28.1603      2.00000
      8     -28.1503      2.00000
      9     -14.6622      2.00000
     10     -14.6605      2.00000
     11     -14.5843      2.00000
     12     -14.5834      2.00000
     13     -14.5126      2.00000
     14     -14.5122      2.00000
     15     -13.9514      2.00000
     16     -13.8560      2.00000
     17     -13.8252      2.00000
     18     -13.7384      2.00000
     19     -13.7371      2.00000
     20     -13.6825      2.00000
     21     -13.6724      2.00000
     22     -13.6566      2.00000
     23     -13.5912      2.00000
     24     -13.5575      2.00000
     25     -13.5542      2.00000
     26     -13.5499      2.00000
     27     -13.4280      2.00000
     28     -13.4173      2.00000
     29     -13.3848      2.00000
     30     -13.3711      2.00000
     31     -13.3514      2.00000
     32     -13.3493      2.00000
     33     -11.3687      2.00000
     34     -11.2726      2.00000
     35     -10.9017      2.00000
     36     -10.8821      2.00000
     37      -6.6430      2.00000
     38      -6.6056      2.00000
     39      -6.5164      2.00000
     40      -6.5049      2.00000
     41      -6.4484      2.00000
     42      -6.4165      2.00000
     43      -6.2134      2.00000
     44      -6.1552      2.00000
     45      -6.1262      2.00000
     46      -6.0764      2.00000
     47      -5.8883      2.00000
     48      -5.8600      2.00000
     49      -3.6741      2.00000
     50      -3.2902      2.00000
     51      -2.8727      2.00000
     52      -2.8210      2.00000
     53      -2.6363      2.00000
     54      -2.4618      2.00000
     55      -2.3353      2.00000
     56      -2.2902      2.00000
     57      -2.1124      2.00000
     58      -2.1091      2.00000
     59      -2.0577      2.00000
     60      -1.9806      2.00000
     61      -1.8467      2.00000
     62      -1.7104      2.00000
     63      -1.6927      2.00000
     64      -1.5596      2.00000
     65      -1.5391      2.00000
     66      -1.5197      2.00000
     67      -1.3453      2.00000
     68      -1.3184      2.00000
     69      -1.2920      2.00000
     70      -1.2488      2.00000
     71      -0.9641      2.00000
     72      -0.8765      2.00000
     73       0.3316      0.00000
     74       0.3462      0.00000
     75       0.5791      0.00000
     76       0.6041      0.00000
     77       0.6717      0.00000
     78       0.7622      0.00000
     79       0.7840      0.00000
     80       0.9692      0.00000
     81       0.9881      0.00000
     82       1.0625      0.00000
     83       1.2597      0.00000
     84       1.3044      0.00000
     85       1.4060      0.00000
     86       1.5083      0.00000
     87       1.6206      0.00000
     88       1.6413      0.00000

 k-point     7 :       0.0000    0.1579    0.0000
  band No.  band energies     occupation 
      1     -29.2833      2.00000
      2     -29.2831      2.00000
      3     -28.2630      2.00000
      4     -28.2567      2.00000
      5     -28.2285      2.00000
      6     -28.2195      2.00000
      7     -28.1604      2.00000
      8     -28.1508      2.00000
      9     -14.6616      2.00000
     10     -14.6600      2.00000
     11     -14.5846      2.00000
     12     -14.5838      2.00000
     13     -14.5150      2.00000
     14     -14.5147      2.00000
     15     -13.9498      2.00000
     16     -13.8570      2.00000
     17     -13.8317      2.00000
     18     -13.7462      2.00000
     19     -13.7328      2.00000
     20     -13.6842      2.00000
     21     -13.6712      2.00000
     22     -13.6641      2.00000
     23     -13.5897      2.00000
     24     -13.5567      2.00000
     25     -13.5560      2.00000
     26     -13.5471      2.00000
     27     -13.4238      2.00000
     28     -13.4177      2.00000
     29     -13.3836      2.00000
     30     -13.3679      2.00000
     31     -13.3527      2.00000
     32     -13.3498      2.00000
     33     -11.3595      2.00000
     34     -11.2694      2.00000
     35     -10.8963      2.00000
     36     -10.8777      2.00000
     37      -6.6347      2.00000
     38      -6.5902      2.00000
     39      -6.5284      2.00000
     40      -6.5157      2.00000
     41      -6.4438      2.00000
     42      -6.4118      2.00000
     43      -6.2086      2.00000
     44      -6.1473      2.00000
     45      -6.1175      2.00000
     46      -6.0798      2.00000
     47      -5.9078      2.00000
     48      -5.8765      2.00000
     49      -3.6153      2.00000
     50      -3.2476      2.00000
     51      -2.8615      2.00000
     52      -2.7834      2.00000
     53      -2.6319      2.00000
     54      -2.4637      2.00000
     55      -2.3526      2.00000
     56      -2.2854      2.00000
     57      -2.1210      2.00000
     58      -2.1089      2.00000
     59      -2.0753      2.00000
     60      -1.9863      2.00000
     61      -1.8611      2.00000
     62      -1.7339      2.00000
     63      -1.6998      2.00000
     64      -1.5646      2.00000
     65      -1.5529      2.00000
     66      -1.5057      2.00000
     67      -1.3666      2.00000
     68      -1.2991      2.00000
     69      -1.2979      2.00000
     70      -1.2479      2.00000
     71      -0.9594      2.00000
     72      -0.8927      2.00000
     73       0.2947      0.00000
     74       0.3239      0.00000
     75       0.5821      0.00000
     76       0.6319      0.00000
     77       0.6602      0.00000
     78       0.7779      0.00000
     79       0.7881      0.00000
     80       0.9746      0.00000
     81       0.9843      0.00000
     82       1.0220      0.00000
     83       1.2452      0.00000
     84       1.2860      0.00000
     85       1.4232      0.00000
     86       1.5444      0.00000
     87       1.5770      0.00000
     88       1.6410      0.00000

 k-point     8 :       0.0000    0.1842    0.0000
  band No.  band energies     occupation 
      1     -29.2832      2.00000
      2     -29.2831      2.00000
      3     -28.2625      2.00000
      4     -28.2565      2.00000
      5     -28.2283      2.00000
      6     -28.2197      2.00000
      7     -28.1605      2.00000
      8     -28.1512      2.00000
      9     -14.6610      2.00000
     10     -14.6594      2.00000
     11     -14.5849      2.00000
     12     -14.5842      2.00000
     13     -14.5178      2.00000
     14     -14.5175      2.00000
     15     -13.9479      2.00000
     16     -13.8584      2.00000
     17     -13.8374      2.00000
     18     -13.7540      2.00000
     19     -13.7315      2.00000
     20     -13.6880      2.00000
     21     -13.6688      2.00000
     22     -13.6682      2.00000
     23     -13.5894      2.00000
     24     -13.5574      2.00000
     25     -13.5560      2.00000
     26     -13.5456      2.00000
     27     -13.4189      2.00000
     28     -13.4178      2.00000
     29     -13.3823      2.00000
     30     -13.3645      2.00000
     31     -13.3541      2.00000
     32     -13.3504      2.00000
     33     -11.3494      2.00000
     34     -11.2658      2.00000
     35     -10.8903      2.00000
     36     -10.8727      2.00000
     37      -6.6315      2.00000
     38      -6.5730      2.00000
     39      -6.5341      2.00000
     40      -6.5302      2.00000
     41      -6.4357      2.00000
     42      -6.4071      2.00000
     43      -6.2032      2.00000
     44      -6.1384      2.00000
     45      -6.1084      2.00000
     46      -6.0846      2.00000
     47      -5.9282      2.00000
     48      -5.8935      2.00000
     49      -3.5501      2.00000
     50      -3.2005      2.00000
     51      -2.8494      2.00000
     52      -2.7418      2.00000
     53      -2.6281      2.00000
     54      -2.4656      2.00000
     55      -2.3675      2.00000
     56      -2.2801      2.00000
     57      -2.1348      2.00000
     58      -2.1246      2.00000
     59      -2.0736      2.00000
     60      -1.9927      2.00000
     61      -1.8737      2.00000
     62      -1.7628      2.00000
     63      -1.7098      2.00000
     64      -1.5870      2.00000
     65      -1.5684      2.00000
     66      -1.4763      2.00000
     67      -1.3910      2.00000
     68      -1.3069      2.00000
     69      -1.2702      2.00000
     70      -1.2481      2.00000
     71      -0.9591      2.00000
     72      -0.9103      2.00000
     73       0.2614      0.00000
     74       0.3087      0.00000
     75       0.5599      0.00000
     76       0.6414      0.00000
     77       0.6513      0.00000
[...]
      2     -29.2831      2.00000
      3     -28.2645      2.00000
      4     -28.2573      2.00000
      5     -28.2288      2.00000
      6     -28.2189      2.00000
      7     -28.1601      2.00000
      8     -28.1494      2.00000
      9     -14.6636      2.00000
     10     -14.6617      2.00000
     11     -14.5836      2.00000
     12     -14.5825      2.00000
     13     -14.5065      2.00000
     14     -14.5060      2.00000
     15     -13.9553      2.00000
     16     -13.8542      2.00000
     17     -13.7915      2.00000
     18     -13.7701      2.00000
     19     -13.7117      2.00000
     20     -13.6883      2.00000
     21     -13.6718      2.00000
     22     -13.6165      2.00000
     23     -13.5993      2.00000
     24     -13.5750      2.00000
     25     -13.5597      2.00000
     26     -13.5456      2.00000
     27     -13.4379      2.00000
     28     -13.4164      2.00000
     29     -13.3875      2.00000
     30     -13.3781      2.00000
     31     -13.3482      2.00000
     32     -13.3478      2.00000
     33     -11.3914      2.00000
     34     -11.2809      2.00000
     35     -10.9147      2.00000
     36     -10.8931      2.00000
     37      -6.6747      2.00000
     38      -6.6435      2.00000
     39      -6.4991      2.00000
     40      -6.4592      2.00000
     41      -6.4412      2.00000
     42      -6.4369      2.00000
     43      -6.2255      2.00000
     44      -6.1749      2.00000
     45      -6.1502      2.00000
     46      -6.0705      2.00000
     47      -5.8350      2.00000
     48      -5.8146      2.00000
     49      -3.8200      2.00000
     50      -3.3965      2.00000
     51      -2.9179      2.00000
     52      -2.8976      2.00000
     53      -2.6509      2.00000
     54      -2.4552      2.00000
     55      -2.3015      2.00000
     56      -2.2811      2.00000
     57      -2.1391      2.00000
     58      -2.0832      2.00000
     59      -1.9725      2.00000
     60      -1.9678      2.00000
     61      -1.7630      2.00000
     62      -1.7278      2.00000
     63      -1.6615      2.00000
     64      -1.6447      2.00000
     65      -1.5417      2.00000
     66      -1.4267      2.00000
     67      -1.4093      2.00000
     68      -1.2933      2.00000
     69      -1.2500      2.00000
     70      -1.2266      2.00000
     71      -1.0064      2.00000
     72      -0.8322      2.00000
     73       0.4693      0.00000
     74       0.4998      0.00000
     75       0.5149      0.00000
     76       0.5268      0.00000
     77       0.5581      0.00000
     78       0.6734      0.00000
     79       0.8391      0.00000
     80       0.9373      0.00000
     81       1.0591      0.00000
     82       1.2052      0.00000
     83       1.2514      0.00000
     84       1.3556      0.00000
     85       1.4049      0.00000
     86       1.5579      0.00000
     87       1.5674      0.00000
     88       1.6820      0.00000

 k-point    80 :       0.0000    0.0000    0.0000
  band No.  band energies     occupation 
      1     -29.2833      2.00000
      2     -29.2831      2.00000
      3     -28.2645      2.00000
      4     -28.2573      2.00000
      5     -28.2288      2.00000
      6     -28.2189      2.00000
      7     -28.1601      2.00000
      8     -28.1494      2.00000
      9     -14.6636      2.00000
     10     -14.6618      2.00000
     11     -14.5836      2.00000
     12     -14.5825      2.00000
     13     -14.5065      2.00000
     14     -14.5060      2.00000
     15     -13.9553      2.00000
     16     -13.8542      2.00000
     17     -13.7916      2.00000
     18     -13.7703      2.00000
     19     -13.7115      2.00000
     20     -13.6883      2.00000
     21     -13.6717      2.00000
     22     -13.6155      2.00000
     23     -13.6003      2.00000
     24     -13.5751      2.00000
     25     -13.5596      2.00000
     26     -13.5456      2.00000
     27     -13.4377      2.00000
     28     -13.4165      2.00000
     29     -13.3876      2.00000
     30     -13.3780      2.00000
     31     -13.3482      2.00000
     32     -13.3478      2.00000
     33     -11.3917      2.00000
     34     -11.2809      2.00000
     35     -10.9145      2.00000
     36     -10.8930      2.00000
     37      -6.6743      2.00000
     38      -6.6440      2.00000
     39      -6.4992      2.00000
     40      -6.4590      2.00000
     41      -6.4400      2.00000
     42      -6.4381      2.00000
     43      -6.2250      2.00000
     44      -6.1744      2.00000
     45      -6.1500      2.00000
     46      -6.0714      2.00000
     47      -5.8350      2.00000
     48      -5.8145      2.00000
     49      -3.8216      2.00000
     50      -3.3972      2.00000
     51      -2.9150      2.00000
     52      -2.9010      2.00000
     53      -2.6501      2.00000
     54      -2.4552      2.00000
     55      -2.3019      2.00000
     56      -2.2811      2.00000
     57      -2.1397      2.00000
     58      -2.0830      2.00000
     59      -1.9722      2.00000
     60      -1.9671      2.00000
     61      -1.7622      2.00000
     62      -1.7280      2.00000
     63      -1.6607      2.00000
     64      -1.6448      2.00000
     65      -1.5387      2.00000
     66      -1.4268      2.00000
     67      -1.4087      2.00000
     68      -1.2933      2.00000
     69      -1.2506      2.00000
     70      -1.2266      2.00000
     71      -1.0063      2.00000
     72      -0.8320      2.00000
     73       0.4690      0.00000
     74       0.5029      0.00000
     75       0.5136      0.00000
     76       0.5261      0.00000
     77       0.5566      0.00000
     78       0.6715      0.00000
     79       0.8390      0.00000
     80       0.9367      0.00000
     81       1.0581      0.00000
     82       1.2043      0.00000
     83       1.2507      0.00000
     84       1.3555      0.00000
     85       1.4034      0.00000
     86       1.5552      0.00000
     87       1.5689      0.00000
     88       1.6960      0.00000


--------------------------------------------------------------------------------------------------------


 soft charge-density along one line, spin component           1
         0         1         2         3         4         5         6         7         8         9
 total charge-density along one line
 
 pseudopotential strength for first ion, spin component:           1
  4.699  -5.489  -0.000  -0.008  -0.020  -0.000  -0.006  -0.016
 -5.489  -2.764   0.000   0.001   0.002  -0.000  -0.001  -0.003
 -0.000   0.000  -6.859   0.000  -0.000   1.830  -0.000  -0.000
 -0.008   0.001   0.000  -6.854  -0.001  -0.000   1.841  -0.003
 -0.020   0.002  -0.000  -0.001  -6.853  -0.000  -0.003   1.844
 -0.000  -0.000   1.830  -0.000  -0.000   7.274  -0.000  -0.000
 -0.006  -0.001  -0.000   1.841  -0.003  -0.000   7.275  -0.000
 -0.016  -0.003  -0.000  -0.003   1.844  -0.000  -0.000   7.275
 -0.000   0.000  -0.010  -0.000  -0.000  -0.007  -0.000  -0.000
 -0.000   0.000  -0.003  -0.000  -0.000  -0.001  -0.000  -0.000
  0.002  -0.001   0.000  -0.004   0.006   0.000  -0.003   0.004
 -0.002   0.001  -0.000  -0.010  -0.003  -0.000  -0.007  -0.002
  0.004  -0.001   0.000  -0.000  -0.010   0.000  -0.000  -0.007
  0.000   0.000   0.000   0.000   0.000   0.000   0.000   0.000
  0.000   0.000   0.000   0.000   0.000   0.000   0.000   0.000
 -0.000  -0.000  -0.000   0.000  -0.000  -0.000   0.000  -0.000
  0.000   0.000   0.000   0.000   0.000   0.000   0.000   0.000
 -0.000  -0.000  -0.000   0.000   0.000  -0.000   0.000   0.000
 total augmentation occupancy for first ion, spin component:           1
  2.355  -0.912   0.000   0.000   0.000   0.000   0.000   0.000   0.000   0.000   0.000   0.000   0.000   0.000   0.000   0.000
 -0.912   2.345   0.000   0.000   0.000   0.000   0.000   0.000   0.000   0.000   0.000   0.000   0.000   0.000   0.000   0.000
  0.000   0.000   2.000   0.000   0.000   0.000   0.000   0.000   0.000   0.000   0.000   0.000   0.000   0.000   0.000   0.000
  0.000   0.000   0.000   2.000   0.000   0.000   0.000   0.000   0.000   0.000   0.000   0.000   0.000   0.000   0.000   0.000
  0.000   0.000   0.000   0.000   2.000   0.000   0.000   0.000   0.000   0.000   0.000   0.000   0.000   0.000   0.000   0.000
  0.000   0.000   0.000   0.000   0.000   0.000   0.000   0.000   0.000   0.000   0.000   0.000   0.000   0.000   0.000   0.000
  0.000   0.000   0.000   0.000   0.000   0.000   0.000   0.000   0.000   0.000   0.000   0.000   0.000   0.000   0.000   0.000
  0.000   0.000   0.000   0.000   0.000   0.000   0.000   0.000   0.000   0.000   0.000   0.000   0.000   0.000   0.000   0.000
  0.000   0.000   0.000   0.000   0.000   0.000   0.000   0.000   0.002   0.000   0.000   0.000   0.000   0.000   0.000   0.000
  0.000   0.000   0.000   0.000   0.000   0.000   0.000   0.000   0.000   0.002   0.000   0.000   0.000   0.000   0.000   0.000
  0.000   0.000   0.000   0.000   0.000   0.000   0.000   0.000   0.000   0.000   0.002   0.000   0.000   0.000   0.000   0.000
  0.000   0.000   0.000   0.000   0.000   0.000   0.000   0.000   0.000   0.000   0.000   0.002   0.000   0.000   0.000   0.000
  0.000   0.000   0.000   0.000   0.000   0.000   0.000   0.000   0.000   0.000   0.000   0.000   0.002   0.000   0.000   0.000
  0.000   0.000   0.000   0.000   0.000   0.000   0.000   0.000   0.000   0.000   0.000   0.000   0.000   0.000   0.000   0.000
  0.000   0.000   0.000   0.000   0.000   0.000   0.000   0.000   0.000   0.000   0.000   0.000   0.000   0.000   0.000   0.000
  0.000   0.000   0.000   0.000   0.000   0.000   0.000   0.000   0.000   0.000   0.000   0.000   0.000   0.000   0.000   0.000
  0.000   0.000   0.000   0.000   0.000   0.000   0.000   0.000   0.000   0.000   0.000   0.000   0.000   0.000   0.000   0.000
  0.000   0.000   0.000   0.000   0.000   0.000   0.000   0.000   0.000   0.000   0.000   0.000   0.000   0.000   0.000   0.000


------------------------ aborting loop because EDIFF is reached ----------------------------------------


    CHARGE:  cpu time    0.7413: real time    0.7431
    FORLOC:  cpu time    0.0100: real time    0.0100
    FORNL :  cpu time    3.1065: real time    3.1376
    STRESS:  cpu time    8.8276: real time    8.8597
    FORCOR:  cpu time    2.3990: real time    2.4047
    FORHAR:  cpu time    0.0243: real time    0.0243
    OFIELD:  cpu time    0.0002: real time    0.0002

  FORCE on cell =-STRESS in cart. coord.  units (eV):
  Direction    XX          YY          ZZ          XY          YZ          ZX
  --------------------------------------------------------------------------------------
  Alpha Z   182.20216   182.20216   182.20216
  Ewald  -22349.57712 18464.17551 18054.14140     0.44121     0.11044   128.44059
  Hartree-19084.36563 20002.50307 19684.29828     0.19842     0.00793    91.80118
  E(xc)    -464.30823  -465.84604  -465.90397     0.00053     0.00058     0.02549
  Local   40002.60843-39916.27334-39179.16073    -0.63253    -0.12728  -216.47901
  n-local   335.71481   339.10276   341.00103    -0.01310     0.01608    -1.35099
  augment  -167.55862  -168.48702  -168.44825    -0.00109    -0.00060     0.31468
  Kinetic  1545.00453  1562.08904  1551.50007     0.06717     0.00135    -2.53084
  Fock        0.00000     0.00000     0.00000     0.00000     0.00000     0.00000
  -------------------------------------------------------------------------------------
  Total      -0.27967    -0.53386    -0.37000     0.06060     0.00851     0.22111
  in kB      -0.25368    -0.48424    -0.33561     0.05497     0.00772     0.20056
  external pressure =       -0.36 kB  Pullay stress =        0.00 kB


 VOLUME and BASIS-vectors are now :
 -----------------------------------------------------------------------------
  energy-cutoff  :      500.00
  volume of cell :     1766.34
      direct lattice vectors                 reciprocal lattice vectors
    24.009468079  0.000000000  0.000000000     0.041650236  0.000000000  0.000000000
     0.000000000  6.540361940  0.000000000     0.000000000  0.152896737  0.000000000
     0.000000000  0.000000000 11.248405831     0.000000000  0.000000000  0.088901487

  length of vectors
    24.009468079  6.540361940 11.248405831     0.041650236  0.152896737  0.088901487


 FORCES acting on ions
    electron-ion (+dipol)            ewald-force                    non-local-force                 convergence-correction
 -----------------------------------------------------------------------------------------------
   0.864E+03 0.109E-01 0.331E+02   -.860E+03 -.807E-02 -.319E+02   -.391E+01 -.274E-02 -.123E+01   -.769E-01 -.652E-03 0.527E-01
   -.864E+03 -.109E-01 -.331E+02   0.860E+03 0.807E-02 0.319E+02   0.391E+01 0.274E-02 0.123E+01   0.801E-01 0.463E-03 -.537E-01
   0.856E+02 -.107E-01 -.335E+02   -.855E+02 0.701E-02 0.331E+02   -.105E+00 0.347E-02 0.576E+00   -.252E-01 -.185E-02 -.131E+00
   -.856E+02 0.108E-01 0.335E+02   0.855E+02 -.702E-02 -.331E+02   0.105E+00 -.347E-02 -.576E+00   0.283E-01 0.224E-03 0.129E+00
   0.587E+03 0.436E-01 -.306E+02   -.586E+03 -.454E-01 0.302E+02   -.732E+00 0.140E-02 0.125E+00   -.582E-01 -.150E-02 0.232E+00
   -.587E+03 -.436E-01 0.306E+02   0.586E+03 0.454E-01 -.302E+02   0.732E+00 -.140E-02 -.125E+00   0.540E-01 0.190E-02 -.230E+00
   0.377E+03 -.186E-01 -.965E+01   -.376E+03 0.115E-01 0.926E+01   -.834E+00 0.480E-02 0.503E+00   -.109E+00 0.129E-02 -.651E-01
   -.377E+03 0.186E-01 0.965E+01   0.376E+03 -.115E-01 -.926E+01   0.834E+00 -.480E-02 -.503E+00   0.105E+00 -.100E-02 0.684E-01
   0.320E+03 0.363E+02 -.432E+02   -.320E+03 -.379E+02 0.441E+02   -.435E+00 0.158E+01 -.903E+00   -.683E-01 0.166E-01 -.462E-01
   -.320E+03 -.363E+02 0.432E+02   0.320E+03 0.379E+02 -.441E+02   0.435E+00 -.158E+01 0.903E+00   0.681E-01 -.167E-01 0.460E-01
   0.142E+03 -.309E+02 0.620E+01   -.141E+03 0.321E+02 -.561E+01   -.670E+00 -.127E+01 -.621E+00   0.138E-01 0.265E-01 0.195E-01
   -.142E+03 0.309E+02 -.620E+01   0.141E+03 -.321E+02 0.561E+01   0.670E+00 0.127E+01 0.621E+00   -.141E-01 -.261E-01 -.197E-01
   -.320E+03 0.363E+02 0.431E+02   0.320E+03 -.379E+02 -.441E+02   0.443E+00 0.157E+01 0.910E+00   0.677E-01 0.165E-01 0.466E-01
   0.320E+03 -.363E+02 -.431E+02   -.320E+03 0.379E+02 0.441E+02   -.443E+00 -.157E+01 -.910E+00   -.678E-01 -.164E-01 -.467E-01
   -.141E+03 -.309E+02 -.612E+01   0.141E+03 0.321E+02 0.552E+01   0.676E+00 -.126E+01 0.625E+00   -.143E-01 0.264E-01 -.197E-01
   0.141E+03 0.309E+02 0.612E+01   -.141E+03 -.321E+02 -.552E+01   -.676E+00 0.126E+01 -.625E+00   0.143E-01 -.266E-01 0.192E-01
   0.368E+03 -.387E-02 0.303E+02   -.369E+03 0.597E-02 -.298E+02   0.164E+01 -.343E-02 -.485E+00   -.821E-01 0.758E-04 -.485E-01
   -.368E+03 0.386E-02 -.303E+02   0.369E+03 -.597E-02 0.298E+02   -.164E+01 0.343E-02 0.485E+00   0.819E-01 0.124E-03 0.483E-01
   0.688E+02 0.313E-01 -.734E+01   -.666E+02 -.278E-01 0.721E+01   -.214E+01 -.953E-02 0.175E+00   -.518E-01 0.777E-03 -.310E-01
   -.688E+02 -.313E-01 0.734E+01   0.666E+02 0.278E-01 -.721E+01   0.214E+01 0.953E-02 -.175E+00   0.523E-01 -.631E-03 0.311E-01
   0.297E+03 -.363E-01 0.717E+01   -.297E+03 0.369E-01 -.870E+01   0.386E+00 -.247E-02 0.146E+01   -.343E-01 0.411E-03 0.646E-01
   -.297E+03 0.363E-01 -.717E+01   0.297E+03 -.369E-01 0.870E+01   -.386E+00 0.247E-02 -.146E+01   0.337E-01 -.449E-03 -.648E-01
   0.222E+03 0.481E-01 0.592E+02   -.221E+03 -.516E-01 -.613E+02   -.764E+00 0.529E-02 0.210E+01   -.656E-01 -.362E-03 -.454E-01
   -.222E+03 -.481E-01 -.592E+02   0.221E+03 0.516E-01 0.613E+02   0.764E+00 -.529E-02 -.210E+01   0.650E-01 0.321E-03 0.459E-01
 -----------------------------------------------------------------------------------------------
   0.130E-03 0.929E-04 0.827E-04   0.853E-13 0.173E-13 -.711E-14   -.777E-15 0.000E+00 0.444E-15   -.314E-02 -.684E-03 0.191E-02
 
 
 POSITION                                       TOTAL-FORCE (eV/Angst)
 -----------------------------------------------------------------------------------
      0.24668      1.75847      8.04631         0.037486     -0.000459     -0.050006
      8.76278      5.01938      3.55583        -0.037486      0.000459      0.050006
      4.25602      5.02493      2.35470        -0.060433     -0.001306     -0.018149
      4.75345      1.75292      9.24744         0.060433      0.001306      0.018149
      2.07622      5.02752     10.46608        -0.003935     -0.002144      0.001684
      6.93325      1.75033      1.13606         0.003935      0.002144     -0.001684
      3.13155      1.75546      4.60789        -0.018713     -0.001177      0.045427
      5.87792      5.02239      6.99425         0.018713      0.001177     -0.045427
      1.52662      0.55457      1.86569         0.025147      0.024200      0.002218
      7.48285      6.22328      9.73645        -0.025147     -0.024200     -0.002218
      2.77266      6.22674      7.38899        -0.025226     -0.040470     -0.009124
      6.23681      0.55111      4.21315         0.025226      0.040470      0.009124
      7.48126      3.82064      9.73506        -0.026481      0.023281     -0.004233
      1.52821      2.95720      1.86708         0.026481     -0.023281      0.004233
      6.23579      2.94767      4.21022         0.025507     -0.044681      0.006000
      2.77368      3.83018      7.39192        -0.025507      0.044681     -0.006000
      0.67598      5.02852      7.09321         0.022531     -0.001347      0.024247
      8.33348      1.74933      4.50893        -0.022531      0.001347     -0.024247
      3.53847      1.75629      1.09498         0.008998     -0.005317      0.006048
      5.47100      5.02156     10.50716        -0.008998      0.005317     -0.006048
      1.51773      1.75741     11.02077         0.008922     -0.001404     -0.001700
      7.49174      5.02044      0.58137        -0.008922      0.001404      0.001700
      2.33842      5.02508      5.32627         0.011634      0.001394     -0.017475
      6.67104      1.75277      6.27587        -0.011634     -0.001394      0.017475
 -----------------------------------------------------------------------------------
    total drift:                               -0.003014     -0.000591      0.001990


--------------------------------------------------------------------------------------------------------



  FREE ENERGIE OF THE ION-ELECTRON SYSTEM (eV)
  ---------------------------------------------------
  free  energy   TOTEN  =       -91.27630604 eV

  energy  without entropy=      -91.27630604  energy(sigma->0) =      -91.27630604
 


--------------------------------------------------------------------------------------------------------


    POTLOK:  cpu time    2.7957: real time    2.8024


--------------------------------------------------------------------------------------------------------


 writing wavefunctions
     LOOP+:  cpu time  206.7652: real time  212.1711
    4ORBIT:  cpu time    0.0001: real time    0.0002

 total amount of memory used by VASP MPI-rank0   206642. kBytes
=======================================================================

   base      :      30000. kBytes
   nonlr-proj:       2554. kBytes
   fftplans  :       5316. kBytes
   grid      :       7942. kBytes
   one-center:         93. kBytes
   wavefun   :     160737. kBytes
 
  
  
 General timing and accounting informations for this job:
 ========================================================
  
                  Total CPU time used (sec):      234.898
                            User time (sec):      230.694
                          System time (sec):        4.204
                         Elapsed time (sec):      246.775
  
                   Maximum memory used (kb):      441468.
                   Average memory used (kb):           0.
  
                          Minor page faults:        30992
                          Major page faults:          278
                 Voluntary context switches:        21289
