<?xml version="1.0" encoding="ISO-8859-1"?>
<modeling>
 <generator>
  <i name="program" type="string">vasp </i>
  <i name="version" type="string">5.4.4.18Apr17-6-g9f103f2a35  </i>
  <i name="subversion" type="string">(build Nov 21 2017 15:30:27) complex            parallel </i>
  <i name="platform" type="string">LinuxIFC </i>
  <i name="date" type="string">2020 11 09 </i>
  <i name="time" type="string">11:51:34 </i>
 </generator>
 <incar>
  <i type="string" name="PREC">normal</i>
  <i type="int" name="ICHARG">    11</i>
  <i type="int" name="NELM">   100</i>
  <i name="EDIFF">      0.00000100</i>
  <i name="EDIFFG">     -0.01000000</i>
  <i name="ENCUT">    500.00000000</i>
  <i name="POTIM">      0.30000000</i>
  <i type="string" name="LREAL"> Auto       ! Projection in reciprocal s</i>
  <i type="int" name="ISMEAR">     0</i>
  <i name="SIGMA">      0.01000000</i>
  <i type="logical" name="LWAVE"> T  </i>
  <i type="logical" name="LCHARG"> T  </i>
  <i type="logical" name="LASPH"> T  </i>
  <v type="int" name="KPOINT_BSE">    -1     0     0     0</v>
  <i type="int" name="NELM">   100</i>
  <i type="string" name="GGA"> MK</i>
  <i name="PARAM1">      0.12340000</i>
  <i name="PARAM2">      0.71135700</i>
  <i type="logical" name="LUSE_VDW"> T  </i>
  <i name="Zab_VDW">     -1.88670000</i>
  <i name="AGGAC">      0.00000000</i>
  <i type="logical" name="LASPH"> T  </i>
 </incar>
 <structure name="primitive_cell" >
  <crystal>
   <varray name="basis" >
    <v>      24.00946808       0.00000000       0.00000000 </v>
    <v>       0.00000000       6.54036194       0.00000000 </v>
    <v>       0.00000000       0.00000000      11.24840583 </v>
   </varray>
   <i name="volume">   1766.34404299 </i>
   <varray name="rec_basis" >
    <v>       0.04165024       0.00000000       0.00000000 </v>
    <v>       0.00000000       0.15289674       0.00000000 </v>
    <v>       0.00000000       0.00000000       0.08890149 </v>
   </varray>
  </crystal>
  <varray name="positions" >
   <v>       0.01027447       0.26886387      -0.28467099 </v>
   <v>       0.06321363       0.26870167      -0.02023704 </v>
   <v>       0.11552438      -0.41437824      -0.34284718 </v>
   <v>       0.11548180      -0.04795210      -0.34310756 </v>
   <v>       0.02815493      -0.23115505      -0.36940310 </v>
   <v>       0.08647491      -0.23130824      -0.06954972 </v>
   <v>       0.13042964       0.26840416       0.40964849 </v>
   <v>       0.19798212       0.26801551      -0.17788895 </v>
   <v>       0.09739594      -0.23168174       0.47351325 </v>
   <v>       0.06358407       0.08479145       0.16586303 </v>
   <v>       0.06365038       0.45214695       0.16598663 </v>
   <v>       0.14737799       0.26853035       0.09734576 </v>
   <v>       0.24481683      -0.23209304      -0.37820066 </v>
   <v>       0.22786848      -0.23221923      -0.06589799 </v>
   <v>       0.27785053       0.26799285      -0.44206554 </v>
   <v>       0.25972208       0.45068934       0.37429497 </v>
   <v>       0.25976467       0.08426319       0.37455534 </v>
   <v>       0.17726435      -0.23170440       0.20933671 </v>
   <v>       0.31159608      -0.41583585      -0.13453887 </v>
   <v>       0.31166240      -0.04848036      -0.13441527 </v>
   <v>       0.28877156       0.26761936       0.10099748 </v>
   <v>       0.31203283      -0.23239055       0.05168484 </v>
   <v>       0.34709153       0.26746616       0.40085088 </v>
   <v>       0.36497200      -0.23255275       0.31611878 </v>
  </varray>
 </structure>
 <varray name="primitive_index" >
  <v type="int" >        1 </v>
  <v type="int" >       21 </v>
  <v type="int" >       16 </v>
  <v type="int" >       11 </v>
  <v type="int" >       17 </v>
  <v type="int" >        5 </v>
  <v type="int" >        7 </v>
  <v type="int" >        4 </v>
  <v type="int" >       23 </v>
  <v type="int" >        9 </v>
  <v type="int" >       14 </v>
  <v type="int" >       19 </v>
  <v type="int" >        8 </v>
  <v type="int" >       20 </v>
  <v type="int" >       24 </v>
  <v type="int" >       15 </v>
  <v type="int" >       12 </v>
  <v type="int" >        3 </v>
  <v type="int" >       13 </v>
  <v type="int" >       10 </v>
  <v type="int" >        6 </v>
  <v type="int" >       22 </v>
  <v type="int" >       18 </v>
  <v type="int" >        2 </v>
 </varray>
 <kpoints>
  <generation param="listgenerated">
   <i name="divisions" type="int">      20 </i>
   <v>       0.00000000       0.00000000       0.00000000 </v>
   <v>       0.00000000       0.50000000       0.00000000 </v>
   <v>       0.00000000       0.50000000       0.50000000 </v>
   <v>       0.00000000       0.00000000       0.50000000 </v>
   <v>       0.00000000       0.00000000       0.00000000 </v>
  </generation>
  <varray name="kpointlist" >
   <v>       0.00000000       0.00000000       0.00000000 </v>
   <v>       0.00000000       0.02631579       0.00000000 </v>
   <v>       0.00000000       0.05263158       0.00000000 </v>
   <v>       0.00000000       0.07894737       0.00000000 </v>
   <v>       0.00000000       0.10526316       0.00000000 </v>
   <v>       0.00000000       0.13157895       0.00000000 </v>
   <v>       0.00000000       0.15789474       0.00000000 </v>
   <v>       0.00000000       0.18421053       0.00000000 </v>
   <v>       0.00000000       0.21052632       0.00000000 </v>
   <v>       0.00000000       0.23684211       0.00000000 </v>
   <v>       0.00000000       0.26315789       0.00000000 </v>
   <v>       0.00000000       0.28947368       0.00000000 </v>
   <v>       0.00000000       0.31578947       0.00000000 </v>
   <v>       0.00000000       0.34210526       0.00000000 </v>
   <v>       0.00000000       0.36842105       0.00000000 </v>
   <v>       0.00000000       0.39473684       0.00000000 </v>
   <v>       0.00000000       0.42105263       0.00000000 </v>
   <v>       0.00000000       0.44736842       0.00000000 </v>
   <v>       0.00000000       0.47368421       0.00000000 </v>
   <v>       0.00000000       0.50000000       0.00000000 </v>
   <v>       0.00000000       0.50000000       0.00000000 </v>
   <v>       0.00000000       0.50000000       0.02631579 </v>
   <v>       0.00000000       0.50000000       0.05263158 </v>
   <v>       0.00000000       0.50000000       0.07894737 </v>
   <v>       0.00000000       0.50000000       0.10526316 </v>
   <v>       0.00000000       0.50000000       0.13157895 </v>
   <v>       0.00000000       0.50000000       0.15789474 </v>
   <v>       0.00000000       0.50000000       0.18421053 </v>
   <v>       0.00000000       0.50000000       0.21052632 </v>
   <v>       0.00000000       0.50000000       0.23684211 </v>
   <v>       0.00000000       0.50000000       0.26315789 </v>
   <v>       0.00000000       0.50000000       0.28947368 </v>
   <v>       0.00000000       0.50000000       0.31578947 </v>
   <v>       0.00000000       0.50000000       0.34210526 </v>
   <v>       0.00000000       0.50000000       0.36842105 </v>
   <v>       0.00000000       0.50000000       0.39473684 </v>
   <v>       0.00000000       0.50000000       0.42105263 </v>
   <v>       0.00000000       0.50000000       0.44736842 </v>
   <v>       0.00000000       0.50000000       0.47368421 </v>
   <v>       0.00000000       0.50000000       0.50000000 </v>
   <v>       0.00000000       0.50000000       0.50000000 </v>
   <v>       0.00000000       0.47368421       0.50000000 </v>
   <v>       0.00000000       0.44736842       0.50000000 </v>
   <v>       0.00000000       0.42105263       0.50000000 </v>
   <v>       0.00000000       0.39473684       0.50000000 </v>
   <v>       0.00000000       0.36842105       0.50000000 </v>
   <v>       0.00000000       0.34210526       0.50000000 </v>
   <v>       0.00000000       0.31578947       0.50000000 </v>
   <v>       0.00000000       0.28947368       0.50000000 </v>
   <v>       0.00000000       0.26315789       0.50000000 </v>
   <v>       0.00000000       0.23684211       0.50000000 </v>
   <v>       0.00000000       0.21052632       0.50000000 </v>
   <v>       0.00000000       0.18421053       0.50000000 </v>
   <v>       0.00000000       0.15789474       0.50000000 </v>
   <v>       0.00000000       0.13157895       0.50000000 </v>
   <v>       0.00000000       0.10526316       0.50000000 </v>
   <v>       0.00000000       0.07894737       0.50000000 </v>
   <v>       0.00000000       0.05263158       0.50000000 </v>
   <v>       0.00000000       0.02631579       0.50000000 </v>
   <v>       0.00000000       0.00000000       0.50000000 </v>
   <v>       0.00000000       0.00000000       0.50000000 </v>
   <v>       0.00000000       0.00000000       0.47368421 </v>
   <v>       0.00000000       0.00000000       0.44736842 </v>
   <v>       0.00000000       0.00000000       0.42105263 </v>
   <v>       0.00000000       0.00000000       0.39473684 </v>
   <v>       0.00000000       0.00000000       0.36842105 </v>
   <v>       0.00000000       0.00000000       0.34210526 </v>
   <v>       0.00000000       0.00000000       0.31578947 </v>
   <v>       0.00000000       0.00000000       0.28947368 </v>
   <v>       0.00000000       0.00000000       0.26315789 </v>
   <v>       0.00000000       0.00000000       0.23684211 </v>
   <v>       0.00000000       0.00000000       0.21052632 </v>
   <v>       0.00000000       0.00000000       0.18421053 </v>
   <v>       0.00000000       0.00000000       0.15789474 </v>
   <v>       0.00000000       0.00000000       0.13157895 </v>
   <v>       0.00000000       0.00000000       0.10526316 </v>
   <v>       0.00000000       0.00000000       0.07894737 </v>
   <v>       0.00000000       0.00000000       0.05263158 </v>
   <v>       0.00000000       0.00000000       0.02631579 </v>
   <v>       0.00000000       0.00000000       0.00000000 </v>
  </varray>
  <varray name="weights" >
   <v>       0.01250000 </v>
   <v>       0.01250000 </v>
   <v>       0.01250000 </v>
   <v>       0.01250000 </v>
   <v>       0.01250000 </v>
   <v>       0.01250000 </v>
   <v>       0.01250000 </v>
   <v>       0.01250000 </v>
   <v>       0.01250000 </v>
   <v>       0.01250000 </v>
   <v>       0.01250000 </v>
   <v>       0.01250000 </v>
   <v>       0.01250000 </v>
   <v>       0.01250000 </v>
   <v>       0.01250000 </v>
   <v>       0.01250000 </v>
   <v>       0.01250000 </v>
   <v>       0.01250000 </v>
   <v>       0.01250000 </v>
   <v>       0.01250000 </v>
   <v>       0.01250000 </v>
   <v>       0.01250000 </v>
   <v>       0.01250000 </v>
   <v>       0.01250000 </v>
   <v>       0.01250000 </v>
   <v>       0.01250000 </v>
   <v>       0.01250000 </v>
   <v>       0.01250000 </v>
   <v>       0.01250000 </v>
   <v>       0.01250000 </v>
   <v>       0.01250000 </v>
   <v>       0.01250000 </v>
   <v>       0.01250000 </v>
   <v>       0.01250000 </v>
   <v>       0.01250000 </v>
   <v>       0.01250000 </v>
   <v>       0.01250000 </v>
   <v>       0.01250000 </v>
   <v>       0.01250000 </v>
   <v>       0.01250000 </v>
   <v>       0.01250000 </v>
   <v>       0.01250000 </v>
   <v>       0.01250000 </v>
   <v>       0.01250000 </v>
   <v>       0.01250000 </v>
   <v>       0.01250000 </v>
   <v>       0.01250000 </v>
   <v>       0.01250000 </v>
   <v>       0.01250000 </v>
   <v>       0.01250000 </v>
   <v>       0.01250000 </v>
   <v>       0.01250000 </v>
   <v>       0.01250000 </v>
   <v>       0.01250000 </v>
   <v>       0.01250000 </v>
   <v>       0.01250000 </v>
   <v>       0.01250000 </v>
   <v>       0.01250000 </v>
   <v>       0.01250000 </v>
   <v>       0.01250000 </v>
   <v>       0.01250000 </v>
   <v>       0.01250000 </v>
   <v>       0.01250000 </v>
   <v>       0.01250000 </v>
   <v>       0.01250000 </v>
   <v>       0.01250000 </v>
   <v>       0.01250000 </v>
   <v>       0.01250000 </v>
   <v>       0.01250000 </v>
   <v>       0.01250000 </v>
   <v>       0.01250000 </v>
   <v>       0.01250000 </v>
   <v>       0.01250000 </v>
   <v>       0.01250000 </v>
   <v>       0.01250000 </v>
   <v>       0.01250000 </v>
   <v>       0.01250000 </v>
   <v>       0.01250000 </v>
   <v>       0.01250000 </v>
   <v>       0.01250000 </v>
  </varray>
 </kpoints>
 <parameters>
  <separator name="general" >
   <i type="string" name="SYSTEM">unknown system</i>
   <i type="logical" name="LCOMPAT"> F  </i>
  </separator>
  <separator name="electronic" >
   <i type="string" name="PREC">normal</i>
   <i name="ENMAX">    500.00000000</i>
   <i name="ENAUG">    351.16500000</i>
   <i name="EDIFF">      0.00000100</i>
   <i type="int" name="IALGO">    38</i>
   <i type="int" name="IWAVPR">    10</i>
   <i type="int" name="NBANDS">    88</i>
   <i name="NELECT">    144.00000000</i>
   <i type="int" name="TURBO">     0</i>
   <i type="int" name="IRESTART">     0</i>
   <i type="int" name="NREBOOT">     0</i>
   <i type="int" name="NMIN">     0</i>
   <i name="EREF">      0.00000000</i>
   <separator name="electronic smearing" >
    <i type="int" name="ISMEAR">     0</i>
    <i name="SIGMA">      0.01000000</i>
    <i name="KSPACING">      0.50000000</i>
    <i type="logical" name="KGAMMA"> T  </i>
   </separator>
   <separator name="electronic projectors" >
    <i type="logical" name="LREAL"> T  </i>
    <v name="ROPT">     -0.00050000     -0.00050000</v>
    <i type="int" name="LMAXPAW">  -100</i>
    <i type="int" name="LMAXMIX">     2</i>
    <i type="logical" name="NLSPLINE"> F  </i>
   </separator>
   <separator name="electronic startup" >
    <i type="int" name="ISTART">     0</i>
    <i type="int" name="ICHARG">    11</i>
    <i type="int" name="INIWAV">     1</i>
   </separator>
   <separator name="electronic spin" >
    <i type="int" name="ISPIN">     1</i>
    <i type="logical" name="LNONCOLLINEAR"> F  </i>
    <v name="MAGMOM">      1.00000000      1.00000000      1.00000000      1.00000000      1.00000000      1.00000000      1.00000000      1.00000000      1.00000000      1.00000000      1.00000000      1.00000000      1.00000000      1.00000000      1.00000000      1.00000000      1.00000000      1.00000000      1.00000000      1.00000000
      1.00000000      1.00000000      1.00000000      1.00000000</v>
    <i name="NUPDOWN">     -1.00000000</i>
    <i type="logical" name="LSORBIT"> F  </i>
    <v name="SAXIS">      0.00000000      0.00000000      1.00000000</v>
    <i type="logical" name="LSPIRAL"> F  </i>
    <v name="QSPIRAL">      0.00000000      0.00000000      0.00000000</v>
    <i type="logical" name="LZEROZ"> F  </i>
   </separator>
   <separator name="electronic exchange-correlation" >
    <i type="logical" name="LASPH"> T  </i>
    <i type="logical" name="LMETAGGA"> F  </i>
   </separator>
   <separator name="electronic convergence" >
    <i type="int" name="NELM">   100</i>
    <i type="int" name="NELMDL">    -5</i>
    <i type="int" name="NELMIN">     2</i>
    <i name="ENINI">    500.00000000</i>
    <separator name="electronic convergence detail" >
     <i type="logical" name="LDIAG"> T  </i>
     <i type="logical" name="LSUBROT"> F  </i>
     <i name="WEIMIN">      0.00000000</i>
     <i name="EBREAK">      0.00000000</i>
     <i name="DEPER">      0.30000000</i>
     <i type="int" name="NRMM">     4</i>
     <i name="TIME">      0.40000000</i>
    </separator>
   </separator>
   <separator name="electronic mixer" >
    <i name="AMIX">      0.40000000</i>
    <i name="BMIX">      1.00000000</i>
    <i name="AMIN">      0.10000000</i>
    <i name="AMIX_MAG">      1.60000000</i>
    <i name="BMIX_MAG">      1.00000000</i>
    <separator name="electronic mixer details" >
     <i type="int" name="IMIX">     4</i>
     <i type="logical" name="MIXFIRST"> F  </i>
     <i type="int" name="MAXMIX">   -45</i>
     <i name="WC">    100.00000000</i>
     <i type="int" name="INIMIX">     1</i>
     <i type="int" name="MIXPRE">     1</i>
     <i type="int" name="MREMOVE">     5</i>
    </separator>
   </separator>
   <separator name="electronic dipolcorrection" >
    <i type="logical" name="LDIPOL"> F  </i>
    <i type="logical" name="LMONO"> F  </i>
    <i type="int" name="IDIPOL">     0</i>
    <i name="EPSILON">      1.00000000</i>
    <v name="DIPOL">   -100.00000000   -100.00000000   -100.00000000</v>
    <i name="EFIELD">      0.00000000</i>
   </separator>
  </separator>
  <separator name="grids" >
   <i type="int" name="NGX">   140</i>
   <i type="int" name="NGY">    36</i>
   <i type="int" name="NGZ">    64</i>
   <i type="int" name="NGXF">   280</i>
   <i type="int" name="NGYF">    72</i>
   <i type="int" name="NGZF">   128</i>
   <i type="logical" name="ADDGRID"> F  </i>
  </separator>
  <separator name="ionic" >
   <i type="int" name="NSW">     0</i>
   <i type="int" name="IBRION">    -1</i>
   <i type="int" name="MDALGO">     0</i>
   <i type="int" name="ISIF">     2</i>
   <i name="PSTRESS">      0.00000000</i>
   <i name="EDIFFG">     -0.01000000</i>
   <i type="int" name="NFREE">     0</i>
   <i name="POTIM">      0.30000000</i>
   <i name="SMASS">     -3.00000000</i>
   <i name="SCALEE">      1.00000000</i>
  </separator>
  <separator name="ionic md" >
   <i name="TEBEG">      0.00010000</i>
   <i name="TEEND">      0.00010000</i>
   <i type="int" name="NBLOCK">     1</i>
   <i type="int" name="KBLOCK">     1</i>
   <i type="int" name="NPACO">   256</i>
   <i name="APACO">     16.00000000</i>
  </separator>
  <separator name="symmetry" >
   <i type="int" name="ISYM">     2</i>
   <i name="SYMPREC">      0.00001000</i>
  </separator>
  <separator name="dos" >
   <i type="int" name="LORBIT">     0</i>
   <v name="RWIGS">     -1.00000000     -1.00000000</v>
   <i type="int" name="NEDOS">   301</i>
   <i name="EMIN">     10.00000000</i>
   <i name="EMAX">    -10.00000000</i>
   <i name="EFERMI">      0.00000000</i>
  </separator>
  <separator name="writing" >
   <i type="int" name="NWRITE">     2</i>
   <i type="logical" name="LWAVE"> T  </i>
   <i type="logical" name="LDOWNSAMPLE"> F  </i>
   <i type="logical" name="LCHARG"> T  </i>
   <i type="logical" name="LPARD"> F  </i>
   <i type="logical" name="LVTOT"> F  </i>
   <i type="logical" name="LVHAR"> F  </i>
   <i type="logical" name="LELF"> F  </i>
   <i type="logical" name="LOPTICS"> F  </i>
   <v name="STM">      0.00000000      0.00000000      0.00000000      0.00000000      0.00000000      0.00000000      0.00000000</v>
  </separator>
  <separator name="performance" >
   <i type="int" name="NPAR">     8</i>
   <i type="int" name="NSIM">     4</i>
   <i type="int" name="NBLK">    -1</i>
   <i type="logical" name="LPLANE"> T  </i>
   <i type="logical" name="LSCALAPACK"> T  </i>
   <i type="logical" name="LSCAAWARE"> F  </i>
   <i type="logical" name="LSCALU"> F  </i>
   <i type="logical" name="LASYNC"> F  </i>
   <i type="logical" name="LORBITALREAL"> F  </i>
  </separator>
  <separator name="miscellaneous" >
   <i type="int" name="IDIOT">     3</i>
   <i type="int" name="ISPECIAL">     0</i>
   <i type="logical" name="LMUSIC"> F  </i>
   <v name="POMASS">    137.32700000     28.08500000</v>
   <v name="DARWINR">      0.00000000      0.00000000</v>
   <v name="DARWINV">      1.00000000      1.00000000</v>
   <i type="logical" name="LCORR"> T  </i>
  </separator>
  <i type="logical" name="GGA_COMPAT"> T  </i>
  <i type="logical" name="LBERRY"> F  </i>
  <i type="int" name="ICORELEVEL">     0</i>
  <i type="logical" name="LDAU"> F  </i>
  <i type="int" name="I_CONSTRAINED_M">     0</i>
  <separator name="electronic exchange-correlation" >
   <i type="string" name="GGA">MK</i>
   <i type="int" name="VOSKOWN">     0</i>
   <i type="logical" name="LHFCALC"> F  </i>
   <i type="string" name="PRECFOCK"></i>
   <i type="logical" name="LSYMGRAD"> F  </i>
   <i type="logical" name="LHFONE"> F  </i>
   <i type="logical" name="LRHFCALC"> F  </i>
   <i type="logical" name="LTHOMAS"> F  </i>
   <i type="logical" name="LMODELHF"> F  </i>
   <i name="ENCUT4O">     -1.00000000</i>
   <i type="int" name="EXXOEP">     0</i>
   <i type="int" name="FOURORBIT">     0</i>
   <i name="AEXX">      0.00000000</i>
   <i name="HFALPHA">      0.00000000</i>
   <i name="MCALPHA">      0.00000000</i>
   <i name="ALDAX">      1.00000000</i>
   <i name="AGGAX">      1.00000000</i>
   <i name="ALDAC">      1.00000000</i>
   <i name="AGGAC">      0.00000000</i>
   <i type="int" name="NKREDX">     1</i>
   <i type="int" name="NKREDY">     1</i>
   <i type="int" name="NKREDZ">     1</i>
   <i type="logical" name="SHIFTRED"> F  </i>
   <i type="logical" name="ODDONLY"> F  </i>
   <i type="logical" name="EVENONLY"> F  </i>
   <i type="int" name="LMAXFOCK">     0</i>
   <i type="int" name="NMAXFOCKAE">     0</i>
   <i type="logical" name="LFOCKAEDFT"> F  </i>
   <i name="HFSCREEN">      0.00000000</i>
   <i name="HFSCREENC">      0.00000000</i>
   <i type="int" name="NBANDSGWLOW">     0</i>
  </separator>
  <separator name="vdW DFT" >
   <i type="logical" name="LUSE_VDW"> T  </i>
   <i name="Zab_VDW">     -1.88670000</i>
   <i name="PARAM1">      0.12340000</i>
   <i name="PARAM2">      0.71135700</i>
   <i name="PARAM3">      0.00000000</i>
  </separator>
  <separator name="model GW" >
   <i type="int" name="MODEL_GW">     0</i>
   <i name="MODEL_EPS0">     44.15860107</i>
   <i name="MODEL_ALPHA">      1.00000000</i>
  </separator>
  <separator name="linear response parameters" >
   <i type="logical" name="LEPSILON"> F  </i>
   <i type="logical" name="LRPA"> F  </i>
   <i type="logical" name="LNABLA"> F  </i>
   <i type="logical" name="LVEL"> F  </i>
   <i type="int" name="KINTER">     0</i>
   <i name="CSHIFT">      0.10000000</i>
   <i name="OMEGAMAX">     -1.00000000</i>
   <i name="DEG_THRESHOLD">      0.00200000</i>
   <i name="RTIME">     -0.10000000</i>
   <i name="WPLASMAI">      0.00000000</i>
   <v name="DFIELD">      0.00000000      0.00000000      0.00000000</v>
   <v name="WPLASMA">      0.00000000      0.00000000      0.00000000      0.00000000      0.00000000      0.00000000      0.00000000      0.00000000      0.00000000</v>
  </separator>
  <separator name="orbital magnetization" >
   <i type="logical" name="NUCIND"> F  </i>
   <v name="MAGPOS">      0.00000000      0.00000000      0.00000000</v>
   <i type="logical" name="LNICSALL"> T  </i>
   <i type="logical" name="ORBITALMAG"> F  </i>
   <i type="logical" name="LMAGBLOCH"> F  </i>
   <i type="logical" name="LCHIMAG"> F  </i>
   <i type="logical" name="LGAUGE"> T  </i>
   <i type="int" name="MAGATOM">     0</i>
   <v name="MAGDIPOL">      0.00000000      0.00000000      0.00000000</v>
   <v name="AVECCONST">      0.00000000      0.00000000      0.00000000</v>
  </separator>
  <separator name="response functions" >
   <i type="logical" name="LADDER"> F  </i>
   <i type="logical" name="LRPAFORCE"> F  </i>
   <i type="logical" name="LFXC"> F  </i>
   <i type="logical" name="LHARTREE"> T  </i>
   <i type="int" name="IBSE">     0</i>
   <v type="int" name="KPOINT">    -1     0     0     0</v>
   <i type="logical" name="LTCTE"> F  </i>
   <i type="logical" name="LTETE"> F  </i>
   <i type="logical" name="LTRIPLET"> F  </i>
   <i type="logical" name="LFXCEPS"> F  </i>
   <i type="logical" name="LFXHEG"> F  </i>
   <i type="int" name="NATURALO">     2</i>
   <i type="logical" name="L2ORDER"> F  </i>
   <i type="logical" name="LMP2LT"> F  </i>
   <i type="logical" name="LUSEW"> F  </i>
   <i name="ENCUTGW">     -2.00000000</i>
   <i name="ENCUTGWSOFT">     -2.00000000</i>
   <i name="ENCUTLF">     -1.00000000</i>
   <i type="int" name="LMAXMP2">    -1</i>
   <i name="SCISSOR">      0.00000000</i>
   <i type="int" name="NOMEGA">     0</i>
   <i type="int" name="NOMEGAR">     0</i>
   <i type="int" name="NBANDSGW">    -1</i>
   <i type="int" name="NBANDSO">    -1</i>
   <i type="int" name="NBANDSV">    -1</i>
   <i type="int" name="NELM">   100</i>
   <i type="int" name="NELMHF">     1</i>
   <i type="int" name="DIM">     3</i>
   <i type="int" name="ANTIRES">     0</i>
   <i name="OMEGAMAX">    -30.00000000</i>
   <i name="OMEGAMIN">    -30.00000000</i>
   <i name="OMEGATL">   -200.00000000</i>
   <i type="int" name="OMEGAGRID">   140</i>
   <i name="CSHIFT">     -0.10000000</i>
   <i type="logical" name="SELFENERGY"> F  </i>
   <i type="logical" name="LSPECTRAL"> F  </i>
   <i type="logical" name="LSPECTRALGW"> F  </i>
   <i type="logical" name="LSINGLES"> F  </i>
   <i type="logical" name="LFERMIGW"> F  </i>
   <i type="logical" name="ODDONLYGW"> F  </i>
   <i type="logical" name="EVENONLYGW"> F  </i>
   <i type="int" name="NKREDLFX">     1</i>
   <i type="int" name="NKREDLFY">     1</i>
   <i type="int" name="NKREDLFZ">     1</i>
   <i type="int" name="MAXMEM">  2800</i>
   <i type="int" name="TELESCOPE">     0</i>
   <i type="int" name="TAUPAR">     1</i>
   <i type="int" name="OMEGAPAR">    -1</i>
   <i name="LAMBDA">      1.00000000</i>
  </separator>
  <separator name="External order field" >
   <i name="OFIELD_KAPPA">      0.00000000</i>
   <v name="OFIELD_K">      0.00000000      0.00000000      0.00000000</v>
   <i name="OFIELD_Q6_NEAR">      0.00000000</i>
   <i name="OFIELD_Q6_FAR">      0.00000000</i>
   <i name="OFIELD_A">      0.00000000</i>
  </separator>
 </parameters>
 <atominfo>
  <atoms>      24 </atoms>
  <types>       2 </types>
  <array name="atoms" >
   <dimension dim="1">ion</dimension>
   <field type="string">element</field>
   <field type="int">atomtype</field>
   <set>
    <rc><c>Ba</c><c>   1</c></rc>
    <rc><c>Ba</c><c>   1</c></rc>
    <rc><c>Ba</c><c>   1</c></rc>
    <rc><c>Ba</c><c>   1</c></rc>
    <rc><c>Ba</c><c>   1</c></rc>
    <rc><c>Ba</c><c>   1</c></rc>
    <rc><c>Ba</c><c>   1</c></rc>
    <rc><c>Ba</c><c>   1</c></rc>
    <rc><c>Si</c><c>   2</c></rc>
    <rc><c>Si</c><c>   2</c></rc>
    <rc><c>Si</c><c>   2</c></rc>
    <rc><c>Si</c><c>   2</c></rc>
    <rc><c>Si</c><c>   2</c></rc>
    <rc><c>Si</c><c>   2</c></rc>
    <rc><c>Si</c><c>   2</c></rc>
    <rc><c>Si</c><c>   2</c></rc>
    <rc><c>Si</c><c>   2</c></rc>
    <rc><c>Si</c><c>   2</c></rc>
    <rc><c>Si</c><c>   2</c></rc>
    <rc><c>Si</c><c>   2</c></rc>
    <rc><c>Si</c><c>   2</c></rc>
    <rc><c>Si</c><c>   2</c></rc>
    <rc><c>Si</c><c>   2</c></rc>
    <rc><c>Si</c><c>   2</c></rc>
   </set>
  </array>
  <array name="atomtypes" >
   <dimension dim="1">type</dimension>
   <field type="int">atomspertype</field>
   <field type="string">element</field>
   <field>mass</field>
   <field>valence</field>
   <field type="string">pseudopotential</field>
   <set>
    <rc><c>   8</c><c>Ba</c><c>    137.32700000</c><c>     10.00000000</c><c> PAW_PBE Ba_sv 06Sep2000                </c></rc>
    <rc><c>  16</c><c>Si</c><c>     28.08500000</c><c>      4.00000000</c><c> PAW_PBE Si 05Jan2001                   </c></rc>
   </set>
  </array>
 </atominfo>
 <structure name="initialpos" >
  <crystal>
   <varray name="basis" >
    <v>      24.00946808       0.00000000       0.00000000 </v>
    <v>       0.00000000       6.54036194       0.00000000 </v>
    <v>       0.00000000       0.00000000      11.24840583 </v>
   </varray>
   <i name="volume">   1766.34404299 </i>
   <varray name="rec_basis" >
    <v>       0.04165024       0.00000000       0.00000000 </v>
    <v>       0.00000000       0.15289674       0.00000000 </v>
    <v>       0.00000000       0.00000000       0.08890149 </v>
   </varray>
  </crystal>
  <varray name="positions" >
   <v>       0.01027447       0.26886387       0.71532901 </v>
   <v>       0.36497200       0.76744725       0.31611878 </v>
   <v>       0.17726435       0.76829560       0.20933671 </v>
   <v>       0.19798212       0.26801551       0.82211105 </v>
   <v>       0.08647491       0.76869176       0.93045028 </v>
   <v>       0.28877156       0.26761936       0.10099748 </v>
   <v>       0.13042964       0.26840416       0.40964849 </v>
   <v>       0.24481683       0.76790696       0.62179934 </v>
   <v>       0.06358407       0.08479145       0.16586303 </v>
   <v>       0.31166240       0.95151964       0.86558473 </v>
   <v>       0.11548180       0.95204790       0.65689244 </v>
   <v>       0.25976467       0.08426319       0.37455534 </v>
   <v>       0.31159608       0.58416415       0.86546113 </v>
   <v>       0.06365038       0.45214695       0.16598663 </v>
   <v>       0.25972208       0.45068934       0.37429497 </v>
   <v>       0.11552438       0.58562176       0.65715282 </v>
   <v>       0.02815493       0.76884495       0.63059690 </v>
   <v>       0.34709153       0.26746616       0.40085088 </v>
   <v>       0.14737799       0.26853035       0.09734576 </v>
   <v>       0.22786848       0.76778077       0.93410201 </v>
   <v>       0.06321363       0.26870167       0.97976296 </v>
   <v>       0.31203283       0.76760945       0.05168484 </v>
   <v>       0.09739594       0.76831826       0.47351325 </v>
   <v>       0.27785053       0.26799285       0.55793446 </v>
  </varray>
 </structure>
 <calculation>
  <scstep>
   <time name="dav">   15.55   15.60</time>
   <time name="total">   18.28   18.69</time>
   <energy>
    <i name="alphaZ">    182.20216268 </i>
    <i name="ewald">  14168.75486563 </i>
    <i name="hartreedc"> -20599.18573235 </i>
    <i name="XCdc">     47.86297257 </i>
    <i name="pawpsdc">   3870.05451552 </i>
    <i name="pawaedc">  -3575.52578058 </i>
    <i name="eentropy">     -0.00067591 </i>
    <i name="bandstr">   -256.25068000 </i>
    <i name="atom">   7269.15145414 </i>
    <i name="e_fr_energy">   1107.06310169 </i>
    <i name="e_wo_entrp">   1107.06377761 </i>
    <i name="e_0_energy">   1107.06343965 </i>
   </energy>
  </scstep>
  <scstep>
   <time name="dav">   20.66   20.71</time>
   <time name="total">   20.66   20.71</time>
   <energy>
    <i name="e_fr_energy">     79.38594429 </i>
    <i name="e_wo_entrp">     79.38594429 </i>
    <i name="e_0_energy">     79.38594429 </i>
   </energy>
  </scstep>
  <scstep>
   <time name="dav">   17.39   17.43</time>
   <time name="total">   17.39   17.43</time>
   <energy>
    <i name="e_fr_energy">    -85.21404847 </i>
    <i name="e_wo_entrp">    -85.21404847 </i>
    <i name="e_0_energy">    -85.21404847 </i>
   </energy>
  </scstep>
  <scstep>
   <time name="dav">   19.19   19.24</time>
   <time name="total">   19.19   19.24</time>
   <energy>
    <i name="e_fr_energy">    -91.02909669 </i>
    <i name="e_wo_entrp">    -91.02909669 </i>
    <i name="e_0_energy">    -91.02909669 </i>
   </energy>
  </scstep>
  <scstep>
   <time name="dav">   21.51   21.57</time>
   <time name="total">   21.51   21.57</time>
   <energy>
    <i name="e_fr_energy">    -91.27103077 </i>
    <i name="e_wo_entrp">    -91.27103077 </i>
    <i name="e_0_energy">    -91.27103077 </i>
   </energy>
  </scstep>
  <scstep>
   <time name="dav">   19.61   19.66</time>
   <time name="total">   19.61   19.66</time>
   <energy>
    <i name="e_fr_energy">    -91.27607879 </i>
    <i name="e_wo_entrp">    -91.27607879 </i>
    <i name="e_0_energy">    -91.27607879 </i>
   </energy>
  </scstep>
  <scstep>
   <time name="dav">   20.35   20.40</time>
   <time name="total">   20.36   20.41</time>
   <energy>
    <i name="e_fr_energy">    -91.27629568 </i>
    <i name="e_wo_entrp">    -91.27629568 </i>
    <i name="e_0_energy">    -91.27629568 </i>
   </energy>
  </scstep>
  <scstep>
   <time name="dav">   16.90   16.95</time>
   <time name="total">   16.91   16.95</time>
   <energy>
    <i name="e_fr_energy">    -91.27630551 </i>
    <i name="e_wo_entrp">    -91.27630551 </i>
    <i name="e_0_energy">    -91.27630551 </i>
   </energy>
  </scstep>
  <scstep>
   <time name="dav">   14.74   14.78</time>
   <time name="total">   14.74   14.78</time>
   <energy>
    <i name="alphaZ">    182.20216268 </i>
    <i name="ewald">  14168.75486563 </i>
    <i name="hartreedc"> -20599.18573235 </i>
    <i name="XCdc">     47.86297257 </i>
    <i name="pawpsdc">   3870.05451552 </i>
    <i name="pawaedc">  -3575.52578058 </i>
    <i name="eentropy">     -0.00000000 </i>
    <i name="bandstr">  -1454.59076365 </i>
    <i name="atom">   7269.15145414 </i>
    <i name="e_fr_energy">    -91.27630604 </i>
    <i name="e_wo_entrp">    -91.27630604 </i>
    <i name="e_0_energy">    -91.27630604 </i>
   </energy>
  </scstep>
  <structure>
   <crystal>
    <varray name="basis" >
     <v>      24.00946808       0.00000000       0.00000000 </v>
     <v>       0.00000000       6.54036194       0.00000000 </v>
     <v>       0.00000000       0.00000000      11.24840583 </v>
    </varray>
    <i name="volume">   1766.34404299 </i>
    <varray name="rec_basis" >
     <v>       0.04165024       0.00000000       0.00000000 </v>
     <v>       0.00000000       0.15289674       0.00000000 </v>
     <v>       0.00000000       0.00000000       0.08890149 </v>
    </varray>
   </crystal>
   <varray name="positions" >
    <v>       0.01027447       0.26886387       0.71532901 </v>
    <v>       0.36497200       0.76744725       0.31611878 </v>
    <v>       0.17726435       0.76829560       0.20933671 </v>
    <v>       0.19798212       0.26801551       0.82211105 </v>
    <v>       0.08647491       0.76869176       0.93045028 </v>
    <v>       0.28877156       0.26761936       0.10099748 </v>
    <v>       0.13042964       0.26840416       0.40964849 </v>
    <v>       0.24481683       0.76790696       0.62179934 </v>
    <v>       0.06358407       0.08479145       0.16586303 </v>
    <v>       0.31166240       0.95151964       0.86558473 </v>
    <v>       0.11548180       0.95204790       0.65689244 </v>
    <v>       0.25976467       0.08426319       0.37455534 </v>
    <v>       0.31159608       0.58416415       0.86546113 </v>
    <v>       0.06365038       0.45214695       0.16598663 </v>
    <v>       0.25972208       0.45068934       0.37429497 </v>
    <v>       0.11552438       0.58562176       0.65715282 </v>
    <v>       0.02815493       0.76884495       0.63059690 </v>
    <v>       0.34709153       0.26746616       0.40085088 </v>
    <v>       0.14737799       0.26853035       0.09734576 </v>
    <v>       0.22786848       0.76778077       0.93410201 </v>
    <v>       0.06321363       0.26870167       0.97976296 </v>
    <v>       0.31203283       0.76760945       0.05168484 </v>
    <v>       0.09739594       0.76831826       0.47351325 </v>
    <v>       0.27785053       0.26799285       0.55793446 </v>
   </varray>
  </structure>
  <varray name="forces" >
   <v>       0.03748609      -0.00045877      -0.05000578 </v>
   <v>      -0.03748609       0.00045877       0.05000578 </v>
   <v>      -0.06043310      -0.00130627      -0.01814887 </v>
   <v>       0.06043310       0.00130627       0.01814887 </v>
   <v>      -0.00393471      -0.00214428       0.00168399 </v>
   <v>       0.00393471       0.00214428      -0.00168399 </v>
   <v>      -0.01871294      -0.00117702       0.04542689 </v>
   <v>       0.01871294       0.00117702      -0.04542689 </v>
   <v>       0.02514704       0.02420043       0.00221839 </v>
   <v>      -0.02514704      -0.02420043      -0.00221839 </v>
   <v>      -0.02522634      -0.04047031      -0.00912411 </v>
   <v>       0.02522634       0.04047031       0.00912411 </v>
   <v>      -0.02648102       0.02328053      -0.00423269 </v>
   <v>       0.02648102      -0.02328053       0.00423269 </v>
   <v>       0.02550719      -0.04468147       0.00600008 </v>
   <v>      -0.02550719       0.04468147      -0.00600008 </v>
   <v>       0.02253082      -0.00134707       0.02424744 </v>
   <v>      -0.02253082       0.00134707      -0.02424744 </v>
   <v>       0.00899788      -0.00531659       0.00604764 </v>
   <v>      -0.00899788       0.00531659      -0.00604764 </v>
   <v>       0.00892241      -0.00140396      -0.00169997 </v>
   <v>      -0.00892241       0.00140396       0.00169997 </v>
   <v>       0.01163408       0.00139405      -0.01747480 </v>
   <v>      -0.01163408      -0.00139405       0.01747480 </v>
  </varray>
  <varray name="stress" >
   <v>      -0.25367635       0.05496597       0.20055626 </v>
   <v>       0.05496598      -0.48424180       0.00771651 </v>
   <v>       0.20055643       0.00771651      -0.33560941 </v>
  </varray>
  <energy>
   <i name="e_fr_energy">    -91.27630604 </i>
   <i name="e_wo_entrp">    -91.27630604 </i>
   <i name="e_0_energy">     -0.00000000 </i>
  </energy>
  <time name="totalsc">  206.77  212.17</time>
  <eigenvalues>
   <array>
    <dimension dim="1">band</dimension>
    <dimension dim="2">kpoint</dimension>
    <dimension dim="3">spin</dimension>
    <field>eigene</field>
    <field>occ</field>
    <set>
     <set comment="spin 1">
      <set comment="kpoint 1">
       <r>  -29.2833    1.0000 </r>
       <r>  -29.2831    1.0000 </r>
       <r>  -28.2645    1.0000 </r>
       <r>  -28.2573    1.0000 </r>
       <r>  -28.2288    1.0000 </r>
       <r>  -28.2189    1.0000 </r>
       <r>  -28.1601    1.0000 </r>
       <r>  -28.1494    1.0000 </r>
       <r>  -14.6636    1.0000 </r>
       <r>  -14.6618    1.0000 </r>
       <r>  -14.5836    1.0000 </r>
       <r>  -14.5825    1.0000 </r>
       <r>  -14.5065    1.0000 </r>
       <r>  -14.5060    1.0000 </r>
       <r>  -13.9553    1.0000 </r>
       <r>  -13.8542    1.0000 </r>
       <r>  -13.7916    1.0000 </r>
       <r>  -13.7703    1.0000 </r>
       <r>  -13.7115    1.0000 </r>
       <r>  -13.6883    1.0000 </r>
       <r>  -13.6717    1.0000 </r>
       <r>  -13.6155    1.0000 </r>
       <r>  -13.6003    1.0000 </r>
       <r>  -13.5751    1.0000 </r>
       <r>  -13.5596    1.0000 </r>
       <r>  -13.5456    1.0000 </r>
       <r>  -13.4377    1.0000 </r>
       <r>  -13.4165    1.0000 </r>
       <r>  -13.3876    1.0000 </r>
       <r>  -13.3780    1.0000 </r>
       <r>  -13.3482    1.0000 </r>
       <r>  -13.3478    1.0000 </r>
       <r>  -11.3917    1.0000 </r>
       <r>  -11.2809    1.0000 </r>
       <r>  -10.9145    1.0000 </r>
       <r>  -10.8930    1.0000 </r>
       <r>   -6.6743    1.0000 </r>
       <r>   -6.6440    1.0000 </r>
       <r>   -6.4992    1.0000 </r>
       <r>   -6.4590    1.0000 </r>
       <r>   -6.4400    1.0000 </r>
       <r>   -6.4381    1.0000 </r>
       <r>   -6.2250    1.0000 </r>
       <r>   -6.1744    1.0000 </r>
       <r>   -6.1500    1.0000 </r>
       <r>   -6.0714    1.0000 </r>
       <r>   -5.8350    1.0000 </r>
       <r>   -5.8145    1.0000 </r>
       <r>   -3.8216    1.0000 </r>
       <r>   -3.3972    1.0000 </r>
       <r>   -2.9150    1.0000 </r>
       <r>   -2.9010    1.0000 </r>
       <r>   -2.6501    1.0000 </r>
       <r>   -2.4552    1.0000 </r>
       <r>   -2.3019    1.0000 </r>
       <r>   -2.2811    1.0000 </r>
       <r>   -2.1397    1.0000 </r>
       <r>   -2.0830    1.0000 </r>
       <r>   -1.9722    1.0000 </r>
       <r>   -1.9671    1.0000 </r>
       <r>   -1.7622    1.0000 </r>
       <r>   -1.7280    1.0000 </r>
       <r>   -1.6607    1.0000 </r>
       <r>   -1.6448    1.0000 </r>
       <r>   -1.5387    1.0000 </r>
       <r>   -1.4268    1.0000 </r>
       <r>   -1.4087    1.0000 </r>
       <r>   -1.2933    1.0000 </r>
       <r>   -1.2506    1.0000 </r>
       <r>   -1.2266    1.0000 </r>
       <r>   -1.0063    1.0000 </r>
       <r>   -0.8320    1.0000 </r>
       <r>    0.4690    0.0000 </r>
       <r>    0.5029    0.0000 </r>
       <r>    0.5136    0.0000 </r>
       <r>    0.5261    0.0000 </r>
       <r>    0.5566    0.0000 </r>
       <r>    0.6715    0.0000 </r>
       <r>    0.8390    0.0000 </r>
       <r>    0.9367    0.0000 </r>
       <r>    1.0581    0.0000 </r>
       <r>    1.2043    0.0000 </r>
       <r>    1.2507    0.0000 </r>
       <r>    1.3555    0.0000 </r>
       <r>    1.4033    0.0000 </r>
       <r>    1.5576    0.0000 </r>
       <r>    1.5688    0.0000 </r>
       <r>    1.6812    0.0000 </r>
      </set>
      <set comment="kpoint 2">
       <r>  -29.2833    1.0000 </r>
       <r>  -29.2831    1.0000 </r>
       <r>  -28.2645    1.0000 </r>
       <r>  -28.2572    1.0000 </r>
       <r>  -28.2288    1.0000 </r>
       <r>  -28.2189    1.0000 </r>
       <r>  -28.1601    1.0000 </r>
       <r>  -28.1494    1.0000 </r>
       <r>  -14.6635    1.0000 </r>
       <r>  -14.6617    1.0000 </r>
       <r>  -14.5836    1.0000 </r>
       <r>  -14.5825    1.0000 </r>
       <r>  -14.5068    1.0000 </r>
       <r>  -14.5063    1.0000 </r>
       <r>  -13.9551    1.0000 </r>
       <r>  -13.8543    1.0000 </r>
       <r>  -13.7951    1.0000 </r>
       <r>  -13.7667    1.0000 </r>
       <r>  -13.7132    1.0000 </r>
       <r>  -13.6876    1.0000 </r>
       <r>  -13.6716    1.0000 </r>
       <r>  -13.6188    1.0000 </r>
       <r>  -13.5998    1.0000 </r>
       <r>  -13.5727    1.0000 </r>
       <r>  -13.5595    1.0000 </r>
       <r>  -13.5461    1.0000 </r>
       <r>  -13.4373    1.0000 </r>
       <r>  -13.4165    1.0000 </r>
       <r>  -13.3875    1.0000 </r>
       <r>  -13.3778    1.0000 </r>
       <r>  -13.3482    1.0000 </r>
       <r>  -13.3480    1.0000 </r>
       <r>  -11.3907    1.0000 </r>
       <r>  -11.2805    1.0000 </r>
       <r>  -10.9140    1.0000 </r>
       <r>  -10.8926    1.0000 </r>
       <r>   -6.6729    1.0000 </r>
       <r>   -6.6424    1.0000 </r>
       <r>   -6.4988    1.0000 </r>
       <r>   -6.4636    1.0000 </r>
       <r>   -6.4392    1.0000 </r>
       <r>   -6.4371    1.0000 </r>
       <r>   -6.2245    1.0000 </r>
       <r>   -6.1736    1.0000 </r>
       <r>   -6.1489    1.0000 </r>
       <r>   -6.0715    1.0000 </r>
       <r>   -5.8374    1.0000 </r>
       <r>   -5.8166    1.0000 </r>
       <r>   -3.8153    1.0000 </r>
       <r>   -3.3927    1.0000 </r>
       <r>   -2.9111    1.0000 </r>
       <r>   -2.8998    1.0000 </r>
       <r>   -2.6495    1.0000 </r>
       <r>   -2.4555    1.0000 </r>
       <r>   -2.3015    1.0000 </r>
       <r>   -2.2833    1.0000 </r>
       <r>   -2.1388    1.0000 </r>
       <r>   -2.0840    1.0000 </r>
       <r>   -1.9770    1.0000 </r>
       <r>   -1.9676    1.0000 </r>
       <r>   -1.7750    1.0000 </r>
       <r>   -1.7154    1.0000 </r>
       <r>   -1.6625    1.0000 </r>
       <r>   -1.6409    1.0000 </r>
       <r>   -1.5401    1.0000 </r>
       <r>   -1.4308    1.0000 </r>
       <r>   -1.4055    1.0000 </r>
       <r>   -1.2926    1.0000 </r>
       <r>   -1.2506    1.0000 </r>
       <r>   -1.2325    1.0000 </r>
       <r>   -1.0029    1.0000 </r>
       <r>   -0.8341    1.0000 </r>
       <r>    0.4595    0.0000 </r>
       <r>    0.4859    0.0000 </r>
       <r>    0.5084    0.0000 </r>
       <r>    0.5422    0.0000 </r>
       <r>    0.5680    0.0000 </r>
       <r>    0.6786    0.0000 </r>
       <r>    0.8377    0.0000 </r>
       <r>    0.9384    0.0000 </r>
       <r>    1.0546    0.0000 </r>
       <r>    1.2040    0.0000 </r>
       <r>    1.2385    0.0000 </r>
       <r>    1.3583    0.0000 </r>
       <r>    1.4090    0.0000 </r>
       <r>    1.5364    0.0000 </r>
       <r>    1.5838    0.0000 </r>
       <r>    1.7628    0.0000 </r>
      </set>
      <set comment="kpoint 3">
       <r>  -29.2833    1.0000 </r>
       <r>  -29.2831    1.0000 </r>
       <r>  -28.2643    1.0000 </r>
       <r>  -28.2572    1.0000 </r>
       <r>  -28.2288    1.0000 </r>
       <r>  -28.2190    1.0000 </r>
       <r>  -28.1601    1.0000 </r>
       <r>  -28.1495    1.0000 </r>
       <r>  -14.6634    1.0000 </r>
       <r>  -14.6616    1.0000 </r>
       <r>  -14.5837    1.0000 </r>
       <r>  -14.5826    1.0000 </r>
       <r>  -14.5076    1.0000 </r>
       <r>  -14.5071    1.0000 </r>
       <r>  -13.9547    1.0000 </r>
       <r>  -13.8544    1.0000 </r>
       <r>  -13.8023    1.0000 </r>
       <r>  -13.7593    1.0000 </r>
       <r>  -13.7176    1.0000 </r>
       <r>  -13.6862    1.0000 </r>
       <r>  -13.6716    1.0000 </r>
       <r>  -13.6268    1.0000 </r>
       <r>  -13.5982    1.0000 </r>
       <r>  -13.5671    1.0000 </r>
       <r>  -13.5589    1.0000 </r>
       <r>  -13.5475    1.0000 </r>
       <r>  -13.4362    1.0000 </r>
       <r>  -13.4164    1.0000 </r>
       <r>  -13.3871    1.0000 </r>
       <r>  -13.3771    1.0000 </r>
       <r>  -13.3485    1.0000 </r>
       <r>  -13.3484    1.0000 </r>
       <r>  -11.3878    1.0000 </r>
       <r>  -11.2795    1.0000 </r>
       <r>  -10.9124    1.0000 </r>
       <r>  -10.8912    1.0000 </r>
       <r>   -6.6685    1.0000 </r>
       <r>   -6.6376    1.0000 </r>
       <r>   -6.4980    1.0000 </r>
       <r>   -6.4740    1.0000 </r>
       <r>   -6.4422    1.0000 </r>
       <r>   -6.4318    1.0000 </r>
       <r>   -6.2231    1.0000 </r>
       <r>   -6.1712    1.0000 </r>
       <r>   -6.1457    1.0000 </r>
       <r>   -6.0719    1.0000 </r>
       <r>   -5.8445    1.0000 </r>
       <r>   -5.8227    1.0000 </r>
       <r>   -3.7965    1.0000 </r>
       <r>   -3.3791    1.0000 </r>
       <r>   -2.8992    1.0000 </r>
       <r>   -2.8962    1.0000 </r>
       <r>   -2.6476    1.0000 </r>
       <r>   -2.4565    1.0000 </r>
       <r>   -2.3002    1.0000 </r>
       <r>   -2.2901    1.0000 </r>
       <r>   -2.1358    1.0000 </r>
       <r>   -2.0870    1.0000 </r>
       <r>   -1.9905    1.0000 </r>
       <r>   -1.9692    1.0000 </r>
       <r>   -1.7949    1.0000 </r>
       <r>   -1.6989    1.0000 </r>
       <r>   -1.6682    1.0000 </r>
       <r>   -1.6274    1.0000 </r>
       <r>   -1.5437    1.0000 </r>
       <r>   -1.4427    1.0000 </r>
       <r>   -1.3958    1.0000 </r>
       <r>   -1.2909    1.0000 </r>
       <r>   -1.2506    1.0000 </r>
       <r>   -1.2488    1.0000 </r>
       <r>   -0.9943    1.0000 </r>
       <r>   -0.8402    1.0000 </r>
       <r>    0.4356    0.0000 </r>
       <r>    0.4492    0.0000 </r>
       <r>    0.5234    0.0000 </r>
       <r>    0.5513    0.0000 </r>
       <r>    0.5955    0.0000 </r>
       <r>    0.6962    0.0000 </r>
       <r>    0.8331    0.0000 </r>
       <r>    0.9433    0.0000 </r>
       <r>    1.0427    0.0000 </r>
       <r>    1.2060    0.0000 </r>
       <r>    1.2063    0.0000 </r>
       <r>    1.3656    0.0000 </r>
       <r>    1.4202    0.0000 </r>
       <r>    1.4977    0.0000 </r>
       <r>    1.6031    0.0000 </r>
       <r>    1.6905    0.0000 </r>
      </set>
      <set comment="kpoint 4">
       <r>  -29.2833    1.0000 </r>
       <r>  -29.2831    1.0000 </r>
       <r>  -28.2641    1.0000 </r>
       <r>  -28.2571    1.0000 </r>
       <r>  -28.2287    1.0000 </r>
       <r>  -28.2191    1.0000 </r>
       <r>  -28.1602    1.0000 </r>
       <r>  -28.1497    1.0000 </r>
       <r>  -14.6631    1.0000 </r>
       <r>  -14.6613    1.0000 </r>
       <r>  -14.5839    1.0000 </r>
       <r>  -14.5828    1.0000 </r>
       <r>  -14.5088    1.0000 </r>
       <r>  -14.5083    1.0000 </r>
       <r>  -13.9539    1.0000 </r>
       <r>  -13.8547    1.0000 </r>
       <r>  -13.8102    1.0000 </r>
       <r>  -13.7512    1.0000 </r>
       <r>  -13.7237    1.0000 </r>
       <r>  -13.6845    1.0000 </r>
       <r>  -13.6717    1.0000 </r>
       <r>  -13.6367    1.0000 </r>
       <r>  -13.5960    1.0000 </r>
       <r>  -13.5615    1.0000 </r>
       <r>  -13.5576    1.0000 </r>
       <r>  -13.5496    1.0000 </r>
       <r>  -13.4343    1.0000 </r>
       <r>  -13.4165    1.0000 </r>
       <r>  -13.3865    1.0000 </r>
       <r>  -13.3757    1.0000 </r>
       <r>  -13.3492    1.0000 </r>
       <r>  -13.3486    1.0000 </r>
       <r>  -11.3830    1.0000 </r>
       <r>  -11.2778    1.0000 </r>
       <r>  -10.9097    1.0000 </r>
       <r>  -10.8890    1.0000 </r>
       <r>   -6.6616    1.0000 </r>
       <r>   -6.6297    1.0000 </r>
       <r>   -6.4976    1.0000 </r>
       <r>   -6.4870    1.0000 </r>
       <r>   -6.4460    1.0000 </r>
       <r>   -6.4264    1.0000 </r>
       <r>   -6.2207    1.0000 </r>
       <r>   -6.1673    1.0000 </r>
       <r>   -6.1407    1.0000 </r>
       <r>   -6.0727    1.0000 </r>
       <r>   -5.8558    1.0000 </r>
       <r>   -5.8323    1.0000 </r>
       <r>   -3.7661    1.0000 </r>
       <r>   -3.3570    1.0000 </r>
       <r>   -2.8904    1.0000 </r>
       <r>   -2.8798    1.0000 </r>
       <r>   -2.6445    1.0000 </r>
       <r>   -2.4580    1.0000 </r>
       <r>   -2.3026    1.0000 </r>
       <r>   -2.2971    1.0000 </r>
       <r>   -2.1301    1.0000 </r>
       <r>   -2.0922    1.0000 </r>
       <r>   -2.0102    1.0000 </r>
       <r>   -1.9719    1.0000 </r>
       <r>   -1.8136    1.0000 </r>
       <r>   -1.6906    1.0000 </r>
       <r>   -1.6779    1.0000 </r>
       <r>   -1.6032    1.0000 </r>
       <r>   -1.5488    1.0000 </r>
       <r>   -1.4624    1.0000 </r>
       <r>   -1.3802    1.0000 </r>
       <r>   -1.2892    1.0000 </r>
       <r>   -1.2723    1.0000 </r>
       <r>   -1.2504    1.0000 </r>
       <r>   -0.9832    1.0000 </r>
       <r>   -0.8497    1.0000 </r>
       <r>    0.4052    0.0000 </r>
       <r>    0.4103    0.0000 </r>
       <r>    0.5461    0.0000 </r>
       <r>    0.5602    0.0000 </r>
       <r>    0.6256    0.0000 </r>
       <r>    0.7185    0.0000 </r>
       <r>    0.8226    0.0000 </r>
       <r>    0.9509    0.0000 </r>
       <r>    1.0227    0.0000 </r>
       <r>    1.1617    0.0000 </r>
       <r>    1.2164    0.0000 </r>
       <r>    1.3767    0.0000 </r>
       <r>    1.4151    0.0000 </r>
       <r>    1.4747    0.0000 </r>
       <r>    1.6250    0.0000 </r>
       <r>    1.6900    0.0000 </r>
      </set>
      <set comment="kpoint 5">
       <r>  -29.2833    1.0000 </r>
       <r>  -29.2831    1.0000 </r>
       <r>  -28.2638    1.0000 </r>
       <r>  -28.2570    1.0000 </r>
       <r>  -28.2287    1.0000 </r>
       <r>  -28.2192    1.0000 </r>
       <r>  -28.1603    1.0000 </r>
       <r>  -28.1500    1.0000 </r>
       <r>  -14.6627    1.0000 </r>
       <r>  -14.6610    1.0000 </r>
       <r>  -14.5841    1.0000 </r>
       <r>  -14.5831    1.0000 </r>
       <r>  -14.5105    1.0000 </r>
       <r>  -14.5101    1.0000 </r>
       <r>  -13.9528    1.0000 </r>
       <r>  -13.8552    1.0000 </r>
       <r>  -13.8179    1.0000 </r>
       <r>  -13.7436    1.0000 </r>
       <r>  -13.7308    1.0000 </r>
       <r>  -13.6830    1.0000 </r>
       <r>  -13.6722    1.0000 </r>
       <r>  -13.6471    1.0000 </r>
       <r>  -13.5934    1.0000 </r>
       <r>  -13.5588    1.0000 </r>
       <r>  -13.5539    1.0000 </r>
       <r>  -13.5519    1.0000 </r>
       <r>  -13.4316    1.0000 </r>
       <r>  -13.4169    1.0000 </r>
       <r>  -13.3858    1.0000 </r>
       <r>  -13.3737    1.0000 </r>
       <r>  -13.3502    1.0000 </r>
       <r>  -13.3489    1.0000 </r>
       <r>  -11.3766    1.0000 </r>
       <r>  -11.2755    1.0000 </r>
       <r>  -10.9062    1.0000 </r>
       <r>  -10.8859    1.0000 </r>
       <r>   -6.6527    1.0000 </r>
       <r>   -6.6189    1.0000 </r>
       <r>   -6.5021    1.0000 </r>
       <r>   -6.4987    1.0000 </r>
       <r>   -6.4488    1.0000 </r>
       <r>   -6.4214    1.0000 </r>
       <r>   -6.2174    1.0000 </r>
       <r>   -6.1619    1.0000 </r>
       <r>   -6.1340    1.0000 </r>
       <r>   -6.0741    1.0000 </r>
       <r>   -5.8707    1.0000 </r>
       <r>   -5.8450    1.0000 </r>
       <r>   -3.7248    1.0000 </r>
       <r>   -3.3271    1.0000 </r>
       <r>   -2.8824    1.0000 </r>
       <r>   -2.8535    1.0000 </r>
       <r>   -2.6406    1.0000 </r>
       <r>   -2.4598    1.0000 </r>
       <r>   -2.3177    1.0000 </r>
       <r>   -2.2943    1.0000 </r>
       <r>   -2.1217    1.0000 </r>
       <r>   -2.0995    1.0000 </r>
       <r>   -2.0336    1.0000 </r>
       <r>   -1.9757    1.0000 </r>
       <r>   -1.8308    1.0000 </r>
       <r>   -1.6921    1.0000 </r>
       <r>   -1.6891    1.0000 </r>
       <r>   -1.5724    1.0000 </r>
       <r>   -1.5542    1.0000 </r>
       <r>   -1.4887    1.0000 </r>
       <r>   -1.3598    1.0000 </r>
       <r>   -1.2994    1.0000 </r>
       <r>   -1.2890    1.0000 </r>
       <r>   -1.2498    1.0000 </r>
       <r>   -0.9725    1.0000 </r>
       <r>   -0.8621    1.0000 </r>
       <r>    0.3706    0.0000 </r>
       <r>    0.3742    0.0000 </r>
       <r>    0.5700    0.0000 </r>
       <r>    0.5741    0.0000 </r>
       <r>    0.6540    0.0000 </r>
       <r>    0.7414    0.0000 </r>
       <r>    0.8039    0.0000 </r>
       <r>    0.9601    0.0000 </r>
       <r>    1.0017    0.0000 </r>
       <r>    1.1118    0.0000 </r>
       <r>    1.2353    0.0000 </r>
       <r>    1.3651    0.0000 </r>
       <r>    1.3906    0.0000 </r>
       <r>    1.4875    0.0000 </r>
       <r>    1.6394    0.0000 </r>
       <r>    1.6714    0.0000 </r>
      </set>
      <set comment="kpoint 6">
       <r>  -29.2833    1.0000 </r>
       <r>  -29.2831    1.0000 </r>
       <r>  -28.2634    1.0000 </r>
       <r>  -28.2568    1.0000 </r>
       <r>  -28.2286    1.0000 </r>
       <r>  -28.2193    1.0000 </r>
       <r>  -28.1603    1.0000 </r>
       <r>  -28.1503    1.0000 </r>
       <r>  -14.6622    1.0000 </r>
       <r>  -14.6605    1.0000 </r>
       <r>  -14.5843    1.0000 </r>
       <r>  -14.5834    1.0000 </r>
       <r>  -14.5126    1.0000 </r>
       <r>  -14.5122    1.0000 </r>
       <r>  -13.9514    1.0000 </r>
       <r>  -13.8560    1.0000 </r>
       <r>  -13.8252    1.0000 </r>
       <r>  -13.7384    1.0000 </r>
       <r>  -13.7371    1.0000 </r>
       <r>  -13.6825    1.0000 </r>
       <r>  -13.6724    1.0000 </r>
       <r>  -13.6566    1.0000 </r>
       <r>  -13.5912    1.0000 </r>
       <r>  -13.5575    1.0000 </r>
       <r>  -13.5542    1.0000 </r>
       <r>  -13.5499    1.0000 </r>
       <r>  -13.4280    1.0000 </r>
       <r>  -13.4173    1.0000 </r>
       <r>  -13.3848    1.0000 </r>
       <r>  -13.3711    1.0000 </r>
       <r>  -13.3514    1.0000 </r>
       <r>  -13.3493    1.0000 </r>
       <r>  -11.3687    1.0000 </r>
       <r>  -11.2726    1.0000 </r>
       <r>  -10.9017    1.0000 </r>
       <r>  -10.8821    1.0000 </r>
       <r>   -6.6430    1.0000 </r>
       <r>   -6.6056    1.0000 </r>
       <r>   -6.5164    1.0000 </r>
       <r>   -6.5049    1.0000 </r>
       <r>   -6.4484    1.0000 </r>
       <r>   -6.4165    1.0000 </r>
       <r>   -6.2134    1.0000 </r>
       <r>   -6.1552    1.0000 </r>
       <r>   -6.1262    1.0000 </r>
       <r>   -6.0764    1.0000 </r>
       <r>   -5.8883    1.0000 </r>
       <r>   -5.8600    1.0000 </r>
       <r>   -3.6741    1.0000 </r>
       <r>   -3.2902    1.0000 </r>
       <r>   -2.8727    1.0000 </r>
       <r>   -2.8210    1.0000 </r>
       <r>   -2.6363    1.0000 </r>
       <r>   -2.4618    1.0000 </r>
       <r>   -2.3353    1.0000 </r>
       <r>   -2.2902    1.0000 </r>
       <r>   -2.1124    1.0000 </r>
       <r>   -2.1091    1.0000 </r>
       <r>   -2.0577    1.0000 </r>
       <r>   -1.9806    1.0000 </r>
       <r>   -1.8467    1.0000 </r>
       <r>   -1.7104    1.0000 </r>
       <r>   -1.6927    1.0000 </r>
       <r>   -1.5596    1.0000 </r>
       <r>   -1.5391    1.0000 </r>
       <r>   -1.5197    1.0000 </r>
       <r>   -1.3453    1.0000 </r>
       <r>   -1.3184    1.0000 </r>
       <r>   -1.2920    1.0000 </r>
       <r>   -1.2488    1.0000 </r>
       <r>   -0.9641    1.0000 </r>
       <r>   -0.8765    1.0000 </r>
       <r>    0.3316    0.0000 </r>
       <r>    0.3462    0.0000 </r>
       <r>    0.5791    0.0000 </r>
       <r>    0.6041    0.0000 </r>
       <r>    0.6717    0.0000 </r>
       <r>    0.7622    0.0000 </r>
       <r>    0.7840    0.0000 </r>
       <r>    0.9692    0.0000 </r>
       <r>    0.9881    0.0000 </r>
       <r>    1.0625    0.0000 </r>
       <r>    1.2597    0.0000 </r>
       <r>    1.3044    0.0000 </r>
       <r>    1.4060    0.0000 </r>
       <r>    1.5083    0.0000 </r>
       <r>    1.6206    0.0000 </r>
       <r>    1.6413    0.0000 </r>
      </set>
      <set comment="kpoint 7">
       <r>  -29.2833    1.0000 </r>
       <r>  -29.2831    1.0000 </r>
       <r>  -28.2630    1.0000 </r>
       <r>  -28.2567    1.0000 </r>
       <r>  -28.2285    1.0000 </r>
       <r>  -28.2195    1.0000 </r>
       <r>  -28.1604    1.0000 </r>
       <r>  -28.1508    1.0000 </r>
       <r>  -14.6616    1.0000 </r>
       <r>  -14.6600    1.0000 </r>
       <r>  -14.5846    1.0000 </r>
       <r>  -14.5838    1.0000 </r>
       <r>  -14.5150    1.0000 </r>
       <r>  -14.5147    1.0000 </r>
       <r>  -13.9498    1.0000 </r>
       <r>  -13.8570    1.0000 </r>
       <r>  -13.8317    1.0000 </r>
       <r>  -13.7462    1.0000 </r>
       <r>  -13.7328    1.0000 </r>
       <r>  -13.6842    1.0000 </r>
       <r>  -13.6712    1.0000 </r>
       <r>  -13.6641    1.0000 </r>
       <r>  -13.5897    1.0000 </r>
       <r>  -13.5567    1.0000 </r>
       <r>  -13.5560    1.0000 </r>
       <r>  -13.5471    1.0000 </r>
       <r>  -13.4238    1.0000 </r>
       <r>  -13.4177    1.0000 </r>
       <r>  -13.3836    1.0000 </r>
       <r>  -13.3679    1.0000 </r>
       <r>  -13.3527    1.0000 </r>
       <r>  -13.3498    1.0000 </r>
       <r>  -11.3595    1.0000 </r>
       <r>  -11.2694    1.0000 </r>
       <r>  -10.8963    1.0000 </r>
       <r>  -10.8777    1.0000 </r>
       <r>   -6.6347    1.0000 </r>
       <r>   -6.5902    1.0000 </r>
       <r>   -6.5284    1.0000 </r>
       <r>   -6.5157    1.0000 </r>
       <r>   -6.4438    1.0000 </r>
       <r>   -6.4118    1.0000 </r>
       <r>   -6.2086    1.0000 </r>
       <r>   -6.1473    1.0000 </r>
       <r>   -6.1175    1.0000 </r>
       <r>   -6.0798    1.0000 </r>
       <r>   -5.9078    1.0000 </r>
       <r>   -5.8765    1.0000 </r>
       <r>   -3.6153    1.0000 </r>
       <r>   -3.2476    1.0000 </r>
       <r>   -2.8615    1.0000 </r>
       <r>   -2.7834    1.0000 </r>
       <r>   -2.6319    1.0000 </r>
       <r>   -2.4637    1.0000 </r>
       <r>   -2.3526    1.0000 </r>
       <r>   -2.2854    1.0000 </r>
       <r>   -2.1210    1.0000 </r>
       <r>   -2.1089    1.0000 </r>
       <r>   -2.0753    1.0000 </r>
       <r>   -1.9863    1.0000 </r>
       <r>   -1.8611    1.0000 </r>
       <r>   -1.7339    1.0000 </r>
       <r>   -1.6998    1.0000 </r>
       <r>   -1.5646    1.0000 </r>
       <r>   -1.5529    1.0000 </r>
       <r>   -1.5057    1.0000 </r>
       <r>   -1.3666    1.0000 </r>
       <r>   -1.2991    1.0000 </r>
       <r>   -1.2979    1.0000 </r>
       <r>   -1.2479    1.0000 </r>
       <r>   -0.9594    1.0000 </r>
       <r>   -0.8927    1.0000 </r>
       <r>    0.2947    0.0000 </r>
       <r>    0.3239    0.0000 </r>
       <r>    0.5821    0.0000 </r>
       <r>    0.6319    0.0000 </r>
       <r>    0.6602    0.0000 </r>
       <r>    0.7779    0.0000 </r>
       <r>    0.7881    0.0000 </r>
       <r>    0.9746    0.0000 </r>
       <r>    0.9843    0.0000 </r>
       <r>    1.0220    0.0000 </r>
       <r>    1.2452    0.0000 </r>
       <r>    1.2860    0.0000 </r>
       <r>    1.4232    0.0000 </r>
       <r>    1.5444    0.0000 </r>
       <r>    1.5770    0.0000 </r>
       <r>    1.6410    0.0000 </r>
      </set>
      <set comment="kpoint 8">
       <r>  -29.2832    1.0000 </r>
       <r>  -29.2831    1.0000 </r>
       <r>  -28.2625    1.0000 </r>
       <r>  -28.2565    1.0000 </r>
       <r>  -28.2283    1.0000 </r>
       <r>  -28.2197    1.0000 </r>
       <r>  -28.1605    1.0000 </r>
       <r>  -28.1512    1.0000 </r>
       <r>  -14.6610    1.0000 </r>
       <r>  -14.6594    1.0000 </r>
       <r>  -14.5849    1.0000 </r>
       <r>  -14.5842    1.0000 </r>
       <r>  -14.5178    1.0000 </r>
       <r>  -14.5175    1.0000 </r>
       <r>  -13.9479    1.0000 </r>
       <r>  -13.8584    1.0000 </r>
       <r>  -13.8374    1.0000 </r>
       <r>  -13.7540    1.0000 </r>
       <r>  -13.7315    1.0000 </r>
       <r>  -13.6880    1.0000 </r>
       <r>  -13.6688    1.0000 </r>
       <r>  -13.6682    1.0000 </r>
       <r>  -13.5894    1.0000 </r>
       <r>  -13.5574    1.0000 </r>
       <r>  -13.5560    1.0000 </r>
       <r>  -13.5456    1.0000 </r>
       <r>  -13.4189    1.0000 </r>
       <r>  -13.4178    1.0000 </r>
       <r>  -13.3823    1.0000 </r>
       <r>  -13.3645    1.0000 </r>
       <r>  -13.3541    1.0000 </r>
       <r>  -13.3504    1.0000 </r>
       <r>  -11.3494    1.0000 </r>
       <r>  -11.2658    1.0000 </r>
       <r>  -10.8903    1.0000 </r>
       <r>  -10.8727    1.0000 </r>
       <r>   -6.6315    1.0000 </r>
       <r>   -6.5730    1.0000 </r>
       <r>   -6.5341    1.0000 </r>
       <r>   -6.5302    1.0000 </r>
       <r>   -6.4357    1.0000 </r>
       <r>   -6.4071    1.0000 </r>
       <r>   -6.2032    1.0000 </r>
       <r>   -6.1384    1.0000 </r>
       <r>   -6.1084    1.0000 </r>
       <r>   -6.0846    1.0000 </r>
       <r>   -5.9282    1.0000 </r>
       <r>   -5.8935    1.0000 </r>
       <r>   -3.5501    1.0000 </r>
       <r>   -3.2005    1.0000 </r>
       <r>   -2.8494    1.0000 </r>
       <r>   -2.7418    1.0000 </r>
       <r>   -2.6281    1.0000 </r>
       <r>   -2.4656    1.0000 </r>
       <r>   -2.3675    1.0000 </r>
       <r>   -2.2801    1.0000 </r>
       <r>   -2.1348    1.0000 </r>
       <r>   -2.1246    1.0000 </r>
       <r>   -2.0736    1.0000 </r>
       <r>   -1.9927    1.0000 </r>
       <r>   -1.8737    1.0000 </r>
       <r>   -1.7628    1.0000 </r>
       <r>   -1.7098    1.0000 </r>
       <r>   -1.5870    1.0000 </r>
       <r>   -1.5684    1.0000 </r>
       <r>   -1.4763    1.0000 </r>
       <r>   -1.3910    1.0000 </r>
       <r>   -1.3069    1.0000 </r>
       <r>   -1.2702    1.0000 </r>
       <r>   -1.2481    1.0000 </r>
       <r>   -0.9591    1.0000 </r>
       <r>   -0.9103    1.0000 </r>
       <r>    0.2614    0.0000 </r>
       <r>    0.3087    0.0000 </r>
       <r>    0.5599    0.0000 </r>
       <r>    0.6414    0.0000 </r>
       <r>    0.6513    0.0000 </r>
       <r>    0.7850    0.0000 </r>
       <r>    0.8181    0.0000 </r>
       <r>    0.9736    0.0000 </r>
       <r>    0.9883    0.0000 </r>
       <r>    0.9993    0.0000 </r>
       <r>    1.1923    0.0000 </r>
       <r>    1.3109    0.0000 </r>
       <r>    1.4412    0.0000 </r>
       <r>    1.5383    0.0000 </r>
       <r>    1.5711    0.0000 </r>
       <r>    1.6438    0.0000 </r>
      </set>
      <set comment="kpoint 9">
       <r>  -29.2832    1.0000 </r>
       <r>  -29.2830    1.0000 </r>
       <r>  -28.2619    1.0000 </r>
       <r>  -28.2563    1.0000 </r>
       <r>  -28.2282    1.0000 </r>
       <r>  -28.2200    1.0000 </r>
       <r>  -28.1606    1.0000 </r>
       <r>  -28.1518    1.0000 </r>
       <r>  -14.6602    1.0000 </r>
       <r>  -14.6588    1.0000 </r>
       <r>  -14.5853    1.0000 </r>
       <r>  -14.5846    1.0000 </r>
       <r>  -14.5207    1.0000 </r>
       <r>  -14.5204    1.0000 </r>
       <r>  -13.9458    1.0000 </r>
       <r>  -13.8602    1.0000 </r>
       <r>  -13.8423    1.0000 </r>
       <r>  -13.7617    1.0000 </r>
       <r>  -13.7337    1.0000 </r>
       <r>  -13.6931    1.0000 </r>
       <r>  -13.6692    1.0000 </r>
       <r>  -13.6651    1.0000 </r>
       <r>  -13.5902    1.0000 </r>
       <r>  -13.5582    1.0000 </r>
       <r>  -13.5558    1.0000 </r>
       <r>  -13.5452    1.0000 </r>
       <r>  -13.4172    1.0000 </r>
       <r>  -13.4136    1.0000 </r>
       <r>  -13.3808    1.0000 </r>
       <r>  -13.3610    1.0000 </r>
       <r>  -13.3554    1.0000 </r>
       <r>  -13.3512    1.0000 </r>
       <r>  -11.3387    1.0000 </r>
       <r>  -11.2620    1.0000 </r>
       <r>  -10.8838    1.0000 </r>
       <r>  -10.8673    1.0000 </r>
       <r>   -6.6365    1.0000 </r>
       <r>   -6.5550    1.0000 </r>
       <r>   -6.5472    1.0000 </r>
       <r>   -6.5299    1.0000 </r>
       <r>   -6.4252    1.0000 </r>
       <r>   -6.4024    1.0000 </r>
       <r>   -6.1973    1.0000 </r>
       <r>   -6.1289    1.0000 </r>
       <r>   -6.0994    1.0000 </r>
       <r>   -6.0909    1.0000 </r>
       <r>   -5.9484    1.0000 </r>
       <r>   -5.9103    1.0000 </r>
       <r>   -3.4802    1.0000 </r>
       <r>   -3.1502    1.0000 </r>
       <r>   -2.8371    1.0000 </r>
       <r>   -2.6978    1.0000 </r>
       <r>   -2.6250    1.0000 </r>
       <r>   -2.4678    1.0000 </r>
       <r>   -2.3783    1.0000 </r>
       <r>   -2.2745    1.0000 </r>
       <r>   -2.1505    1.0000 </r>
       <r>   -2.1483    1.0000 </r>
       <r>   -2.0639    1.0000 </r>
       <r>   -1.9993    1.0000 </r>
       <r>   -1.8837    1.0000 </r>
       <r>   -1.7968    1.0000 </r>
       <r>   -1.7226    1.0000 </r>
       <r>   -1.6199    1.0000 </r>
       <r>   -1.5718    1.0000 </r>
       <r>   -1.4669    1.0000 </r>
       <r>   -1.3947    1.0000 </r>
       <r>   -1.3160    1.0000 </r>
       <r>   -1.2499    1.0000 </r>
       <r>   -1.2420    1.0000 </r>
       <r>   -0.9634    1.0000 </r>
       <r>   -0.9294    1.0000 </r>
       <r>    0.2331    0.0000 </r>
       <r>    0.3008    0.0000 </r>
       <r>    0.5053    0.0000 </r>
       <r>    0.6431    0.0000 </r>
       <r>    0.6527    0.0000 </r>
       <r>    0.7868    0.0000 </r>
       <r>    0.8572    0.0000 </r>
       <r>    0.9768    0.0000 </r>
       <r>    0.9860    0.0000 </r>
       <r>    0.9979    0.0000 </r>
       <r>    1.1491    0.0000 </r>
       <r>    1.3315    0.0000 </r>
       <r>    1.4499    0.0000 </r>
       <r>    1.5040    0.0000 </r>
       <r>    1.5914    0.0000 </r>
       <r>    1.6199    0.0000 </r>
      </set>
      <set comment="kpoint 10">
       <r>  -29.2832    1.0000 </r>
       <r>  -29.2830    1.0000 </r>
       <r>  -28.2613    1.0000 </r>
       <r>  -28.2561    1.0000 </r>
       <r>  -28.2280    1.0000 </r>
       <r>  -28.2203    1.0000 </r>
       <r>  -28.1606    1.0000 </r>
       <r>  -28.1523    1.0000 </r>
       <r>  -14.6594    1.0000 </r>
       <r>  -14.6581    1.0000 </r>
       <r>  -14.5857    1.0000 </r>
       <r>  -14.5851    1.0000 </r>
       <r>  -14.5238    1.0000 </r>
       <r>  -14.5235    1.0000 </r>
       <r>  -13.9436    1.0000 </r>
       <r>  -13.8625    1.0000 </r>
       <r>  -13.8463    1.0000 </r>
       <r>  -13.7692    1.0000 </r>
       <r>  -13.7383    1.0000 </r>
       <r>  -13.6992    1.0000 </r>
       <r>  -13.6669    1.0000 </r>
       <r>  -13.6610    1.0000 </r>
       <r>  -13.5919    1.0000 </r>
       <r>  -13.5587    1.0000 </r>
       <r>  -13.5565    1.0000 </r>
       <r>  -13.5455    1.0000 </r>
       <r>  -13.4158    1.0000 </r>
       <r>  -13.4081    1.0000 </r>
       <r>  -13.3793    1.0000 </r>
       <r>  -13.3577    1.0000 </r>
       <r>  -13.3566    1.0000 </r>
       <r>  -13.3520    1.0000 </r>
       <r>  -11.3276    1.0000 </r>
       <r>  -11.2582    1.0000 </r>
       <r>  -10.8769    1.0000 </r>
       <r>  -10.8617    1.0000 </r>
       <r>   -6.6485    1.0000 </r>
       <r>   -6.5665    1.0000 </r>
       <r>   -6.5358    1.0000 </r>
       <r>   -6.5171    1.0000 </r>
       <r>   -6.4129    1.0000 </r>
       <r>   -6.3977    1.0000 </r>
       <r>   -6.1911    1.0000 </r>
       <r>   -6.1193    1.0000 </r>
       <r>   -6.0982    1.0000 </r>
       <r>   -6.0912    1.0000 </r>
       <r>   -5.9675    1.0000 </r>
       <r>   -5.9263    1.0000 </r>
       <r>   -3.4072    1.0000 </r>
       <r>   -3.0983    1.0000 </r>
       <r>   -2.8249    1.0000 </r>
       <r>   -2.6530    1.0000 </r>
       <r>   -2.6224    1.0000 </r>
       <r>   -2.4709    1.0000 </r>
       <r>   -2.3846    1.0000 </r>
       <r>   -2.2688    1.0000 </r>
       <r>   -2.1728    1.0000 </r>
       <r>   -2.1668    1.0000 </r>
       <r>   -2.0539    1.0000 </r>
       <r>   -2.0058    1.0000 </r>
       <r>   -1.8904    1.0000 </r>
       <r>   -1.8344    1.0000 </r>
       <r>   -1.7377    1.0000 </r>
       <r>   -1.6530    1.0000 </r>
       <r>   -1.5731    1.0000 </r>
       <r>   -1.4857    1.0000 </r>
       <r>   -1.3690    1.0000 </r>
       <r>   -1.3234    1.0000 </r>
       <r>   -1.2536    1.0000 </r>
       <r>   -1.2163    1.0000 </r>
       <r>   -0.9722    1.0000 </r>
       <r>   -0.9499    1.0000 </r>
       <r>    0.2109    0.0000 </r>
       <r>    0.2991    0.0000 </r>
       <r>    0.4400    0.0000 </r>
       <r>    0.6301    0.0000 </r>
       <r>    0.6538    0.0000 </r>
       <r>    0.7938    0.0000 </r>
       <r>    0.8960    0.0000 </r>
       <r>    0.9660    0.0000 </r>
       <r>    0.9944    0.0000 </r>
       <r>    1.0127    0.0000 </r>
       <r>    1.1168    0.0000 </r>
       <r>    1.3460    0.0000 </r>
       <r>    1.4364    0.0000 </r>
       <r>    1.5063    0.0000 </r>
       <r>    1.6014    0.0000 </r>
       <r>    1.7213    0.0000 </r>
      </set>
      <set comment="kpoint 11">
       <r>  -29.2832    1.0000 </r>
       <r>  -29.2830    1.0000 </r>
       <r>  -28.2607    1.0000 </r>
       <r>  -28.2560    1.0000 </r>
       <r>  -28.2278    1.0000 </r>
       <r>  -28.2206    1.0000 </r>
       <r>  -28.1607    1.0000 </r>
       <r>  -28.1530    1.0000 </r>
       <r>  -14.6586    1.0000 </r>
       <r>  -14.6574    1.0000 </r>
       <r>  -14.5861    1.0000 </r>
       <r>  -14.5856    1.0000 </r>
       <r>  -14.5269    1.0000 </r>
       <r>  -14.5267    1.0000 </r>
       <r>  -13.9411    1.0000 </r>
       <r>  -13.8651    1.0000 </r>
       <r>  -13.8495    1.0000 </r>
       <r>  -13.7765    1.0000 </r>
       <r>  -13.7441    1.0000 </r>
       <r>  -13.7060    1.0000 </r>
       <r>  -13.6628    1.0000 </r>
       <r>  -13.6566    1.0000 </r>
       <r>  -13.5943    1.0000 </r>
       <r>  -13.5593    1.0000 </r>
       <r>  -13.5582    1.0000 </r>
       <r>  -13.5461    1.0000 </r>
       <r>  -13.4135    1.0000 </r>
       <r>  -13.4025    1.0000 </r>
       <r>  -13.3778    1.0000 </r>
       <r>  -13.3576    1.0000 </r>
       <r>  -13.3549    1.0000 </r>
       <r>  -13.3527    1.0000 </r>
       <r>  -11.3164    1.0000 </r>
       <r>  -11.2544    1.0000 </r>
       <r>  -10.8697    1.0000 </r>
       <r>  -10.8559    1.0000 </r>
       <r>   -6.6639    1.0000 </r>
       <r>   -6.5865    1.0000 </r>
       <r>   -6.5170    1.0000 </r>
       <r>   -6.4991    1.0000 </r>
       <r>   -6.3994    1.0000 </r>
       <r>   -6.3929    1.0000 </r>
       <r>   -6.1849    1.0000 </r>
       <r>   -6.1149    1.0000 </r>
       <r>   -6.1016    1.0000 </r>
       <r>   -6.0846    1.0000 </r>
       <r>   -5.9840    1.0000 </r>
       <r>   -5.9409    1.0000 </r>
       <r>   -3.3329    1.0000 </r>
       <r>   -3.0464    1.0000 </r>
       <r>   -2.8132    1.0000 </r>
       <r>   -2.6199    1.0000 </r>
       <r>   -2.6093    1.0000 </r>
       <r>   -2.4759    1.0000 </r>
       <r>   -2.3867    1.0000 </r>
       <r>   -2.2635    1.0000 </r>
       <r>   -2.1956    1.0000 </r>
       <r>   -2.1831    1.0000 </r>
       <r>   -2.0449    1.0000 </r>
       <r>   -2.0121    1.0000 </r>
       <r>   -1.8931    1.0000 </r>
       <r>   -1.8723    1.0000 </r>
       <r>   -1.7548    1.0000 </r>
       <r>   -1.6881    1.0000 </r>
       <r>   -1.5714    1.0000 </r>
       <r>   -1.5131    1.0000 </r>
       <r>   -1.3339    1.0000 </r>
       <r>   -1.3268    1.0000 </r>
       <r>   -1.2597    1.0000 </r>
       <r>   -1.1944    1.0000 </r>
       <r>   -0.9848    1.0000 </r>
       <r>   -0.9716    1.0000 </r>
       <r>    0.1950    0.0000 </r>
       <r>    0.3005    0.0000 </r>
       <r>    0.3746    0.0000 </r>
       <r>    0.5923    0.0000 </r>
       <r>    0.6685    0.0000 </r>
       <r>    0.8064    0.0000 </r>
       <r>    0.9259    0.0000 </r>
       <r>    0.9416    0.0000 </r>
       <r>    1.0160    0.0000 </r>
       <r>    1.0353    0.0000 </r>
       <r>    1.0957    0.0000 </r>
       <r>    1.3430    0.0000 </r>
       <r>    1.4119    0.0000 </r>
       <r>    1.5220    0.0000 </r>
       <r>    1.5614    0.0000 </r>
       <r>    1.6595    0.0000 </r>
      </set>
      <set comment="kpoint 12">
       <r>  -29.2832    1.0000 </r>
       <r>  -29.2830    1.0000 </r>
       <r>  -28.2601    1.0000 </r>
       <r>  -28.2558    1.0000 </r>
       <r>  -28.2276    1.0000 </r>
       <r>  -28.2209    1.0000 </r>
       <r>  -28.1606    1.0000 </r>
       <r>  -28.1536    1.0000 </r>
       <r>  -14.6578    1.0000 </r>
       <r>  -14.6566    1.0000 </r>
       <r>  -14.5865    1.0000 </r>
       <r>  -14.5861    1.0000 </r>
       <r>  -14.5300    1.0000 </r>
       <r>  -14.5298    1.0000 </r>
       <r>  -13.9385    1.0000 </r>
       <r>  -13.8682    1.0000 </r>
       <r>  -13.8519    1.0000 </r>
       <r>  -13.7836    1.0000 </r>
       <r>  -13.7499    1.0000 </r>
       <r>  -13.7132    1.0000 </r>
       <r>  -13.6578    1.0000 </r>
       <r>  -13.6518    1.0000 </r>
       <r>  -13.5969    1.0000 </r>
       <r>  -13.5613    1.0000 </r>
       <r>  -13.5598    1.0000 </r>
       <r>  -13.5467    1.0000 </r>
       <r>  -13.4106    1.0000 </r>
       <r>  -13.3972    1.0000 </r>
       <r>  -13.3764    1.0000 </r>
       <r>  -13.3583    1.0000 </r>
       <r>  -13.3546    1.0000 </r>
       <r>  -13.3514    1.0000 </r>
       <r>  -11.3055    1.0000 </r>
       <r>  -11.2509    1.0000 </r>
       <r>  -10.8625    1.0000 </r>
       <r>  -10.8502    1.0000 </r>
       <r>   -6.6802    1.0000 </r>
       <r>   -6.6070    1.0000 </r>
       <r>   -6.4986    1.0000 </r>
       <r>   -6.4788    1.0000 </r>
       <r>   -6.3880    1.0000 </r>
       <r>   -6.3848    1.0000 </r>
       <r>   -6.1792    1.0000 </r>
       <r>   -6.1231    1.0000 </r>
       <r>   -6.0936    1.0000 </r>
       <r>   -6.0805    1.0000 </r>
       <r>   -5.9965    1.0000 </r>
       <r>   -5.9540    1.0000 </r>
       <r>   -3.2589    1.0000 </r>
       <r>   -2.9962    1.0000 </r>
       <r>   -2.8019    1.0000 </r>
       <r>   -2.6165    1.0000 </r>
       <r>   -2.5690    1.0000 </r>
       <r>   -2.4842    1.0000 </r>
       <r>   -2.3856    1.0000 </r>
       <r>   -2.2590    1.0000 </r>
       <r>   -2.2161    1.0000 </r>
       <r>   -2.1973    1.0000 </r>
       <r>   -2.0368    1.0000 </r>
       <r>   -2.0197    1.0000 </r>
       <r>   -1.9058    1.0000 </r>
       <r>   -1.8917    1.0000 </r>
       <r>   -1.7735    1.0000 </r>
       <r>   -1.7265    1.0000 </r>
       <r>   -1.5659    1.0000 </r>
       <r>   -1.5419    1.0000 </r>
       <r>   -1.3249    1.0000 </r>
       <r>   -1.2974    1.0000 </r>
       <r>   -1.2687    1.0000 </r>
       <r>   -1.1773    1.0000 </r>
       <r>   -1.0003    1.0000 </r>
       <r>   -0.9935    1.0000 </r>
       <r>    0.1844    0.0000 </r>
       <r>    0.2993    0.0000 </r>
       <r>    0.3145    0.0000 </r>
       <r>    0.5535    0.0000 </r>
       <r>    0.6868    0.0000 </r>
       <r>    0.8144    0.0000 </r>
       <r>    0.9211    0.0000 </r>
       <r>    0.9406    0.0000 </r>
       <r>    1.0261    0.0000 </r>
       <r>    1.0675    0.0000 </r>
       <r>    1.0947    0.0000 </r>
       <r>    1.3154    0.0000 </r>
       <r>    1.4023    0.0000 </r>
       <r>    1.5270    0.0000 </r>
       <r>    1.5507    0.0000 </r>
       <r>    1.6043    0.0000 </r>
      </set>
      <set comment="kpoint 13">
       <r>  -29.2832    1.0000 </r>
       <r>  -29.2830    1.0000 </r>
       <r>  -28.2595    1.0000 </r>
       <r>  -28.2556    1.0000 </r>
       <r>  -28.2273    1.0000 </r>
       <r>  -28.2213    1.0000 </r>
       <r>  -28.1606    1.0000 </r>
       <r>  -28.1543    1.0000 </r>
       <r>  -14.6569    1.0000 </r>
       <r>  -14.6559    1.0000 </r>
       <r>  -14.5869    1.0000 </r>
       <r>  -14.5865    1.0000 </r>
       <r>  -14.5330    1.0000 </r>
       <r>  -14.5328    1.0000 </r>
       <r>  -13.9356    1.0000 </r>
       <r>  -13.8717    1.0000 </r>
       <r>  -13.8533    1.0000 </r>
       <r>  -13.7905    1.0000 </r>
       <r>  -13.7551    1.0000 </r>
       <r>  -13.7206    1.0000 </r>
       <r>  -13.6526    1.0000 </r>
       <r>  -13.6466    1.0000 </r>
       <r>  -13.5998    1.0000 </r>
       <r>  -13.5653    1.0000 </r>
       <r>  -13.5604    1.0000 </r>
       <r>  -13.5473    1.0000 </r>
       <r>  -13.4070    1.0000 </r>
       <r>  -13.3921    1.0000 </r>
       <r>  -13.3752    1.0000 </r>
       <r>  -13.3585    1.0000 </r>
       <r>  -13.3557    1.0000 </r>
       <r>  -13.3494    1.0000 </r>
       <r>  -11.2949    1.0000 </r>
       <r>  -11.2477    1.0000 </r>
       <r>  -10.8555    1.0000 </r>
       <r>  -10.8447    1.0000 </r>
       <r>   -6.6956    1.0000 </r>
       <r>   -6.6274    1.0000 </r>
       <r>   -6.4812    1.0000 </r>
       <r>   -6.4580    1.0000 </r>
       <r>   -6.3826    1.0000 </r>
       <r>   -6.3702    1.0000 </r>
       <r>   -6.1749    1.0000 </r>
       <r>   -6.1346    1.0000 </r>
       <r>   -6.0832    1.0000 </r>
       <r>   -6.0792    1.0000 </r>
       <r>   -6.0040    1.0000 </r>
       <r>   -5.9657    1.0000 </r>
       <r>   -3.1869    1.0000 </r>
       <r>   -2.9496    1.0000 </r>
       <r>   -2.7906    1.0000 </r>
       <r>   -2.6116    1.0000 </r>
       <r>   -2.5347    1.0000 </r>
       <r>   -2.4969    1.0000 </r>
       <r>   -2.3827    1.0000 </r>
       <r>   -2.2566    1.0000 </r>
       <r>   -2.2334    1.0000 </r>
       <r>   -2.2064    1.0000 </r>
       <r>   -2.0308    1.0000 </r>
       <r>   -2.0294    1.0000 </r>
       <r>   -1.9293    1.0000 </r>
       <r>   -1.8869    1.0000 </r>
       <r>   -1.7926    1.0000 </r>
       <r>   -1.7675    1.0000 </r>
       <r>   -1.5704    1.0000 </r>
       <r>   -1.5567    1.0000 </r>
       <r>   -1.3173    1.0000 </r>
       <r>   -1.2806    1.0000 </r>
       <r>   -1.2629    1.0000 </r>
       <r>   -1.1654    1.0000 </r>
       <r>   -1.0174    1.0000 </r>
       <r>   -1.0142    1.0000 </r>
       <r>    0.1748    0.0000 </r>
       <r>    0.2661    0.0000 </r>
       <r>    0.2875    0.0000 </r>
       <r>    0.5254    0.0000 </r>
       <r>    0.7091    0.0000 </r>
       <r>    0.8033    0.0000 </r>
       <r>    0.9210    0.0000 </r>
       <r>    0.9398    0.0000 </r>
       <r>    1.0148    0.0000 </r>
       <r>    1.1047    0.0000 </r>
       <r>    1.1191    0.0000 </r>
       <r>    1.2750    0.0000 </r>
       <r>    1.4067    0.0000 </r>
       <r>    1.4945    0.0000 </r>
       <r>    1.5707    0.0000 </r>
       <r>    1.5803    0.0000 </r>
      </set>
      <set comment="kpoint 14">
       <r>  -29.2832    1.0000 </r>
       <r>  -29.2830    1.0000 </r>
       <r>  -28.2588    1.0000 </r>
       <r>  -28.2555    1.0000 </r>
       <r>  -28.2270    1.0000 </r>
       <r>  -28.2218    1.0000 </r>
       <r>  -28.1605    1.0000 </r>
       <r>  -28.1549    1.0000 </r>
       <r>  -14.6561    1.0000 </r>
       <r>  -14.6552    1.0000 </r>
       <r>  -14.5872    1.0000 </r>
       <r>  -14.5870    1.0000 </r>
       <r>  -14.5357    1.0000 </r>
       <r>  -14.5355    1.0000 </r>
       <r>  -13.9325    1.0000 </r>
       <r>  -13.8759    1.0000 </r>
       <r>  -13.8537    1.0000 </r>
       <r>  -13.7973    1.0000 </r>
       <r>  -13.7592    1.0000 </r>
       <r>  -13.7278    1.0000 </r>
       <r>  -13.6474    1.0000 </r>
       <r>  -13.6413    1.0000 </r>
       <r>  -13.6028    1.0000 </r>
       <r>  -13.5701    1.0000 </r>
       <r>  -13.5608    1.0000 </r>
       <r>  -13.5482    1.0000 </r>
       <r>  -13.4031    1.0000 </r>
       <r>  -13.3875    1.0000 </r>
       <r>  -13.3743    1.0000 </r>
       <r>  -13.3582    1.0000 </r>
       <r>  -13.3570    1.0000 </r>
       <r>  -13.3477    1.0000 </r>
       <r>  -11.2850    1.0000 </r>
       <r>  -11.2450    1.0000 </r>
       <r>  -10.8488    1.0000 </r>
       <r>  -10.8396    1.0000 </r>
       <r>   -6.7093    1.0000 </r>
       <r>   -6.6474    1.0000 </r>
       <r>   -6.4649    1.0000 </r>
       <r>   -6.4385    1.0000 </r>
       <r>   -6.3763    1.0000 </r>
       <r>   -6.3560    1.0000 </r>
       <r>   -6.1727    1.0000 </r>
       <r>   -6.1469    1.0000 </r>
[...]
       <r>  -13.7115    1.0000 </r>
       <r>  -13.6883    1.0000 </r>
       <r>  -13.6717    1.0000 </r>
       <r>  -13.6155    1.0000 </r>
       <r>  -13.6003    1.0000 </r>
       <r>  -13.5751    1.0000 </r>
       <r>  -13.5596    1.0000 </r>
       <r>  -13.5456    1.0000 </r>
       <r>  -13.4377    1.0000 </r>
       <r>  -13.4165    1.0000 </r>
       <r>  -13.3876    1.0000 </r>
       <r>  -13.3780    1.0000 </r>
       <r>  -13.3482    1.0000 </r>
       <r>  -13.3478    1.0000 </r>
       <r>  -11.3917    1.0000 </r>
       <r>  -11.2809    1.0000 </r>
       <r>  -10.9145    1.0000 </r>
       <r>  -10.8930    1.0000 </r>
       <r>   -6.6743    1.0000 </r>
       <r>   -6.6440    1.0000 </r>
       <r>   -6.4992    1.0000 </r>
       <r>   -6.4590    1.0000 </r>
       <r>   -6.4400    1.0000 </r>
       <r>   -6.4381    1.0000 </r>
       <r>   -6.2250    1.0000 </r>
       <r>   -6.1744    1.0000 </r>
       <r>   -6.1500    1.0000 </r>
       <r>   -6.0714    1.0000 </r>
       <r>   -5.8350    1.0000 </r>
       <r>   -5.8145    1.0000 </r>
       <r>   -3.8216    1.0000 </r>
       <r>   -3.3972    1.0000 </r>
       <r>   -2.9150    1.0000 </r>
       <r>   -2.9010    1.0000 </r>
       <r>   -2.6501    1.0000 </r>
       <r>   -2.4552    1.0000 </r>
       <r>   -2.3019    1.0000 </r>
       <r>   -2.2811    1.0000 </r>
       <r>   -2.1397    1.0000 </r>
       <r>   -2.0830    1.0000 </r>
       <r>   -1.9722    1.0000 </r>
       <r>   -1.9671    1.0000 </r>
       <r>   -1.7622    1.0000 </r>
       <r>   -1.7280    1.0000 </r>
       <r>   -1.6607    1.0000 </r>
       <r>   -1.6448    1.0000 </r>
       <r>   -1.5387    1.0000 </r>
       <r>   -1.4268    1.0000 </r>
       <r>   -1.4087    1.0000 </r>
       <r>   -1.2933    1.0000 </r>
       <r>   -1.2506    1.0000 </r>
       <r>   -1.2266    1.0000 </r>
       <r>   -1.0063    1.0000 </r>
       <r>   -0.8320    1.0000 </r>
       <r>    0.4690    0.0000 </r>
       <r>    0.5029    0.0000 </r>
       <r>    0.5136    0.0000 </r>
       <r>    0.5261    0.0000 </r>
       <r>    0.5566    0.0000 </r>
       <r>    0.6715    0.0000 </r>
       <r>    0.8390    0.0000 </r>
       <r>    0.9367    0.0000 </r>
       <r>    1.0581    0.0000 </r>
       <r>    1.2043    0.0000 </r>
       <r>    1.2507    0.0000 </r>
       <r>    1.3555    0.0000 </r>
       <r>    1.4034    0.0000 </r>
       <r>    1.5552    0.0000 </r>
       <r>    1.5689    0.0000 </r>
       <r>    1.6960    0.0000 </r>
      </set>
     </set>
    </set>
   </array>
  </eigenvalues>
  <separator name="orbital magnetization" >
   <v name="MAGDIPOLOUT">      0.00000000      0.00000000      0.00000000</v>
  </separator>
  <dos>
   <i name="efermi">     -0.78673466 </i>
   <total>
    <array>
     <dimension dim="1">gridpoints</dimension>
     <dimension dim="2">spin</dimension>
     <field>energy</field>
     <field>total</field>
     <field>integrated</field>
     <set>
      <set comment="spin 1">
       <r>   -30.8401     0.0000     0.0000 </r>
       <r>   -30.7259     0.0000     0.0000 </r>
       <r>   -30.6117     0.0000     0.0000 </r>
       <r>   -30.4976     0.0000     0.0000 </r>
       <r>   -30.3834     0.0000     0.0000 </r>
       <r>   -30.2692     0.0000     0.0000 </r>
       <r>   -30.1551     0.0000     0.0000 </r>
       <r>   -30.0409     0.0000     0.0000 </r>
       <r>   -29.9268     0.0000     0.0000 </r>
       <r>   -29.8126     0.0000     0.0000 </r>
       <r>   -29.6984     0.0000     0.0000 </r>
       <r>   -29.5843     0.0000     0.0000 </r>
       <r>   -29.4701     0.0000     0.0000 </r>
       <r>   -29.3559     0.0000     0.0000 </r>
       <r>   -29.2418    35.0377     4.0000 </r>
       <r>   -29.1276     0.0000     4.0000 </r>
       <r>   -29.0135     0.0000     4.0000 </r>
       <r>   -28.8993     0.0000     4.0000 </r>
       <r>   -28.7851     0.0000     4.0000 </r>
       <r>   -28.6710     0.0000     4.0000 </r>
       <r>   -28.5568     0.0000     4.0000 </r>
       <r>   -28.4426     0.0000     4.0000 </r>
       <r>   -28.3285     0.0000     4.0000 </r>
       <r>   -28.2143    66.3315    11.5726 </r>
       <r>   -28.1002    35.0377    16.0000 </r>
       <r>   -27.9860     0.0000    16.0000 </r>
       <r>   -27.8718     0.0000    16.0000 </r>
       <r>   -27.7577     0.0000    16.0000 </r>
       <r>   -27.6435     0.0000    16.0000 </r>
       <r>   -27.5293     0.0000    16.0000 </r>
       <r>   -27.4152     0.0000    16.0000 </r>
       <r>   -27.3010     0.0000    16.0000 </r>
       <r>   -27.1869     0.0000    16.0000 </r>
       <r>   -27.0727     0.0000    16.0000 </r>
       <r>   -26.9585     0.0000    16.0000 </r>
       <r>   -26.8444     0.0000    16.0000 </r>
       <r>   -26.7302     0.0000    16.0000 </r>
       <r>   -26.6160     0.0000    16.0000 </r>
       <r>   -26.5019     0.0000    16.0000 </r>
       <r>   -26.3877     0.0000    16.0000 </r>
       <r>   -26.2735     0.0000    16.0000 </r>
       <r>   -26.1594     0.0000    16.0000 </r>
       <r>   -26.0452     0.0000    16.0000 </r>
       <r>   -25.9311     0.0000    16.0000 </r>
       <r>   -25.8169     0.0000    16.0000 </r>
       <r>   -25.7027     0.0000    16.0000 </r>
       <r>   -25.5886     0.0000    16.0000 </r>
       <r>   -25.4744     0.0000    16.0000 </r>
       <r>   -25.3602     0.0000    16.0000 </r>
       <r>   -25.2461     0.0000    16.0000 </r>
       <r>   -25.1319     0.0000    16.0000 </r>
       <r>   -25.0178     0.0000    16.0000 </r>
       <r>   -24.9036     0.0000    16.0000 </r>
       <r>   -24.7894     0.0000    16.0000 </r>
       <r>   -24.6753     0.0000    16.0000 </r>
       <r>   -24.5611     0.0000    16.0000 </r>
       <r>   -24.4469     0.0000    16.0000 </r>
       <r>   -24.3328     0.0000    16.0000 </r>
       <r>   -24.2186     0.0000    16.0000 </r>
       <r>   -24.1045     0.0000    16.0000 </r>
       <r>   -23.9903     0.0000    16.0000 </r>
       <r>   -23.8761     0.0000    16.0000 </r>
       <r>   -23.7620     0.0000    16.0000 </r>
       <r>   -23.6478     0.0000    16.0000 </r>
       <r>   -23.5336     0.0000    16.0000 </r>
       <r>   -23.4195     0.0000    16.0000 </r>
       <r>   -23.3053     0.0000    16.0000 </r>
       <r>   -23.1912     0.0000    16.0000 </r>
       <r>   -23.0770     0.0000    16.0000 </r>
       <r>   -22.9628     0.0000    16.0000 </r>
       <r>   -22.8487     0.0000    16.0000 </r>
       <r>   -22.7345     0.0000    16.0000 </r>
       <r>   -22.6203     0.0000    16.0000 </r>
       <r>   -22.5062     0.0000    16.0000 </r>
       <r>   -22.3920     0.0000    16.0000 </r>
       <r>   -22.2779     0.0000    16.0000 </r>
       <r>   -22.1637     0.0000    16.0000 </r>
       <r>   -22.0495     0.0000    16.0000 </r>
       <r>   -21.9354     0.0000    16.0000 </r>
       <r>   -21.8212     0.0000    16.0000 </r>
       <r>   -21.7070     0.0000    16.0000 </r>
       <r>   -21.5929     0.0000    16.0000 </r>
       <r>   -21.4787     0.0000    16.0000 </r>
       <r>   -21.3646     0.0000    16.0000 </r>
       <r>   -21.2504     0.0000    16.0000 </r>
       <r>   -21.1362     0.0000    16.0000 </r>
       <r>   -21.0221     0.0000    16.0000 </r>
       <r>   -20.9079     0.0000    16.0000 </r>
       <r>   -20.7937     0.0000    16.0000 </r>
       <r>   -20.6796     0.0000    16.0000 </r>
       <r>   -20.5654     0.0000    16.0000 </r>
       <r>   -20.4513     0.0000    16.0000 </r>
       <r>   -20.3371     0.0000    16.0000 </r>
       <r>   -20.2229     0.0000    16.0000 </r>
       <r>   -20.1088     0.0000    16.0000 </r>
       <r>   -19.9946     0.0000    16.0000 </r>
       <r>   -19.8804     0.0000    16.0000 </r>
       <r>   -19.7663     0.0000    16.0000 </r>
       <r>   -19.6521     0.0000    16.0000 </r>
       <r>   -19.5380     0.0000    16.0000 </r>
       <r>   -19.4238     0.0000    16.0000 </r>
       <r>   -19.3096     0.0000    16.0000 </r>
       <r>   -19.1955     0.0000    16.0000 </r>
       <r>   -19.0813     0.0000    16.0000 </r>
       <r>   -18.9671     0.0000    16.0000 </r>
       <r>   -18.8530     0.0000    16.0000 </r>
       <r>   -18.7388     0.0000    16.0000 </r>
       <r>   -18.6247     0.0000    16.0000 </r>
       <r>   -18.5105     0.0000    16.0000 </r>
       <r>   -18.3963     0.0000    16.0000 </r>
       <r>   -18.2822     0.0000    16.0000 </r>
       <r>   -18.1680     0.0000    16.0000 </r>
       <r>   -18.0538     0.0000    16.0000 </r>
       <r>   -17.9397     0.0000    16.0000 </r>
       <r>   -17.8255     0.0000    16.0000 </r>
       <r>   -17.7113     0.0000    16.0000 </r>
       <r>   -17.5972     0.0000    16.0000 </r>
       <r>   -17.4830     0.0000    16.0000 </r>
       <r>   -17.3689     0.0000    16.0000 </r>
       <r>   -17.2547     0.0000    16.0000 </r>
       <r>   -17.1405     0.0000    16.0000 </r>
       <r>   -17.0264     0.0000    16.0000 </r>
       <r>   -16.9122     0.0000    16.0000 </r>
       <r>   -16.7980     0.0000    16.0000 </r>
       <r>   -16.6839     0.0000    16.0000 </r>
       <r>   -16.5697     0.0000    16.0000 </r>
       <r>   -16.4556     0.0000    16.0000 </r>
       <r>   -16.3414     0.0000    16.0000 </r>
       <r>   -16.2272     0.0000    16.0000 </r>
       <r>   -16.1131     0.0000    16.0000 </r>
       <r>   -15.9989     0.0000    16.0000 </r>
       <r>   -15.8847     0.0000    16.0000 </r>
       <r>   -15.7706     0.0000    16.0000 </r>
       <r>   -15.6564     0.0000    16.0000 </r>
       <r>   -15.5423     0.0000    16.0000 </r>
       <r>   -15.4281     0.0000    16.0000 </r>
       <r>   -15.3139     0.0000    16.0000 </r>
       <r>   -15.1998     0.0000    16.0000 </r>
       <r>   -15.0856     0.0000    16.0000 </r>
       <r>   -14.9714     0.0000    16.0000 </r>
       <r>   -14.8573     0.0000    16.0000 </r>
       <r>   -14.7431     0.0000    16.0000 </r>
       <r>   -14.6290    35.0337    19.9995 </r>
       <r>   -14.5148    57.0171    26.5092 </r>
       <r>   -14.4006     0.0000    28.0000 </r>
       <r>   -14.2865     0.0000    28.0000 </r>
       <r>   -14.1723     0.0000    28.0000 </r>
       <r>   -14.0581     0.0000    28.0000 </r>
       <r>   -13.9440     6.3342    28.7231 </r>
       <r>   -13.8298    38.8004    33.7546 </r>
       <r>   -13.7157    38.3920    38.7079 </r>
       <r>   -13.6015    38.6983    44.4179 </r>
       <r>   -13.4873    46.4337    52.0010 </r>
       <r>   -13.3732    48.7706    57.9178 </r>
       <r>   -13.2590     0.0000    64.0000 </r>
       <r>   -13.1448     0.0000    64.0000 </r>
       <r>   -13.0307     0.0000    64.0000 </r>
       <r>   -12.9165     0.0000    64.0000 </r>
       <r>   -12.8024     0.0000    64.0000 </r>
       <r>   -12.6882     0.0000    64.0000 </r>
       <r>   -12.5740     0.0000    64.0000 </r>
       <r>   -12.4599     0.0000    64.0000 </r>
       <r>   -12.3457     0.0000    64.0000 </r>
       <r>   -12.2315     0.0000    64.0000 </r>
       <r>   -12.1174     0.0000    64.0000 </r>
       <r>   -12.0032     0.0000    64.0000 </r>
       <r>   -11.8891     0.0000    64.0000 </r>
       <r>   -11.7749     0.0000    64.0000 </r>
       <r>   -11.6607     0.0000    64.0000 </r>
       <r>   -11.5466     0.0000    64.0000 </r>
       <r>   -11.4324     0.0000    64.0000 </r>
       <r>   -11.3182     8.1646    64.9321 </r>
       <r>   -11.2041    22.7745    68.0000 </r>
       <r>   -11.0899     0.0000    68.0000 </r>
       <r>   -10.9758     0.0000    68.0000 </r>
       <r>   -10.8616    17.2561    70.0950 </r>
       <r>   -10.7474    10.9493    72.0000 </r>
       <r>   -10.6333     0.0000    72.0000 </r>
       <r>   -10.5191     0.0000    72.0000 </r>
       <r>   -10.4049     0.0000    72.0000 </r>
       <r>   -10.2908     0.0000    72.0000 </r>
       <r>   -10.1766     0.0000    72.0000 </r>
       <r>   -10.0625     0.0000    72.0000 </r>
       <r>    -9.9483     0.0000    72.0000 </r>
       <r>    -9.8341     0.0000    72.0000 </r>
       <r>    -9.7200     0.0000    72.0000 </r>
       <r>    -9.6058     0.0000    72.0000 </r>
       <r>    -9.4916     0.0000    72.0000 </r>
       <r>    -9.3775     0.0000    72.0000 </r>
       <r>    -9.2633     0.0000    72.0000 </r>
       <r>    -9.1491     0.0000    72.0000 </r>
       <r>    -9.0350     0.0000    72.0000 </r>
       <r>    -8.9208     0.0000    72.0000 </r>
       <r>    -8.8067     0.0000    72.0000 </r>
       <r>    -8.6925     0.0000    72.0000 </r>
       <r>    -8.5783     0.0000    72.0000 </r>
       <r>    -8.4642     0.0000    72.0000 </r>
       <r>    -8.3500     0.0000    72.0000 </r>
       <r>    -8.2358     0.0000    72.0000 </r>
       <r>    -8.1217     0.0000    72.0000 </r>
       <r>    -8.0075     0.0000    72.0000 </r>
       <r>    -7.8934     0.0000    72.0000 </r>
       <r>    -7.7792     0.0000    72.0000 </r>
       <r>    -7.6650     0.0000    72.0000 </r>
       <r>    -7.5509     0.0000    72.0000 </r>
       <r>    -7.4367     0.0000    72.0000 </r>
       <r>    -7.3225     0.0000    72.0000 </r>
       <r>    -7.2084     0.0000    72.0000 </r>
       <r>    -7.0942     0.0000    72.0000 </r>
       <r>    -6.9801     0.0000    72.0000 </r>
       <r>    -6.8659     0.0000    72.0000 </r>
       <r>    -6.7517     1.3607    72.1553 </r>
       <r>    -6.6376    13.1526    74.9765 </r>
       <r>    -6.5234     8.7805    76.5524 </r>
       <r>    -6.4092    30.9896    81.6129 </r>
       <r>    -6.2951    14.0146    83.9999 </r>
       <r>    -6.1809    17.1719    86.0604 </r>
       <r>    -6.0668    17.2831    89.3981 </r>
       <r>    -5.9526    29.1166    93.8240 </r>
       <r>    -5.8384     7.5962    94.9672 </r>
       <r>    -5.7243     0.0000    96.0000 </r>
       <r>    -5.6101     0.0000    96.0000 </r>
       <r>    -5.4959     0.0000    96.0000 </r>
       <r>    -5.3818     0.0000    96.0000 </r>
       <r>    -5.2676     0.0000    96.0000 </r>
       <r>    -5.1535     0.0000    96.0000 </r>
       <r>    -5.0393     0.0000    96.0000 </r>
       <r>    -4.9251     0.0000    96.0000 </r>
       <r>    -4.8110     0.0000    96.0000 </r>
       <r>    -4.6968     0.0000    96.0000 </r>
       <r>    -4.5826     0.0000    96.0000 </r>
       <r>    -4.4685     0.0000    96.0000 </r>
       <r>    -4.3543     0.0000    96.0000 </r>
       <r>    -4.2402     0.0000    96.0000 </r>
       <r>    -4.1260     0.0000    96.0000 </r>
       <r>    -4.0118     0.0000    96.0000 </r>
       <r>    -3.8977     0.0000    96.0000 </r>
       <r>    -3.7835     1.8552    96.2118 </r>
       <r>    -3.6693     1.0683    96.4220 </r>
       <r>    -3.5552     1.0596    96.5960 </r>
       <r>    -3.4410     0.8743    96.8498 </r>
       <r>    -3.3269     4.0323    97.3603 </r>
       <r>    -3.2127     1.9630    97.8491 </r>
       <r>    -3.0985     1.4175    98.0868 </r>
       <r>    -2.9844     1.9501    98.3726 </r>
       <r>    -2.8702    14.9025   100.4763 </r>
       <r>    -2.7560    11.8505   102.6279 </r>
       <r>    -2.6419    13.3130   104.8199 </r>
       <r>    -2.5277     5.7808   106.3100 </r>
       <r>    -2.4136    17.5037   109.0733 </r>
       <r>    -2.2994     7.7966   110.2651 </r>
       <r>    -2.1852    10.6783   112.7191 </r>
       <r>    -2.0711    29.8299   117.0805 </r>
       <r>    -1.9569    17.9898   120.5038 </r>
       <r>    -1.8427    11.2686   122.4114 </r>
       <r>    -1.7286    12.5521   124.6830 </r>
       <r>    -1.6144    22.1676   128.3057 </r>
       <r>    -1.5003    10.6925   130.2457 </r>
       <r>    -1.3861    17.3852   133.0847 </r>
       <r>    -1.2719    19.2093   136.0930 </r>
       <r>    -1.1578    14.6526   139.1978 </r>
       <r>    -1.0436    18.3146   141.9658 </r>
       <r>    -0.9294     5.0446   143.0509 </r>
       <r>    -0.8153     7.6539   143.9988 </r>
       <r>    -0.7011     0.0000   144.0000 </r>
       <r>    -0.5869     0.0000   144.0000 </r>
       <r>    -0.4728     0.0000   144.0000 </r>
       <r>    -0.3586     0.0000   144.0000 </r>
       <r>    -0.2445     0.0000   144.0000 </r>
       <r>    -0.1303     0.0000   144.0000 </r>
       <r>    -0.0161     0.0000   144.0000 </r>
       <r>     0.0980    11.9351   145.3625 </r>
       <r>     0.2122     2.2148   145.7028 </r>
       <r>     0.3264     4.5262   146.3417 </r>
       <r>     0.4405    12.2409   148.6475 </r>
       <r>     0.5547    13.7505   150.6948 </r>
       <r>     0.6688    15.8376   153.0331 </r>
       <r>     0.7830    17.9994   155.9049 </r>
       <r>     0.8972    11.5138   157.9645 </r>
       <r>     1.0113    17.0844   160.6254 </r>
       <r>     1.1255    14.9046   163.1766 </r>
       <r>     1.2397    12.3704   165.0122 </r>
       <r>     1.3538    15.4805   167.5423 </r>
       <r>     1.4680    19.1137   170.1821 </r>
       <r>     1.5821    19.6696   173.2705 </r>
       <r>     1.6963     9.0672   175.0601 </r>
       <r>     1.8105     4.9601   175.8913 </r>
       <r>     1.9246     0.2190   176.0000 </r>
       <r>     2.0388     0.0000   176.0000 </r>
       <r>     2.1530     0.0000   176.0000 </r>
       <r>     2.2671     0.0000   176.0000 </r>
       <r>     2.3813     0.0000   176.0000 </r>
       <r>     2.4954     0.0000   176.0000 </r>
       <r>     2.6096     0.0000   176.0000 </r>
       <r>     2.7238     0.0000   176.0000 </r>
       <r>     2.8379     0.0000   176.0000 </r>
       <r>     2.9521     0.0000   176.0000 </r>
       <r>     3.0663     0.0000   176.0000 </r>
       <r>     3.1804     0.0000   176.0000 </r>
       <r>     3.2946     0.0000   176.0000 </r>
       <r>     3.4087     0.0000   176.0000 </r>
      </set>
     </set>
    </array>
   </total>
  </dos>
 </calculation>
 <structure name="finalpos" >
  <crystal>
   <varray name="basis" >
    <v>      24.00946808       0.00000000       0.00000000 </v>
    <v>       0.00000000       6.54036194       0.00000000 </v>
    <v>       0.00000000       0.00000000      11.24840583 </v>
   </varray>
   <i name="volume">   1766.34404299 </i>
   <varray name="rec_basis" >
    <v>       0.04165024       0.00000000       0.00000000 </v>
    <v>       0.00000000       0.15289674       0.00000000 </v>
    <v>       0.00000000       0.00000000       0.08890149 </v>
   </varray>
  </crystal>
  <varray name="positions" >
   <v>       0.01027447       0.26886387       0.71532901 </v>
   <v>       0.36497200       0.76744725       0.31611878 </v>
   <v>       0.17726435       0.76829560       0.20933671 </v>
   <v>       0.19798212       0.26801551       0.82211105 </v>
   <v>       0.08647491       0.76869176       0.93045028 </v>
   <v>       0.28877156       0.26761936       0.10099748 </v>
   <v>       0.13042964       0.26840416       0.40964849 </v>
   <v>       0.24481683       0.76790696       0.62179934 </v>
   <v>       0.06358407       0.08479145       0.16586303 </v>
   <v>       0.31166240       0.95151964       0.86558473 </v>
   <v>       0.11548180       0.95204790       0.65689244 </v>
   <v>       0.25976467       0.08426319       0.37455534 </v>
   <v>       0.31159608       0.58416415       0.86546113 </v>
   <v>       0.06365038       0.45214695       0.16598663 </v>
   <v>       0.25972208       0.45068934       0.37429497 </v>
   <v>       0.11552438       0.58562176       0.65715282 </v>
   <v>       0.02815493       0.76884495       0.63059690 </v>
   <v>       0.34709153       0.26746616       0.40085088 </v>
   <v>       0.14737799       0.26853035       0.09734576 </v>
   <v>       0.22786848       0.76778077       0.93410201 </v>
   <v>       0.06321363       0.26870167       0.97976296 </v>
   <v>       0.31203283       0.76760945       0.05168484 </v>
   <v>       0.09739594       0.76831826       0.47351325 </v>
   <v>       0.27785053       0.26799285       0.55793446 </v>
  </varray>
 </structure>
</modeling>
