<?xml version="1.0" encoding="ISO-8859-1"?>
<modeling>
 <generator>
  <i name="program" type="string">vasp </i>
  <i name="version" type="string">5.4.4.18Apr17-6-g9f103f2a35  </i>
  <i name="subversion" type="string">(build Nov 21 2017 15:30:27) complex            parallel </i>
  <i name="platform" type="string">LinuxIFC </i>
  <i name="date" type="string">2021 02 08 </i>
  <i name="time" type="string">15:49:57 </i>
 </generator>
 <incar>
  <i type="string" name="PREC">normal</i>
  <i type="int" name="ICHARG">    11</i>
  <i type="int" name="NELM">   100</i>
  <i name="EDIFF">      0.00000100</i>
  <i name="EDIFFG">     -0.01000000</i>
  <i name="ENCUT">    500.00000000</i>
  <i name="POTIM">      0.30000000</i>
  <i type="string" name="LREAL"> Auto       ! Projection in reciprocal s</i>
  <i type="int" name="ISMEAR">     0</i>
  <i name="SIGMA">      0.01000000</i>
  <i type="logical" name="LWAVE"> T  </i>
  <i type="logical" name="LCHARG"> T  </i>
  <i type="logical" name="LASPH"> T  </i>
  <v type="int" name="KPOINT_BSE">    -1     0     0     0</v>
  <i type="int" name="NELM">   100</i>
  <i type="string" name="GGA"> MK</i>
  <i name="PARAM1">      0.12340000</i>
  <i name="PARAM2">      0.71135700</i>
  <i type="logical" name="LUSE_VDW"> T  </i>
  <i name="Zab_VDW">     -1.88670000</i>
  <i name="AGGAC">      0.00000000</i>
  <i type="logical" name="LASPH"> T  </i>
 </incar>
 <structure name="primitive_cell" >
  <crystal>
   <varray name="basis" >
    <v>       8.51475043       0.00000000       0.00000000 </v>
    <v>       0.00000000       6.12912108       0.00000000 </v>
    <v>       0.00000000       0.00000000      11.50007007 </v>
   </varray>
   <i name="volume">    600.16492558 </i>
   <varray name="rec_basis" >
    <v>       0.11744325       0.00000000       0.00000000 </v>
    <v>       0.00000000       0.16315553       0.00000000 </v>
    <v>       0.00000000       0.00000000       0.08695599 </v>
   </varray>
  </crystal>
  <varray name="positions" >
   <v>      -0.03087131       0.25000000      -0.34255315 </v>
   <v>      -0.13448920       0.25000000       0.43186777 </v>
   <v>      -0.29019561       0.25000000       0.48235905 </v>
   <v>      -0.21788408      -0.44092700      -0.16005663 </v>
   <v>      -0.21788408      -0.05907300      -0.16005663 </v>
   <v>       0.28211592      -0.44092700      -0.33994337 </v>
   <v>       0.28211592      -0.05907300      -0.33994337 </v>
   <v>       0.13448918      -0.24999998      -0.43186777 </v>
   <v>      -0.37220858      -0.24999998      -0.42670153 </v>
   <v>       0.37220858       0.25000000       0.42670157 </v>
   <v>      -0.28211592       0.44092700       0.33994337 </v>
   <v>      -0.28211592       0.05907299       0.33994337 </v>
   <v>       0.29019561      -0.24999998      -0.48235913 </v>
   <v>       0.12779142      -0.24999998      -0.07329851 </v>
   <v>       0.20980438       0.25000000       0.01764095 </v>
   <v>       0.46912869       0.25000000      -0.15744681 </v>
   <v>       0.03087131      -0.24999998       0.34255315 </v>
   <v>      -0.12779142       0.25000000       0.07329849 </v>
   <v>      -0.20980439      -0.24999998      -0.01764094 </v>
   <v>      -0.36551080      -0.24999998      -0.06813219 </v>
   <v>       0.36551082       0.25000000       0.06813217 </v>
   <v>       0.21788408       0.44092700       0.16005661 </v>
   <v>       0.21788408       0.05907299       0.16005661 </v>
   <v>      -0.46912869      -0.24999998       0.15744679 </v>
  </varray>
 </structure>
 <varray name="primitive_index" >
  <v type="int" >        1 </v>
  <v type="int" >       18 </v>
  <v type="int" >       24 </v>
  <v type="int" >       13 </v>
  <v type="int" >       10 </v>
  <v type="int" >       16 </v>
  <v type="int" >       11 </v>
  <v type="int" >       17 </v>
  <v type="int" >        8 </v>
  <v type="int" >        7 </v>
  <v type="int" >       15 </v>
  <v type="int" >       12 </v>
  <v type="int" >       23 </v>
  <v type="int" >        5 </v>
  <v type="int" >       21 </v>
  <v type="int" >        4 </v>
  <v type="int" >        2 </v>
  <v type="int" >        6 </v>
  <v type="int" >       22 </v>
  <v type="int" >       20 </v>
  <v type="int" >       19 </v>
  <v type="int" >       14 </v>
  <v type="int" >        9 </v>
  <v type="int" >        3 </v>
 </varray>
 <kpoints>
  <generation param="listgenerated">
   <i name="divisions" type="int">      20 </i>
   <v>       0.00000000       0.00000000       0.00000000 </v>
   <v>       0.00000000       0.50000000       0.00000000 </v>
   <v>       0.00000000       0.50000000       0.50000000 </v>
   <v>       0.00000000       0.00000000       0.50000000 </v>
   <v>       0.00000000       0.00000000       0.00000000 </v>
   <v>       0.50000000       0.00000000       0.00000000 </v>
  </generation>
  <varray name="kpointlist" >
   <v>       0.00000000       0.00000000       0.00000000 </v>
   <v>       0.00000000       0.02631579       0.00000000 </v>
   <v>       0.00000000       0.05263158       0.00000000 </v>
   <v>       0.00000000       0.07894737       0.00000000 </v>
   <v>       0.00000000       0.10526316       0.00000000 </v>
   <v>       0.00000000       0.13157895       0.00000000 </v>
   <v>       0.00000000       0.15789474       0.00000000 </v>
   <v>       0.00000000       0.18421053       0.00000000 </v>
   <v>       0.00000000       0.21052632       0.00000000 </v>
   <v>       0.00000000       0.23684211       0.00000000 </v>
   <v>       0.00000000       0.26315789       0.00000000 </v>
   <v>       0.00000000       0.28947368       0.00000000 </v>
   <v>       0.00000000       0.31578947       0.00000000 </v>
   <v>       0.00000000       0.34210526       0.00000000 </v>
   <v>       0.00000000       0.36842105       0.00000000 </v>
   <v>       0.00000000       0.39473684       0.00000000 </v>
   <v>       0.00000000       0.42105263       0.00000000 </v>
   <v>       0.00000000       0.44736842       0.00000000 </v>
   <v>       0.00000000       0.47368421       0.00000000 </v>
   <v>       0.00000000       0.50000000       0.00000000 </v>
   <v>       0.00000000       0.50000000       0.00000000 </v>
   <v>       0.00000000       0.50000000       0.02631579 </v>
   <v>       0.00000000       0.50000000       0.05263158 </v>
   <v>       0.00000000       0.50000000       0.07894737 </v>
   <v>       0.00000000       0.50000000       0.10526316 </v>
   <v>       0.00000000       0.50000000       0.13157895 </v>
   <v>       0.00000000       0.50000000       0.15789474 </v>
   <v>       0.00000000       0.50000000       0.18421053 </v>
   <v>       0.00000000       0.50000000       0.21052632 </v>
   <v>       0.00000000       0.50000000       0.23684211 </v>
   <v>       0.00000000       0.50000000       0.26315789 </v>
   <v>       0.00000000       0.50000000       0.28947368 </v>
   <v>       0.00000000       0.50000000       0.31578947 </v>
   <v>       0.00000000       0.50000000       0.34210526 </v>
   <v>       0.00000000       0.50000000       0.36842105 </v>
   <v>       0.00000000       0.50000000       0.39473684 </v>
   <v>       0.00000000       0.50000000       0.42105263 </v>
   <v>       0.00000000       0.50000000       0.44736842 </v>
   <v>       0.00000000       0.50000000       0.47368421 </v>
   <v>       0.00000000       0.50000000       0.50000000 </v>
   <v>       0.00000000       0.50000000       0.50000000 </v>
   <v>       0.00000000       0.47368421       0.50000000 </v>
   <v>       0.00000000       0.44736842       0.50000000 </v>
   <v>       0.00000000       0.42105263       0.50000000 </v>
   <v>       0.00000000       0.39473684       0.50000000 </v>
   <v>       0.00000000       0.36842105       0.50000000 </v>
   <v>       0.00000000       0.34210526       0.50000000 </v>
   <v>       0.00000000       0.31578947       0.50000000 </v>
   <v>       0.00000000       0.28947368       0.50000000 </v>
   <v>       0.00000000       0.26315789       0.50000000 </v>
   <v>       0.00000000       0.23684211       0.50000000 </v>
   <v>       0.00000000       0.21052632       0.50000000 </v>
   <v>       0.00000000       0.18421053       0.50000000 </v>
   <v>       0.00000000       0.15789474       0.50000000 </v>
   <v>       0.00000000       0.13157895       0.50000000 </v>
   <v>       0.00000000       0.10526316       0.50000000 </v>
   <v>       0.00000000       0.07894737       0.50000000 </v>
   <v>       0.00000000       0.05263158       0.50000000 </v>
   <v>       0.00000000       0.02631579       0.50000000 </v>
   <v>       0.00000000       0.00000000       0.50000000 </v>
   <v>       0.00000000       0.00000000       0.50000000 </v>
   <v>       0.00000000       0.00000000       0.47368421 </v>
   <v>       0.00000000       0.00000000       0.44736842 </v>
   <v>       0.00000000       0.00000000       0.42105263 </v>
   <v>       0.00000000       0.00000000       0.39473684 </v>
   <v>       0.00000000       0.00000000       0.36842105 </v>
   <v>       0.00000000       0.00000000       0.34210526 </v>
   <v>       0.00000000       0.00000000       0.31578947 </v>
   <v>       0.00000000       0.00000000       0.28947368 </v>
   <v>       0.00000000       0.00000000       0.26315789 </v>
   <v>       0.00000000       0.00000000       0.23684211 </v>
   <v>       0.00000000       0.00000000       0.21052632 </v>
   <v>       0.00000000       0.00000000       0.18421053 </v>
   <v>       0.00000000       0.00000000       0.15789474 </v>
   <v>       0.00000000       0.00000000       0.13157895 </v>
   <v>       0.00000000       0.00000000       0.10526316 </v>
   <v>       0.00000000       0.00000000       0.07894737 </v>
   <v>       0.00000000       0.00000000       0.05263158 </v>
   <v>       0.00000000       0.00000000       0.02631579 </v>
   <v>       0.00000000       0.00000000       0.00000000 </v>
   <v>       0.00000000       0.00000000       0.00000000 </v>
   <v>       0.02631579       0.00000000       0.00000000 </v>
   <v>       0.05263158       0.00000000       0.00000000 </v>
   <v>       0.07894737       0.00000000       0.00000000 </v>
   <v>       0.10526316       0.00000000       0.00000000 </v>
   <v>       0.13157895       0.00000000       0.00000000 </v>
   <v>       0.15789474       0.00000000       0.00000000 </v>
   <v>       0.18421053       0.00000000       0.00000000 </v>
   <v>       0.21052632       0.00000000       0.00000000 </v>
   <v>       0.23684211       0.00000000       0.00000000 </v>
   <v>       0.26315789       0.00000000       0.00000000 </v>
   <v>       0.28947368       0.00000000       0.00000000 </v>
   <v>       0.31578947       0.00000000       0.00000000 </v>
   <v>       0.34210526       0.00000000       0.00000000 </v>
   <v>       0.36842105       0.00000000       0.00000000 </v>
   <v>       0.39473684       0.00000000       0.00000000 </v>
   <v>       0.42105263       0.00000000       0.00000000 </v>
   <v>       0.44736842       0.00000000       0.00000000 </v>
   <v>       0.47368421       0.00000000       0.00000000 </v>
   <v>       0.50000000       0.00000000       0.00000000 </v>
  </varray>
  <varray name="weights" >
   <v>       0.01000000 </v>
   <v>       0.01000000 </v>
   <v>       0.01000000 </v>
   <v>       0.01000000 </v>
   <v>       0.01000000 </v>
   <v>       0.01000000 </v>
   <v>       0.01000000 </v>
   <v>       0.01000000 </v>
   <v>       0.01000000 </v>
   <v>       0.01000000 </v>
   <v>       0.01000000 </v>
   <v>       0.01000000 </v>
   <v>       0.01000000 </v>
   <v>       0.01000000 </v>
   <v>       0.01000000 </v>
   <v>       0.01000000 </v>
   <v>       0.01000000 </v>
   <v>       0.01000000 </v>
   <v>       0.01000000 </v>
   <v>       0.01000000 </v>
   <v>       0.01000000 </v>
   <v>       0.01000000 </v>
   <v>       0.01000000 </v>
   <v>       0.01000000 </v>
   <v>       0.01000000 </v>
   <v>       0.01000000 </v>
   <v>       0.01000000 </v>
   <v>       0.01000000 </v>
   <v>       0.01000000 </v>
   <v>       0.01000000 </v>
   <v>       0.01000000 </v>
   <v>       0.01000000 </v>
   <v>       0.01000000 </v>
   <v>       0.01000000 </v>
   <v>       0.01000000 </v>
   <v>       0.01000000 </v>
   <v>       0.01000000 </v>
   <v>       0.01000000 </v>
   <v>       0.01000000 </v>
   <v>       0.01000000 </v>
   <v>       0.01000000 </v>
   <v>       0.01000000 </v>
   <v>       0.01000000 </v>
   <v>       0.01000000 </v>
   <v>       0.01000000 </v>
   <v>       0.01000000 </v>
   <v>       0.01000000 </v>
   <v>       0.01000000 </v>
   <v>       0.01000000 </v>
   <v>       0.01000000 </v>
   <v>       0.01000000 </v>
   <v>       0.01000000 </v>
   <v>       0.01000000 </v>
   <v>       0.01000000 </v>
   <v>       0.01000000 </v>
   <v>       0.01000000 </v>
   <v>       0.01000000 </v>
   <v>       0.01000000 </v>
   <v>       0.01000000 </v>
   <v>       0.01000000 </v>
   <v>       0.01000000 </v>
   <v>       0.01000000 </v>
   <v>       0.01000000 </v>
   <v>       0.01000000 </v>
   <v>       0.01000000 </v>
   <v>       0.01000000 </v>
   <v>       0.01000000 </v>
   <v>       0.01000000 </v>
   <v>       0.01000000 </v>
   <v>       0.01000000 </v>
   <v>       0.01000000 </v>
   <v>       0.01000000 </v>
   <v>       0.01000000 </v>
   <v>       0.01000000 </v>
   <v>       0.01000000 </v>
   <v>       0.01000000 </v>
   <v>       0.01000000 </v>
   <v>       0.01000000 </v>
   <v>       0.01000000 </v>
   <v>       0.01000000 </v>
   <v>       0.01000000 </v>
   <v>       0.01000000 </v>
   <v>       0.01000000 </v>
   <v>       0.01000000 </v>
   <v>       0.01000000 </v>
   <v>       0.01000000 </v>
   <v>       0.01000000 </v>
   <v>       0.01000000 </v>
   <v>       0.01000000 </v>
   <v>       0.01000000 </v>
   <v>       0.01000000 </v>
   <v>       0.01000000 </v>
   <v>       0.01000000 </v>
   <v>       0.01000000 </v>
   <v>       0.01000000 </v>
   <v>       0.01000000 </v>
   <v>       0.01000000 </v>
   <v>       0.01000000 </v>
   <v>       0.01000000 </v>
   <v>       0.01000000 </v>
  </varray>
 </kpoints>
 <parameters>
  <separator name="general" >
   <i type="string" name="SYSTEM">unknown system</i>
   <i type="logical" name="LCOMPAT"> F  </i>
  </separator>
  <separator name="electronic" >
   <i type="string" name="PREC">normal</i>
   <i name="ENMAX">    500.00000000</i>
   <i name="ENAUG">    644.87300000</i>
   <i name="EDIFF">      0.00000100</i>
   <i type="int" name="IALGO">    38</i>
   <i type="int" name="IWAVPR">    10</i>
   <i type="int" name="NBANDS">    88</i>
   <i name="NELECT">    144.00000000</i>
   <i type="int" name="TURBO">     0</i>
   <i type="int" name="IRESTART">     0</i>
   <i type="int" name="NREBOOT">     0</i>
   <i type="int" name="NMIN">     0</i>
   <i name="EREF">      0.00000000</i>
   <separator name="electronic smearing" >
    <i type="int" name="ISMEAR">     0</i>
    <i name="SIGMA">      0.01000000</i>
    <i name="KSPACING">      0.50000000</i>
    <i type="logical" name="KGAMMA"> T  </i>
   </separator>
   <separator name="electronic projectors" >
    <i type="logical" name="LREAL"> T  </i>
    <v name="ROPT">     -0.00050000     -0.00050000     -0.00050000</v>
    <i type="int" name="LMAXPAW">  -100</i>
    <i type="int" name="LMAXMIX">     2</i>
    <i type="logical" name="NLSPLINE"> F  </i>
   </separator>
   <separator name="electronic startup" >
    <i type="int" name="ISTART">     0</i>
    <i type="int" name="ICHARG">    11</i>
    <i type="int" name="INIWAV">     1</i>
   </separator>
   <separator name="electronic spin" >
    <i type="int" name="ISPIN">     1</i>
    <i type="logical" name="LNONCOLLINEAR"> F  </i>
    <v name="MAGMOM">      1.00000000      1.00000000      1.00000000      1.00000000      1.00000000      1.00000000      1.00000000      1.00000000      1.00000000      1.00000000      1.00000000      1.00000000      1.00000000      1.00000000      1.00000000      1.00000000      1.00000000      1.00000000      1.00000000      1.00000000
      1.00000000      1.00000000      1.00000000      1.00000000</v>
    <i name="NUPDOWN">     -1.00000000</i>
    <i type="logical" name="LSORBIT"> F  </i>
    <v name="SAXIS">      0.00000000      0.00000000      1.00000000</v>
    <i type="logical" name="LSPIRAL"> F  </i>
    <v name="QSPIRAL">      0.00000000      0.00000000      0.00000000</v>
    <i type="logical" name="LZEROZ"> F  </i>
   </separator>
   <separator name="electronic exchange-correlation" >
    <i type="logical" name="LASPH"> T  </i>
    <i type="logical" name="LMETAGGA"> F  </i>
   </separator>
   <separator name="electronic convergence" >
    <i type="int" name="NELM">   100</i>
    <i type="int" name="NELMDL">    -5</i>
    <i type="int" name="NELMIN">     2</i>
    <i name="ENINI">    500.00000000</i>
    <separator name="electronic convergence detail" >
     <i type="logical" name="LDIAG"> T  </i>
     <i type="logical" name="LSUBROT"> F  </i>
     <i name="WEIMIN">      0.00000000</i>
     <i name="EBREAK">      0.00000000</i>
     <i name="DEPER">      0.30000000</i>
     <i type="int" name="NRMM">     4</i>
     <i name="TIME">      0.40000000</i>
    </separator>
   </separator>
   <separator name="electronic mixer" >
    <i name="AMIX">      0.40000000</i>
    <i name="BMIX">      1.00000000</i>
    <i name="AMIN">      0.10000000</i>
    <i name="AMIX_MAG">      1.60000000</i>
    <i name="BMIX_MAG">      1.00000000</i>
    <separator name="electronic mixer details" >
     <i type="int" name="IMIX">     4</i>
     <i type="logical" name="MIXFIRST"> F  </i>
     <i type="int" name="MAXMIX">   -45</i>
     <i name="WC">    100.00000000</i>
     <i type="int" name="INIMIX">     1</i>
     <i type="int" name="MIXPRE">     1</i>
     <i type="int" name="MREMOVE">     5</i>
    </separator>
   </separator>
   <separator name="electronic dipolcorrection" >
    <i type="logical" name="LDIPOL"> F  </i>
    <i type="logical" name="LMONO"> F  </i>
    <i type="int" name="IDIPOL">     0</i>
    <i name="EPSILON">      1.00000000</i>
    <v name="DIPOL">   -100.00000000   -100.00000000   -100.00000000</v>
    <i name="EFIELD">      0.00000000</i>
   </separator>
  </separator>
  <separator name="grids" >
   <i type="int" name="NGX">    48</i>
   <i type="int" name="NGY">    36</i>
   <i type="int" name="NGZ">    64</i>
   <i type="int" name="NGXF">    96</i>
   <i type="int" name="NGYF">    72</i>
   <i type="int" name="NGZF">   128</i>
   <i type="logical" name="ADDGRID"> F  </i>
  </separator>
  <separator name="ionic" >
   <i type="int" name="NSW">     0</i>
   <i type="int" name="IBRION">    -1</i>
   <i type="int" name="MDALGO">     0</i>
   <i type="int" name="ISIF">     2</i>
   <i name="PSTRESS">      0.00000000</i>
   <i name="EDIFFG">     -0.01000000</i>
   <i type="int" name="NFREE">     0</i>
   <i name="POTIM">      0.30000000</i>
   <i name="SMASS">     -3.00000000</i>
   <i name="SCALEE">      1.00000000</i>
  </separator>
  <separator name="ionic md" >
   <i name="TEBEG">      0.00010000</i>
   <i name="TEEND">      0.00010000</i>
   <i type="int" name="NBLOCK">     1</i>
   <i type="int" name="KBLOCK">     1</i>
   <i type="int" name="NPACO">   256</i>
   <i name="APACO">     16.00000000</i>
  </separator>
  <separator name="symmetry" >
   <i type="int" name="ISYM">     2</i>
   <i name="SYMPREC">      0.00001000</i>
  </separator>
  <separator name="dos" >
   <i type="int" name="LORBIT">     0</i>
   <v name="RWIGS">     -1.00000000     -1.00000000     -1.00000000</v>
   <i type="int" name="NEDOS">   301</i>
   <i name="EMIN">     10.00000000</i>
   <i name="EMAX">    -10.00000000</i>
   <i name="EFERMI">      0.00000000</i>
  </separator>
  <separator name="writing" >
   <i type="int" name="NWRITE">     2</i>
   <i type="logical" name="LWAVE"> T  </i>
   <i type="logical" name="LDOWNSAMPLE"> F  </i>
   <i type="logical" name="LCHARG"> T  </i>
   <i type="logical" name="LPARD"> F  </i>
   <i type="logical" name="LVTOT"> F  </i>
   <i type="logical" name="LVHAR"> F  </i>
   <i type="logical" name="LELF"> F  </i>
   <i type="logical" name="LOPTICS"> F  </i>
   <v name="STM">      0.00000000      0.00000000      0.00000000      0.00000000      0.00000000      0.00000000      0.00000000</v>
  </separator>
  <separator name="performance" >
   <i type="int" name="NPAR">     8</i>
   <i type="int" name="NSIM">     4</i>
   <i type="int" name="NBLK">    -1</i>
   <i type="logical" name="LPLANE"> T  </i>
   <i type="logical" name="LSCALAPACK"> T  </i>
   <i type="logical" name="LSCAAWARE"> F  </i>
   <i type="logical" name="LSCALU"> F  </i>
   <i type="logical" name="LASYNC"> F  </i>
   <i type="logical" name="LORBITALREAL"> F  </i>
  </separator>
  <separator name="miscellaneous" >
   <i type="int" name="IDIOT">     3</i>
   <i type="int" name="ISPECIAL">     0</i>
   <i type="logical" name="LMUSIC"> F  </i>
   <v name="POMASS">    137.32700000     28.08500000     12.01100000</v>
   <v name="DARWINR">      0.00000000      0.00000000      0.00000000</v>
   <v name="DARWINV">      1.00000000      1.00000000      1.00000000</v>
   <i type="logical" name="LCORR"> T  </i>
  </separator>
  <i type="logical" name="GGA_COMPAT"> T  </i>
  <i type="logical" name="LBERRY"> F  </i>
  <i type="int" name="ICORELEVEL">     0</i>
  <i type="logical" name="LDAU"> F  </i>
  <i type="int" name="I_CONSTRAINED_M">     0</i>
  <separator name="electronic exchange-correlation" >
   <i type="string" name="GGA">MK</i>
   <i type="int" name="VOSKOWN">     0</i>
   <i type="logical" name="LHFCALC"> F  </i>
   <i type="string" name="PRECFOCK"></i>
   <i type="logical" name="LSYMGRAD"> F  </i>
   <i type="logical" name="LHFONE"> F  </i>
   <i type="logical" name="LRHFCALC"> F  </i>
   <i type="logical" name="LTHOMAS"> F  </i>
   <i type="logical" name="LMODELHF"> F  </i>
   <i name="ENCUT4O">     -1.00000000</i>
   <i type="int" name="EXXOEP">     0</i>
   <i type="int" name="FOURORBIT">     0</i>
   <i name="AEXX">      0.00000000</i>
   <i name="HFALPHA">      0.00000000</i>
   <i name="MCALPHA">      0.00000000</i>
   <i name="ALDAX">      1.00000000</i>
   <i name="AGGAX">      1.00000000</i>
   <i name="ALDAC">      1.00000000</i>
   <i name="AGGAC">      0.00000000</i>
   <i type="int" name="NKREDX">     1</i>
   <i type="int" name="NKREDY">     1</i>
   <i type="int" name="NKREDZ">     1</i>
   <i type="logical" name="SHIFTRED"> F  </i>
   <i type="logical" name="ODDONLY"> F  </i>
   <i type="logical" name="EVENONLY"> F  </i>
   <i type="int" name="LMAXFOCK">     0</i>
   <i type="int" name="NMAXFOCKAE">     0</i>
   <i type="logical" name="LFOCKAEDFT"> F  </i>
   <i name="HFSCREEN">      0.00000000</i>
   <i name="HFSCREENC">      0.00000000</i>
   <i type="int" name="NBANDSGWLOW">     0</i>
  </separator>
  <separator name="vdW DFT" >
   <i type="logical" name="LUSE_VDW"> T  </i>
   <i name="Zab_VDW">     -1.88670000</i>
   <i name="PARAM1">      0.12340000</i>
   <i name="PARAM2">      0.71135700</i>
   <i name="PARAM3">      0.00000000</i>
  </separator>
  <separator name="model GW" >
   <i type="int" name="MODEL_GW">     0</i>
   <i name="MODEL_EPS0">     15.00412314</i>
   <i name="MODEL_ALPHA">      1.00000000</i>
  </separator>
  <separator name="linear response parameters" >
   <i type="logical" name="LEPSILON"> F  </i>
   <i type="logical" name="LRPA"> F  </i>
   <i type="logical" name="LNABLA"> F  </i>
   <i type="logical" name="LVEL"> F  </i>
   <i type="int" name="KINTER">     0</i>
   <i name="CSHIFT">      0.10000000</i>
   <i name="OMEGAMAX">     -1.00000000</i>
   <i name="DEG_THRESHOLD">      0.00200000</i>
   <i name="RTIME">     -0.10000000</i>
   <i name="WPLASMAI">      0.00000000</i>
   <v name="DFIELD">      0.00000000      0.00000000      0.00000000</v>
   <v name="WPLASMA">      0.00000000      0.00000000      0.00000000      0.00000000      0.00000000      0.00000000      0.00000000      0.00000000      0.00000000</v>
  </separator>
  <separator name="orbital magnetization" >
   <i type="logical" name="NUCIND"> F  </i>
   <v name="MAGPOS">      0.00000000      0.00000000      0.00000000</v>
   <i type="logical" name="LNICSALL"> T  </i>
   <i type="logical" name="ORBITALMAG"> F  </i>
   <i type="logical" name="LMAGBLOCH"> F  </i>
   <i type="logical" name="LCHIMAG"> F  </i>
   <i type="logical" name="LGAUGE"> T  </i>
   <i type="int" name="MAGATOM">     0</i>
   <v name="MAGDIPOL">      0.00000000      0.00000000      0.00000000</v>
   <v name="AVECCONST">      0.00000000      0.00000000      0.00000000</v>
  </separator>
  <separator name="response functions" >
   <i type="logical" name="LADDER"> F  </i>
   <i type="logical" name="LRPAFORCE"> F  </i>
   <i type="logical" name="LFXC"> F  </i>
   <i type="logical" name="LHARTREE"> T  </i>
   <i type="int" name="IBSE">     0</i>
   <v type="int" name="KPOINT">    -1     0     0     0</v>
   <i type="logical" name="LTCTE"> F  </i>
   <i type="logical" name="LTETE"> F  </i>
   <i type="logical" name="LTRIPLET"> F  </i>
   <i type="logical" name="LFXCEPS"> F  </i>
   <i type="logical" name="LFXHEG"> F  </i>
   <i type="int" name="NATURALO">     2</i>
   <i type="logical" name="L2ORDER"> F  </i>
   <i type="logical" name="LMP2LT"> F  </i>
   <i type="logical" name="LUSEW"> F  </i>
   <i name="ENCUTGW">     -2.00000000</i>
   <i name="ENCUTGWSOFT">     -2.00000000</i>
   <i name="ENCUTLF">     -1.00000000</i>
   <i type="int" name="LMAXMP2">    -1</i>
   <i name="SCISSOR">      0.00000000</i>
   <i type="int" name="NOMEGA">     0</i>
   <i type="int" name="NOMEGAR">     0</i>
   <i type="int" name="NBANDSGW">    -1</i>
   <i type="int" name="NBANDSO">    -1</i>
   <i type="int" name="NBANDSV">    -1</i>
   <i type="int" name="NELM">   100</i>
   <i type="int" name="NELMHF">     1</i>
   <i type="int" name="DIM">     3</i>
   <i type="int" name="ANTIRES">     0</i>
   <i name="OMEGAMAX">    -30.00000000</i>
   <i name="OMEGAMIN">    -30.00000000</i>
   <i name="OMEGATL">   -200.00000000</i>
   <i type="int" name="OMEGAGRID">   140</i>
   <i name="CSHIFT">     -0.10000000</i>
   <i type="logical" name="SELFENERGY"> F  </i>
   <i type="logical" name="LSPECTRAL"> F  </i>
   <i type="logical" name="LSPECTRALGW"> F  </i>
   <i type="logical" name="LSINGLES"> F  </i>
   <i type="logical" name="LFERMIGW"> F  </i>
   <i type="logical" name="ODDONLYGW"> F  </i>
   <i type="logical" name="EVENONLYGW"> F  </i>
   <i type="int" name="NKREDLFX">     1</i>
   <i type="int" name="NKREDLFY">     1</i>
   <i type="int" name="NKREDLFZ">     1</i>
   <i type="int" name="MAXMEM">  2800</i>
   <i type="int" name="TELESCOPE">     0</i>
   <i type="int" name="TAUPAR">     1</i>
   <i type="int" name="OMEGAPAR">    -1</i>
   <i name="LAMBDA">      1.00000000</i>
  </separator>
  <separator name="External order field" >
   <i name="OFIELD_KAPPA">      0.00000000</i>
   <v name="OFIELD_K">      0.00000000      0.00000000      0.00000000</v>
   <i name="OFIELD_Q6_NEAR">      0.00000000</i>
   <i name="OFIELD_Q6_FAR">      0.00000000</i>
   <i name="OFIELD_A">      0.00000000</i>
  </separator>
 </parameters>
 <atominfo>
  <atoms>      24 </atoms>
  <types>       3 </types>
  <array name="atoms" >
   <dimension dim="1">ion</dimension>
   <field type="string">element</field>
   <field type="int">atomtype</field>
   <set>
    <rc><c>Ba</c><c>   1</c></rc>
    <rc><c>Ba</c><c>   1</c></rc>
    <rc><c>Ba</c><c>   1</c></rc>
    <rc><c>Ba</c><c>   1</c></rc>
    <rc><c>Ba</c><c>   1</c></rc>
    <rc><c>Ba</c><c>   1</c></rc>
    <rc><c>Ba</c><c>   1</c></rc>
    <rc><c>Ba</c><c>   1</c></rc>
    <rc><c>Si</c><c>   2</c></rc>
    <rc><c>Si</c><c>   2</c></rc>
    <rc><c>Si</c><c>   2</c></rc>
    <rc><c>Si</c><c>   2</c></rc>
    <rc><c>Si</c><c>   2</c></rc>
    <rc><c>Si</c><c>   2</c></rc>
    <rc><c>Si</c><c>   2</c></rc>
    <rc><c>Si</c><c>   2</c></rc>
    <rc><c>C </c><c>   3</c></rc>
    <rc><c>C </c><c>   3</c></rc>
    <rc><c>C </c><c>   3</c></rc>
    <rc><c>C </c><c>   3</c></rc>
    <rc><c>C </c><c>   3</c></rc>
    <rc><c>C </c><c>   3</c></rc>
    <rc><c>C </c><c>   3</c></rc>
    <rc><c>C </c><c>   3</c></rc>
   </set>
  </array>
  <array name="atomtypes" >
   <dimension dim="1">type</dimension>
   <field type="int">atomspertype</field>
   <field type="string">element</field>
   <field>mass</field>
   <field>valence</field>
   <field type="string">pseudopotential</field>
   <set>
    <rc><c>   8</c><c>Ba</c><c>    137.32700000</c><c>     10.00000000</c><c> PAW_PBE Ba_sv 06Sep2000                </c></rc>
    <rc><c>   8</c><c>Si</c><c>     28.08500000</c><c>      4.00000000</c><c> PAW_PBE Si 05Jan2001                   </c></rc>
    <rc><c>   8</c><c>C </c><c>     12.01100000</c><c>      4.00000000</c><c> PAW_PBE C 08Apr2002                    </c></rc>
   </set>
  </array>
 </atominfo>
 <structure name="initialpos" >
  <crystal>
   <varray name="basis" >
    <v>       8.51475043       0.00000000       0.00000000 </v>
    <v>       0.00000000       6.12912108       0.00000000 </v>
    <v>       0.00000000       0.00000000      11.50007007 </v>
   </varray>
   <i name="volume">    600.16492558 </i>
   <varray name="rec_basis" >
    <v>       0.11744325       0.00000000       0.00000000 </v>
    <v>       0.00000000       0.16315553       0.00000000 </v>
    <v>       0.00000000       0.00000000       0.08695599 </v>
   </varray>
  </crystal>
  <varray name="positions" >
   <v>       0.96912869       0.25000000       0.65744685 </v>
   <v>       0.03087131       0.75000002       0.34255315 </v>
   <v>       0.53087131       0.75000002       0.15744679 </v>
   <v>       0.46912869       0.25000000       0.84255319 </v>
   <v>       0.12779142       0.75000002       0.92670149 </v>
   <v>       0.87220858       0.25000000       0.07329849 </v>
   <v>       0.37220858       0.25000000       0.42670157 </v>
   <v>       0.62779142       0.75000002       0.57329847 </v>
   <v>       0.21788408       0.05907299       0.16005661 </v>
   <v>       0.78211592       0.94092700       0.83994337 </v>
   <v>       0.28211592       0.94092700       0.66005663 </v>
   <v>       0.71788408       0.05907299       0.33994337 </v>
   <v>       0.78211592       0.55907300       0.83994337 </v>
   <v>       0.21788408       0.44092700       0.16005661 </v>
   <v>       0.71788408       0.44092700       0.33994337 </v>
   <v>       0.28211592       0.55907300       0.66005663 </v>
   <v>       0.13448918       0.75000002       0.56813223 </v>
   <v>       0.86551080       0.25000000       0.43186777 </v>
   <v>       0.36551082       0.25000000       0.06813217 </v>
   <v>       0.63448920       0.75000002       0.93186781 </v>
   <v>       0.20980438       0.25000000       0.01764095 </v>
   <v>       0.79019561       0.75000002       0.98235906 </v>
   <v>       0.29019561       0.75000002       0.51764087 </v>
   <v>       0.70980439       0.25000000       0.48235905 </v>
  </varray>
 </structure>
 <calculation>
  <scstep>
   <time name="dav">    5.31    5.46</time>
   <time name="total">    6.57    6.82</time>
   <energy>
    <i name="alphaZ">    559.18466913 </i>
    <i name="ewald">  -6372.31693028 </i>
    <i name="hartreedc">  -1318.51392974 </i>
    <i name="XCdc">    236.98251814 </i>
    <i name="pawpsdc">   4036.22665371 </i>
    <i name="pawaedc">  -3896.00662703 </i>
    <i name="eentropy">     -0.00037784 </i>
    <i name="bandstr">     33.81759704 </i>
    <i name="atom">   7622.73554344 </i>
    <i name="e_fr_energy">    902.10911657 </i>
    <i name="e_wo_entrp">    902.10949441 </i>
    <i name="e_0_energy">    902.10930549 </i>
   </energy>
  </scstep>
  <scstep>
   <time name="dav">    6.51    6.53</time>
   <time name="total">    6.52    6.54</time>
   <energy>
    <i name="e_fr_energy">    -27.99421728 </i>
    <i name="e_wo_entrp">    -27.99406419 </i>
    <i name="e_0_energy">    -27.99414073 </i>
   </energy>
  </scstep>
  <scstep>
   <time name="dav">    6.07    6.09</time>
   <time name="total">    6.07    6.09</time>
   <energy>
    <i name="e_fr_energy">   -113.48958044 </i>
    <i name="e_wo_entrp">   -113.48958044 </i>
    <i name="e_0_energy">   -113.48958044 </i>
   </energy>
  </scstep>
  <scstep>
   <time name="dav">    6.92    6.94</time>
   <time name="total">    6.92    6.94</time>
   <energy>
    <i name="e_fr_energy">   -116.74824442 </i>
    <i name="e_wo_entrp">   -116.74824442 </i>
    <i name="e_0_energy">   -116.74824442 </i>
   </energy>
  </scstep>
  <scstep>
   <time name="dav">    6.41    6.42</time>
   <time name="total">    6.41    6.43</time>
   <energy>
    <i name="e_fr_energy">   -116.84345979 </i>
    <i name="e_wo_entrp">   -116.84345979 </i>
    <i name="e_0_energy">   -116.84345979 </i>
   </energy>
  </scstep>
  <scstep>
   <time name="dav">    7.01    7.03</time>
   <time name="total">    7.01    7.03</time>
   <energy>
    <i name="e_fr_energy">   -116.84526680 </i>
    <i name="e_wo_entrp">   -116.84526680 </i>
    <i name="e_0_energy">   -116.84526680 </i>
   </energy>
  </scstep>
  <scstep>
   <time name="dav">    6.58    6.59</time>
   <time name="total">    6.58    6.60</time>
   <energy>
    <i name="e_fr_energy">   -116.84534513 </i>
    <i name="e_wo_entrp">   -116.84534513 </i>
    <i name="e_0_energy">   -116.84534513 </i>
   </energy>
  </scstep>
  <scstep>
   <time name="dav">    5.84    5.85</time>
   <time name="total">    5.84    5.86</time>
   <energy>
    <i name="e_fr_energy">   -116.84534652 </i>
    <i name="e_wo_entrp">   -116.84534652 </i>
    <i name="e_0_energy">   -116.84534652 </i>
   </energy>
  </scstep>
  <scstep>
   <time name="dav">    4.48    4.49</time>
   <time name="total">    4.48    4.49</time>
   <energy>
    <i name="alphaZ">    559.18466913 </i>
    <i name="ewald">  -6372.31693028 </i>
    <i name="hartreedc">  -1318.51392974 </i>
    <i name="XCdc">    236.98251814 </i>
    <i name="pawpsdc">   4036.22665371 </i>
    <i name="pawaedc">  -3896.00662703 </i>
    <i name="eentropy">     -0.00000000 </i>
    <i name="bandstr">   -985.13724396 </i>
    <i name="atom">   7622.73554344 </i>
    <i name="e_fr_energy">   -116.84534659 </i>
    <i name="e_wo_entrp">   -116.84534659 </i>
    <i name="e_0_energy">   -116.84534659 </i>
   </energy>
  </scstep>
  <structure>
   <crystal>
    <varray name="basis" >
     <v>       8.51475043       0.00000000       0.00000000 </v>
     <v>       0.00000000       6.12912108       0.00000000 </v>
     <v>       0.00000000       0.00000000      11.50007007 </v>
    </varray>
    <i name="volume">    600.16492558 </i>
    <varray name="rec_basis" >
     <v>       0.11744325       0.00000000       0.00000000 </v>
     <v>       0.00000000       0.16315553       0.00000000 </v>
     <v>       0.00000000       0.00000000       0.08695599 </v>
    </varray>
   </crystal>
   <varray name="positions" >
    <v>       0.96912869       0.25000000       0.65744685 </v>
    <v>       0.03087131       0.75000002       0.34255315 </v>
    <v>       0.53087131       0.75000002       0.15744679 </v>
    <v>       0.46912869       0.25000000       0.84255319 </v>
    <v>       0.12779142       0.75000002       0.92670149 </v>
    <v>       0.87220858       0.25000000       0.07329849 </v>
    <v>       0.37220858       0.25000000       0.42670157 </v>
    <v>       0.62779142       0.75000002       0.57329847 </v>
    <v>       0.21788408       0.05907299       0.16005661 </v>
    <v>       0.78211592       0.94092700       0.83994337 </v>
    <v>       0.28211592       0.94092700       0.66005663 </v>
    <v>       0.71788408       0.05907299       0.33994337 </v>
    <v>       0.78211592       0.55907300       0.83994337 </v>
    <v>       0.21788408       0.44092700       0.16005661 </v>
    <v>       0.71788408       0.44092700       0.33994337 </v>
    <v>       0.28211592       0.55907300       0.66005663 </v>
    <v>       0.13448918       0.75000002       0.56813223 </v>
    <v>       0.86551080       0.25000000       0.43186777 </v>
    <v>       0.36551082       0.25000000       0.06813217 </v>
    <v>       0.63448920       0.75000002       0.93186781 </v>
    <v>       0.20980438       0.25000000       0.01764095 </v>
    <v>       0.79019561       0.75000002       0.98235906 </v>
    <v>       0.29019561       0.75000002       0.51764087 </v>
    <v>       0.70980439       0.25000000       0.48235905 </v>
   </varray>
  </structure>
  <varray name="forces" >
   <v>      -0.04206878       0.00000000      -0.05738172 </v>
   <v>       0.04206878      -0.00000000       0.05738172 </v>
   <v>       0.04206878      -0.00000000      -0.05738172 </v>
   <v>      -0.04206878       0.00000000       0.05738172 </v>
   <v>       0.11724925      -0.00000000      -0.07509361 </v>
   <v>      -0.11724925      -0.00000000       0.07509361 </v>
   <v>      -0.11724925      -0.00000000      -0.07509361 </v>
   <v>       0.11724925      -0.00000000       0.07509361 </v>
   <v>      -0.06742535      -0.01328389       0.06299562 </v>
   <v>       0.06742535       0.01328389      -0.06299562 </v>
   <v>       0.06742535       0.01328389       0.06299562 </v>
   <v>      -0.06742535      -0.01328389      -0.06299562 </v>
   <v>       0.06742535      -0.01328389      -0.06299562 </v>
   <v>      -0.06742535       0.01328389       0.06299562 </v>
   <v>      -0.06742535       0.01328389      -0.06299562 </v>
   <v>       0.06742535      -0.01328389       0.06299562 </v>
   <v>      -0.24115272       0.00000000       0.28159593 </v>
   <v>       0.24115272       0.00000000      -0.28159593 </v>
   <v>       0.24115272       0.00000000       0.28159593 </v>
   <v>      -0.24115272      -0.00000000      -0.28159593 </v>
   <v>      -0.20074553      -0.00000000      -0.15680569 </v>
   <v>       0.20074553      -0.00000000       0.15680569 </v>
   <v>       0.20074553      -0.00000000      -0.15680569 </v>
   <v>      -0.20074553       0.00000000       0.15680569 </v>
  </varray>
  <varray name="stress" >
   <v>      -8.18558827      -0.00000000       0.00000000 </v>
   <v>       0.00000000      -6.95298497       0.00000000 </v>
   <v>       0.00000000       0.00000000       4.18715020 </v>
  </varray>
  <energy>
   <i name="e_fr_energy">   -116.84534659 </i>
   <i name="e_wo_entrp">   -116.84534659 </i>
   <i name="e_0_energy">     -0.00000000 </i>
  </energy>
  <time name="totalsc">   70.98   73.08</time>
  <eigenvalues>
   <array>
    <dimension dim="1">band</dimension>
    <dimension dim="2">kpoint</dimension>
    <dimension dim="3">spin</dimension>
    <field>eigene</field>
    <field>occ</field>
    <set>
     <set comment="spin 1">
      <set comment="kpoint 1">
       <r>  -24.4309    1.0000 </r>
       <r>  -24.4229    1.0000 </r>
       <r>  -24.3854    1.0000 </r>
       <r>  -24.3821    1.0000 </r>
       <r>  -24.3503    1.0000 </r>
       <r>  -24.3497    1.0000 </r>
       <r>  -24.3486    1.0000 </r>
       <r>  -24.3438    1.0000 </r>
       <r>  -12.4989    1.0000 </r>
       <r>  -12.4879    1.0000 </r>
       <r>  -12.4500    1.0000 </r>
       <r>  -12.4111    1.0000 </r>
       <r>  -10.0312    1.0000 </r>
       <r>  -10.0047    1.0000 </r>
       <r>   -9.9945    1.0000 </r>
       <r>   -9.9662    1.0000 </r>
       <r>   -9.9150    1.0000 </r>
       <r>   -9.9059    1.0000 </r>
       <r>   -9.8164    1.0000 </r>
       <r>   -9.8064    1.0000 </r>
       <r>   -9.7952    1.0000 </r>
       <r>   -9.7722    1.0000 </r>
       <r>   -9.7484    1.0000 </r>
       <r>   -9.7319    1.0000 </r>
       <r>   -9.6900    1.0000 </r>
       <r>   -9.6750    1.0000 </r>
       <r>   -9.6676    1.0000 </r>
       <r>   -9.6628    1.0000 </r>
       <r>   -9.6123    1.0000 </r>
       <r>   -9.6097    1.0000 </r>
       <r>   -9.6097    1.0000 </r>
       <r>   -9.6050    1.0000 </r>
       <r>   -9.5865    1.0000 </r>
       <r>   -9.5676    1.0000 </r>
       <r>   -9.5451    1.0000 </r>
       <r>   -9.5327    1.0000 </r>
       <r>   -4.2904    1.0000 </r>
       <r>   -4.1224    1.0000 </r>
       <r>   -4.1114    1.0000 </r>
       <r>   -4.0000    1.0000 </r>
       <r>   -3.5294    1.0000 </r>
       <r>   -3.4815    1.0000 </r>
       <r>   -3.4701    1.0000 </r>
       <r>   -3.4580    1.0000 </r>
       <r>   -3.3594    1.0000 </r>
       <r>   -3.3548    1.0000 </r>
       <r>   -3.3330    1.0000 </r>
       <r>   -3.1965    1.0000 </r>
       <r>   -1.2678    1.0000 </r>
       <r>   -0.3077    1.0000 </r>
       <r>   -0.3034    1.0000 </r>
       <r>   -0.2353    1.0000 </r>
       <r>    0.3102    1.0000 </r>
       <r>    0.4941    1.0000 </r>
       <r>    0.4957    1.0000 </r>
       <r>    0.5492    1.0000 </r>
       <r>    0.6975    1.0000 </r>
       <r>    0.8074    1.0000 </r>
       <r>    0.8891    1.0000 </r>
       <r>    0.9648    1.0000 </r>
       <r>    1.5798    1.0000 </r>
       <r>    1.6712    1.0000 </r>
       <r>    1.7595    1.0000 </r>
       <r>    1.8924    1.0000 </r>
       <r>    1.9763    1.0000 </r>
       <r>    2.0625    1.0000 </r>
       <r>    2.2539    1.0000 </r>
       <r>    2.3073    1.0000 </r>
       <r>    2.3074    1.0000 </r>
       <r>    2.4980    1.0000 </r>
       <r>    2.6232    1.0000 </r>
       <r>    2.8514    1.0000 </r>
       <r>    3.7957    0.0000 </r>
       <r>    4.3490    0.0000 </r>
       <r>    4.4890    0.0000 </r>
       <r>    4.6117    0.0000 </r>
       <r>    4.6668    0.0000 </r>
       <r>    4.9078    0.0000 </r>
       <r>    5.1677    0.0000 </r>
       <r>    5.2009    0.0000 </r>
       <r>    5.2435    0.0000 </r>
       <r>    5.5230    0.0000 </r>
       <r>    5.6185    0.0000 </r>
       <r>    5.9444    0.0000 </r>
       <r>    5.9827    0.0000 </r>
       <r>    6.1228    0.0000 </r>
       <r>    6.1673    0.0000 </r>
       <r>    6.1768    0.0000 </r>
      </set>
      <set comment="kpoint 2">
       <r>  -24.4308    1.0000 </r>
       <r>  -24.4229    1.0000 </r>
       <r>  -24.3854    1.0000 </r>
       <r>  -24.3821    1.0000 </r>
       <r>  -24.3503    1.0000 </r>
       <r>  -24.3496    1.0000 </r>
       <r>  -24.3487    1.0000 </r>
       <r>  -24.3438    1.0000 </r>
       <r>  -12.4989    1.0000 </r>
       <r>  -12.4879    1.0000 </r>
       <r>  -12.4501    1.0000 </r>
       <r>  -12.4114    1.0000 </r>
       <r>  -10.0302    1.0000 </r>
       <r>  -10.0043    1.0000 </r>
       <r>   -9.9948    1.0000 </r>
       <r>   -9.9676    1.0000 </r>
       <r>   -9.9139    1.0000 </r>
       <r>   -9.9071    1.0000 </r>
       <r>   -9.8206    1.0000 </r>
       <r>   -9.8071    1.0000 </r>
       <r>   -9.7912    1.0000 </r>
       <r>   -9.7719    1.0000 </r>
       <r>   -9.7506    1.0000 </r>
       <r>   -9.7322    1.0000 </r>
       <r>   -9.6898    1.0000 </r>
       <r>   -9.6742    1.0000 </r>
       <r>   -9.6663    1.0000 </r>
       <r>   -9.6629    1.0000 </r>
       <r>   -9.6122    1.0000 </r>
       <r>   -9.6120    1.0000 </r>
       <r>   -9.6099    1.0000 </r>
       <r>   -9.6048    1.0000 </r>
       <r>   -9.5833    1.0000 </r>
       <r>   -9.5672    1.0000 </r>
       <r>   -9.5452    1.0000 </r>
       <r>   -9.5326    1.0000 </r>
       <r>   -4.2894    1.0000 </r>
       <r>   -4.1222    1.0000 </r>
       <r>   -4.1112    1.0000 </r>
       <r>   -4.0000    1.0000 </r>
       <r>   -3.5344    1.0000 </r>
       <r>   -3.4837    1.0000 </r>
       <r>   -3.4643    1.0000 </r>
       <r>   -3.4581    1.0000 </r>
       <r>   -3.3589    1.0000 </r>
       <r>   -3.3544    1.0000 </r>
       <r>   -3.3327    1.0000 </r>
       <r>   -3.1994    1.0000 </r>
       <r>   -1.2625    1.0000 </r>
       <r>   -0.3063    1.0000 </r>
       <r>   -0.3012    1.0000 </r>
       <r>   -0.2351    1.0000 </r>
       <r>    0.3102    1.0000 </r>
       <r>    0.4660    1.0000 </r>
       <r>    0.4962    1.0000 </r>
       <r>    0.5789    1.0000 </r>
       <r>    0.6954    1.0000 </r>
       <r>    0.7990    1.0000 </r>
       <r>    0.8855    1.0000 </r>
       <r>    0.9719    1.0000 </r>
       <r>    1.5833    1.0000 </r>
       <r>    1.6750    1.0000 </r>
       <r>    1.7654    1.0000 </r>
       <r>    1.8928    1.0000 </r>
       <r>    1.9779    1.0000 </r>
       <r>    2.0644    1.0000 </r>
       <r>    2.2449    1.0000 </r>
       <r>    2.3077    1.0000 </r>
       <r>    2.3137    1.0000 </r>
       <r>    2.4950    1.0000 </r>
       <r>    2.6215    1.0000 </r>
       <r>    2.8473    1.0000 </r>
       <r>    3.8007    0.0000 </r>
       <r>    4.3550    0.0000 </r>
       <r>    4.4866    0.0000 </r>
       <r>    4.6184    0.0000 </r>
       <r>    4.6683    0.0000 </r>
       <r>    4.9011    0.0000 </r>
       <r>    5.1737    0.0000 </r>
       <r>    5.1986    0.0000 </r>
       <r>    5.2465    0.0000 </r>
       <r>    5.5156    0.0000 </r>
       <r>    5.6164    0.0000 </r>
       <r>    5.9525    0.0000 </r>
       <r>    5.9722    0.0000 </r>
       <r>    6.1176    0.0000 </r>
       <r>    6.1324    0.0000 </r>
       <r>    6.1936    0.0000 </r>
      </set>
      <set comment="kpoint 3">
       <r>  -24.4305    1.0000 </r>
       <r>  -24.4226    1.0000 </r>
       <r>  -24.3855    1.0000 </r>
       <r>  -24.3823    1.0000 </r>
       <r>  -24.3503    1.0000 </r>
       <r>  -24.3496    1.0000 </r>
       <r>  -24.3488    1.0000 </r>
       <r>  -24.3438    1.0000 </r>
       <r>  -12.4988    1.0000 </r>
       <r>  -12.4878    1.0000 </r>
       <r>  -12.4503    1.0000 </r>
       <r>  -12.4121    1.0000 </r>
       <r>  -10.0273    1.0000 </r>
       <r>  -10.0032    1.0000 </r>
       <r>   -9.9955    1.0000 </r>
       <r>   -9.9712    1.0000 </r>
       <r>   -9.9112    1.0000 </r>
       <r>   -9.9108    1.0000 </r>
       <r>   -9.8288    1.0000 </r>
       <r>   -9.8092    1.0000 </r>
       <r>   -9.7834    1.0000 </r>
       <r>   -9.7710    1.0000 </r>
       <r>   -9.7566    1.0000 </r>
       <r>   -9.7332    1.0000 </r>
       <r>   -9.6895    1.0000 </r>
       <r>   -9.6718    1.0000 </r>
       <r>   -9.6635    1.0000 </r>
       <r>   -9.6630    1.0000 </r>
       <r>   -9.6173    1.0000 </r>
       <r>   -9.6113    1.0000 </r>
       <r>   -9.6105    1.0000 </r>
       <r>   -9.6042    1.0000 </r>
       <r>   -9.5762    1.0000 </r>
       <r>   -9.5657    1.0000 </r>
       <r>   -9.5453    1.0000 </r>
       <r>   -9.5324    1.0000 </r>
       <r>   -4.2865    1.0000 </r>
       <r>   -4.1215    1.0000 </r>
       <r>   -4.1107    1.0000 </r>
       <r>   -4.0000    1.0000 </r>
       <r>   -3.5457    1.0000 </r>
       <r>   -3.4903    1.0000 </r>
       <r>   -3.4584    1.0000 </r>
       <r>   -3.4509    1.0000 </r>
       <r>   -3.3574    1.0000 </r>
       <r>   -3.3531    1.0000 </r>
       <r>   -3.3317    1.0000 </r>
       <r>   -3.2082    1.0000 </r>
       <r>   -1.2468    1.0000 </r>
       <r>   -0.3019    1.0000 </r>
       <r>   -0.2946    1.0000 </r>
       <r>   -0.2345    1.0000 </r>
       <r>    0.3101    1.0000 </r>
       <r>    0.4229    1.0000 </r>
       <r>    0.4976    1.0000 </r>
       <r>    0.6265    1.0000 </r>
       <r>    0.6894    1.0000 </r>
       <r>    0.7774    1.0000 </r>
       <r>    0.8751    1.0000 </r>
       <r>    0.9898    1.0000 </r>
       <r>    1.5937    1.0000 </r>
       <r>    1.6866    1.0000 </r>
       <r>    1.7828    1.0000 </r>
       <r>    1.8941    1.0000 </r>
       <r>    1.9826    1.0000 </r>
       <r>    2.0700    1.0000 </r>
       <r>    2.2253    1.0000 </r>
       <r>    2.3085    1.0000 </r>
       <r>    2.3259    1.0000 </r>
       <r>    2.4865    1.0000 </r>
       <r>    2.6166    1.0000 </r>
       <r>    2.8354    1.0000 </r>
       <r>    3.8156    0.0000 </r>
       <r>    4.3722    0.0000 </r>
       <r>    4.4809    0.0000 </r>
       <r>    4.6372    0.0000 </r>
       <r>    4.6725    0.0000 </r>
       <r>    4.8812    0.0000 </r>
       <r>    5.1911    0.0000 </r>
       <r>    5.1925    0.0000 </r>
       <r>    5.2535    0.0000 </r>
       <r>    5.4978    0.0000 </r>
       <r>    5.6104    0.0000 </r>
       <r>    5.9427    0.0000 </r>
       <r>    5.9719    0.0000 </r>
       <r>    6.0868    0.0000 </r>
       <r>    6.1398    0.0000 </r>
       <r>    6.2420    0.0000 </r>
      </set>
      <set comment="kpoint 4">
       <r>  -24.4300    1.0000 </r>
       <r>  -24.4223    1.0000 </r>
       <r>  -24.3857    1.0000 </r>
       <r>  -24.3827    1.0000 </r>
       <r>  -24.3504    1.0000 </r>
       <r>  -24.3496    1.0000 </r>
       <r>  -24.3490    1.0000 </r>
       <r>  -24.3439    1.0000 </r>
       <r>  -12.4987    1.0000 </r>
       <r>  -12.4876    1.0000 </r>
       <r>  -12.4508    1.0000 </r>
       <r>  -12.4134    1.0000 </r>
       <r>  -10.0225    1.0000 </r>
       <r>  -10.0014    1.0000 </r>
       <r>   -9.9967    1.0000 </r>
       <r>   -9.9763    1.0000 </r>
       <r>   -9.9166    1.0000 </r>
       <r>   -9.9076    1.0000 </r>
       <r>   -9.8378    1.0000 </r>
       <r>   -9.8130    1.0000 </r>
       <r>   -9.7751    1.0000 </r>
       <r>   -9.7694    1.0000 </r>
       <r>   -9.7647    1.0000 </r>
       <r>   -9.7348    1.0000 </r>
       <r>   -9.6890    1.0000 </r>
       <r>   -9.6679    1.0000 </r>
       <r>   -9.6652    1.0000 </r>
       <r>   -9.6588    1.0000 </r>
       <r>   -9.6219    1.0000 </r>
       <r>   -9.6115    1.0000 </r>
       <r>   -9.6104    1.0000 </r>
       <r>   -9.6035    1.0000 </r>
       <r>   -9.5676    1.0000 </r>
       <r>   -9.5632    1.0000 </r>
       <r>   -9.5457    1.0000 </r>
       <r>   -9.5318    1.0000 </r>
       <r>   -4.2817    1.0000 </r>
       <r>   -4.1204    1.0000 </r>
       <r>   -4.1098    1.0000 </r>
       <r>   -4.0000    1.0000 </r>
       <r>   -3.5587    1.0000 </r>
       <r>   -3.5009    1.0000 </r>
       <r>   -3.4588    1.0000 </r>
       <r>   -3.4344    1.0000 </r>
       <r>   -3.3550    1.0000 </r>
       <r>   -3.3510    1.0000 </r>
       <r>   -3.3301    1.0000 </r>
       <r>   -3.2226    1.0000 </r>
       <r>   -1.2210    1.0000 </r>
       <r>   -0.2947    1.0000 </r>
       <r>   -0.2838    1.0000 </r>
       <r>   -0.2335    1.0000 </r>
       <r>    0.3096    1.0000 </r>
       <r>    0.3801    1.0000 </r>
       <r>    0.4994    1.0000 </r>
       <r>    0.6763    1.0000 </r>
       <r>    0.6802    1.0000 </r>
       <r>    0.7483    1.0000 </r>
       <r>    0.8591    1.0000 </r>
       <r>    1.0125    1.0000 </r>
       <r>    1.6114    1.0000 </r>
       <r>    1.7055    1.0000 </r>
       <r>    1.8109    1.0000 </r>
       <r>    1.8963    1.0000 </r>
       <r>    1.9905    1.0000 </r>
       <r>    2.0795    1.0000 </r>
       <r>    2.2020    1.0000 </r>
       <r>    2.3096    1.0000 </r>
       <r>    2.3370    1.0000 </r>
       <r>    2.4732    1.0000 </r>
       <r>    2.6083    1.0000 </r>
       <r>    2.8162    1.0000 </r>
       <r>    3.8402    0.0000 </r>
       <r>    4.3993    0.0000 </r>
       <r>    4.4740    0.0000 </r>
       <r>    4.6655    0.0000 </r>
       <r>    4.6781    0.0000 </r>
       <r>    4.8491    0.0000 </r>
       <r>    5.1839    0.0000 </r>
       <r>    5.2189    0.0000 </r>
       <r>    5.2579    0.0000 </r>
       <r>    5.4805    0.0000 </r>
       <r>    5.6002    0.0000 </r>
       <r>    5.8965    0.0000 </r>
       <r>    5.9916    0.0000 </r>
       <r>    6.0354    0.0000 </r>
       <r>    6.0950    0.0000 </r>
       <r>    6.2480    0.0000 </r>
      </set>
      <set comment="kpoint 5">
       <r>  -24.4293    1.0000 </r>
       <r>  -24.4218    1.0000 </r>
       <r>  -24.3859    1.0000 </r>
       <r>  -24.3831    1.0000 </r>
       <r>  -24.3505    1.0000 </r>
       <r>  -24.3495    1.0000 </r>
       <r>  -24.3494    1.0000 </r>
       <r>  -24.3440    1.0000 </r>
       <r>  -12.4985    1.0000 </r>
       <r>  -12.4874    1.0000 </r>
       <r>  -12.4514    1.0000 </r>
       <r>  -12.4152    1.0000 </r>
       <r>  -10.0159    1.0000 </r>
       <r>   -9.9989    1.0000 </r>
       <r>   -9.9984    1.0000 </r>
       <r>   -9.9822    1.0000 </r>
       <r>   -9.9242    1.0000 </r>
       <r>   -9.9041    1.0000 </r>
       <r>   -9.8464    1.0000 </r>
       <r>   -9.8190    1.0000 </r>
       <r>   -9.7733    1.0000 </r>
       <r>   -9.7674    1.0000 </r>
       <r>   -9.7670    1.0000 </r>
       <r>   -9.7367    1.0000 </r>
       <r>   -9.6884    1.0000 </r>
       <r>   -9.6686    1.0000 </r>
       <r>   -9.6625    1.0000 </r>
       <r>   -9.6549    1.0000 </r>
       <r>   -9.6247    1.0000 </r>
       <r>   -9.6128    1.0000 </r>
       <r>   -9.6096    1.0000 </r>
       <r>   -9.6028    1.0000 </r>
       <r>   -9.5594    1.0000 </r>
       <r>   -9.5586    1.0000 </r>
       <r>   -9.5462    1.0000 </r>
       <r>   -9.5308    1.0000 </r>
       <r>   -4.2750    1.0000 </r>
       <r>   -4.1188    1.0000 </r>
       <r>   -4.1085    1.0000 </r>
       <r>   -4.0002    1.0000 </r>
       <r>   -3.5713    1.0000 </r>
       <r>   -3.5150    1.0000 </r>
       <r>   -3.4596    1.0000 </r>
       <r>   -3.4168    1.0000 </r>
       <r>   -3.3517    1.0000 </r>
       <r>   -3.3481    1.0000 </r>
       <r>   -3.3278    1.0000 </r>
       <r>   -3.2422    1.0000 </r>
       <r>   -1.1858    1.0000 </r>
       <r>   -0.2849    1.0000 </r>
       <r>   -0.2690    1.0000 </r>
       <r>   -0.2322    1.0000 </r>
       <r>    0.3082    1.0000 </r>
       <r>    0.3392    1.0000 </r>
       <r>    0.5005    1.0000 </r>
       <r>    0.6694    1.0000 </r>
       <r>    0.7153    1.0000 </r>
       <r>    0.7258    1.0000 </r>
       <r>    0.8395    1.0000 </r>
       <r>    1.0363    1.0000 </r>
       <r>    1.6368    1.0000 </r>
       <r>    1.7314    1.0000 </r>
       <r>    1.8484    1.0000 </r>
       <r>    1.8996    1.0000 </r>
       <r>    2.0015    1.0000 </r>
       <r>    2.0927    1.0000 </r>
       <r>    2.1778    1.0000 </r>
       <r>    2.3109    1.0000 </r>
       <r>    2.3449    1.0000 </r>
       <r>    2.4567    1.0000 </r>
       <r>    2.5968    1.0000 </r>
       <r>    2.7908    1.0000 </r>
       <r>    3.8737    0.0000 </r>
       <r>    4.4337    0.0000 </r>
       <r>    4.4675    0.0000 </r>
       <r>    4.6827    0.0000 </r>
       <r>    4.7016    0.0000 </r>
       <r>    4.8054    0.0000 </r>
       <r>    5.1757    0.0000 </r>
       <r>    5.2495    0.0000 </r>
       <r>    5.2557    0.0000 </r>
       <r>    5.4771    0.0000 </r>
       <r>    5.5850    0.0000 </r>
       <r>    5.8408    0.0000 </r>
       <r>    5.9854    0.0000 </r>
       <r>    5.9900    0.0000 </r>
       <r>    6.0880    0.0000 </r>
       <r>    6.3043    0.0000 </r>
      </set>
      <set comment="kpoint 6">
       <r>  -24.4284    1.0000 </r>
       <r>  -24.4211    1.0000 </r>
       <r>  -24.3862    1.0000 </r>
       <r>  -24.3837    1.0000 </r>
       <r>  -24.3507    1.0000 </r>
       <r>  -24.3497    1.0000 </r>
       <r>  -24.3494    1.0000 </r>
       <r>  -24.3441    1.0000 </r>
       <r>  -12.4983    1.0000 </r>
       <r>  -12.4872    1.0000 </r>
       <r>  -12.4522    1.0000 </r>
       <r>  -12.4174    1.0000 </r>
       <r>  -10.0077    1.0000 </r>
       <r>  -10.0005    1.0000 </r>
       <r>   -9.9957    1.0000 </r>
       <r>   -9.9885    1.0000 </r>
       <r>   -9.9331    1.0000 </r>
       <r>   -9.9011    1.0000 </r>
       <r>   -9.8543    1.0000 </r>
       <r>   -9.8272    1.0000 </r>
       <r>   -9.7812    1.0000 </r>
       <r>   -9.7642    1.0000 </r>
       <r>   -9.7604    1.0000 </r>
       <r>   -9.7383    1.0000 </r>
       <r>   -9.6878    1.0000 </r>
       <r>   -9.6743    1.0000 </r>
       <r>   -9.6559    1.0000 </r>
       <r>   -9.6517    1.0000 </r>
       <r>   -9.6251    1.0000 </r>
       <r>   -9.6144    1.0000 </r>
       <r>   -9.6092    1.0000 </r>
       <r>   -9.6023    1.0000 </r>
       <r>   -9.5545    1.0000 </r>
       <r>   -9.5494    1.0000 </r>
       <r>   -9.5470    1.0000 </r>
       <r>   -9.5293    1.0000 </r>
       <r>   -4.2666    1.0000 </r>
       <r>   -4.1165    1.0000 </r>
       <r>   -4.1069    1.0000 </r>
       <r>   -4.0005    1.0000 </r>
       <r>   -3.5827    1.0000 </r>
       <r>   -3.5323    1.0000 </r>
       <r>   -3.4607    1.0000 </r>
       <r>   -3.3990    1.0000 </r>
       <r>   -3.3476    1.0000 </r>
       <r>   -3.3445    1.0000 </r>
       <r>   -3.3249    1.0000 </r>
       <r>   -3.2665    1.0000 </r>
       <r>   -1.1422    1.0000 </r>
       <r>   -0.2726    1.0000 </r>
       <r>   -0.2508    1.0000 </r>
       <r>   -0.2304    1.0000 </r>
       <r>    0.3004    1.0000 </r>
       <r>    0.3051    1.0000 </r>
       <r>    0.4993    1.0000 </r>
       <r>    0.6590    1.0000 </r>
       <r>    0.6802    1.0000 </r>
       <r>    0.7735    1.0000 </r>
       <r>    0.8183    1.0000 </r>
       <r>    1.0591    1.0000 </r>
       <r>    1.6703    1.0000 </r>
       <r>    1.7634    1.0000 </r>
       <r>    1.8941    1.0000 </r>
       <r>    1.9044    1.0000 </r>
       <r>    2.0155    1.0000 </r>
       <r>    2.1096    1.0000 </r>
       <r>    2.1540    1.0000 </r>
       <r>    2.3119    1.0000 </r>
       <r>    2.3488    1.0000 </r>
       <r>    2.4387    1.0000 </r>
       <r>    2.5822    1.0000 </r>
       <r>    2.7603    1.0000 </r>
       <r>    3.9155    0.0000 </r>
       <r>    4.4620    0.0000 </r>
       <r>    4.4722    0.0000 </r>
       <r>    4.6832    0.0000 </r>
       <r>    4.7445    0.0000 </r>
       <r>    4.7511    0.0000 </r>
       <r>    5.1717    0.0000 </r>
       <r>    5.2226    0.0000 </r>
       <r>    5.3001    0.0000 </r>
       <r>    5.4934    0.0000 </r>
       <r>    5.5621    0.0000 </r>
       <r>    5.7822    0.0000 </r>
       <r>    5.9262    0.0000 </r>
       <r>    5.9629    0.0000 </r>
       <r>    6.1041    0.0000 </r>
       <r>    6.3934    0.0000 </r>
      </set>
      <set comment="kpoint 7">
       <r>  -24.4274    1.0000 </r>
       <r>  -24.4204    1.0000 </r>
       <r>  -24.3866    1.0000 </r>
       <r>  -24.3844    1.0000 </r>
       <r>  -24.3509    1.0000 </r>
       <r>  -24.3502    1.0000 </r>
       <r>  -24.3493    1.0000 </r>
       <r>  -24.3442    1.0000 </r>
       <r>  -12.4979    1.0000 </r>
       <r>  -12.4868    1.0000 </r>
       <r>  -12.4531    1.0000 </r>
       <r>  -12.4201    1.0000 </r>
       <r>  -10.0029    1.0000 </r>
       <r>   -9.9980    1.0000 </r>
       <r>   -9.9947    1.0000 </r>
       <r>   -9.9918    1.0000 </r>
       <r>   -9.9429    1.0000 </r>
       <r>   -9.8988    1.0000 </r>
       <r>   -9.8613    1.0000 </r>
       <r>   -9.8376    1.0000 </r>
       <r>   -9.7880    1.0000 </r>
       <r>   -9.7621    1.0000 </r>
       <r>   -9.7541    1.0000 </r>
       <r>   -9.7385    1.0000 </r>
       <r>   -9.6873    1.0000 </r>
       <r>   -9.6819    1.0000 </r>
       <r>   -9.6494    1.0000 </r>
       <r>   -9.6487    1.0000 </r>
       <r>   -9.6236    1.0000 </r>
       <r>   -9.6160    1.0000 </r>
       <r>   -9.6094    1.0000 </r>
       <r>   -9.6022    1.0000 </r>
       <r>   -9.5487    1.0000 </r>
       <r>   -9.5480    1.0000 </r>
       <r>   -9.5404    1.0000 </r>
       <r>   -9.5271    1.0000 </r>
       <r>   -4.2565    1.0000 </r>
       <r>   -4.1136    1.0000 </r>
       <r>   -4.1048    1.0000 </r>
       <r>   -4.0012    1.0000 </r>
       <r>   -3.5923    1.0000 </r>
       <r>   -3.5521    1.0000 </r>
       <r>   -3.4622    1.0000 </r>
       <r>   -3.3817    1.0000 </r>
       <r>   -3.3428    1.0000 </r>
       <r>   -3.3405    1.0000 </r>
       <r>   -3.3215    1.0000 </r>
       <r>   -3.2947    1.0000 </r>
       <r>   -1.0910    1.0000 </r>
       <r>   -0.2583    1.0000 </r>
       <r>   -0.2294    1.0000 </r>
       <r>   -0.2283    1.0000 </r>
       <r>    0.2638    1.0000 </r>
       <r>    0.2996    1.0000 </r>
       <r>    0.4937    1.0000 </r>
       <r>    0.6439    1.0000 </r>
       <r>    0.6518    1.0000 </r>
       <r>    0.7976    1.0000 </r>
       <r>    0.8182    1.0000 </r>
       <r>    1.0799    1.0000 </r>
       <r>    1.7121    1.0000 </r>
       <r>    1.8002    1.0000 </r>
       <r>    1.9116    1.0000 </r>
       <r>    1.9469    1.0000 </r>
       <r>    2.0323    1.0000 </r>
       <r>    2.1303    1.0000 </r>
       <r>    2.1316    1.0000 </r>
       <r>    2.3121    1.0000 </r>
       <r>    2.3485    1.0000 </r>
       <r>    2.4212    1.0000 </r>
       <r>    2.5647    1.0000 </r>
       <r>    2.7259    1.0000 </r>
       <r>    3.9643    0.0000 </r>
       <r>    4.4573    0.0000 </r>
       <r>    4.5104    0.0000 </r>
       <r>    4.6759    0.0000 </r>
       <r>    4.6873    0.0000 </r>
       <r>    4.7931    0.0000 </r>
       <r>    5.1767    0.0000 </r>
       <r>    5.1812    0.0000 </r>
       <r>    5.3500    0.0000 </r>
       <r>    5.5224    0.0000 </r>
       <r>    5.5268    0.0000 </r>
       <r>    5.7252    0.0000 </r>
       <r>    5.8720    0.0000 </r>
       <r>    5.9018    0.0000 </r>
       <r>    6.1310    0.0000 </r>
       <r>    6.2919    0.0000 </r>
      </set>
      <set comment="kpoint 8">
       <r>  -24.4262    1.0000 </r>
       <r>  -24.4195    1.0000 </r>
       <r>  -24.3871    1.0000 </r>
       <r>  -24.3852    1.0000 </r>
       <r>  -24.3511    1.0000 </r>
       <r>  -24.3506    1.0000 </r>
       <r>  -24.3492    1.0000 </r>
       <r>  -24.3443    1.0000 </r>
       <r>  -12.4974    1.0000 </r>
       <r>  -12.4864    1.0000 </r>
       <r>  -12.4542    1.0000 </r>
       <r>  -12.4232    1.0000 </r>
       <r>  -10.0057    1.0000 </r>
       <r>  -10.0009    1.0000 </r>
       <r>   -9.9874    1.0000 </r>
       <r>   -9.9872    1.0000 </r>
       <r>   -9.9531    1.0000 </r>
       <r>   -9.8970    1.0000 </r>
       <r>   -9.8671    1.0000 </r>
       <r>   -9.8492    1.0000 </r>
       <r>   -9.7939    1.0000 </r>
       <r>   -9.7625    1.0000 </r>
       <r>   -9.7485    1.0000 </r>
       <r>   -9.7355    1.0000 </r>
       <r>   -9.6914    1.0000 </r>
       <r>   -9.6862    1.0000 </r>
       <r>   -9.6479    1.0000 </r>
       <r>   -9.6421    1.0000 </r>
       <r>   -9.6208    1.0000 </r>
       <r>   -9.6167    1.0000 </r>
       <r>   -9.6103    1.0000 </r>
       <r>   -9.6025    1.0000 </r>
       <r>   -9.5493    1.0000 </r>
       <r>   -9.5425    1.0000 </r>
       <r>   -9.5318    1.0000 </r>
       <r>   -9.5243    1.0000 </r>
       <r>   -4.2449    1.0000 </r>
       <r>   -4.1100    1.0000 </r>
       <r>   -4.1023    1.0000 </r>
       <r>   -4.0022    1.0000 </r>
       <r>   -3.5998    1.0000 </r>
       <r>   -3.5738    1.0000 </r>
       <r>   -3.4642    1.0000 </r>
       <r>   -3.3651    1.0000 </r>
       <r>   -3.3385    1.0000 </r>
       <r>   -3.3374    1.0000 </r>
       <r>   -3.3239    1.0000 </r>
       <r>   -3.3175    1.0000 </r>
       <r>   -1.0335    1.0000 </r>
       <r>   -0.2420    1.0000 </r>
       <r>   -0.2257    1.0000 </r>
       <r>   -0.2054    1.0000 </r>
       <r>    0.2290    1.0000 </r>
       <r>    0.2908    1.0000 </r>
       <r>    0.4820    1.0000 </r>
       <r>    0.6070    1.0000 </r>
       <r>    0.6498    1.0000 </r>
       <r>    0.7792    1.0000 </r>
       <r>    0.8592    1.0000 </r>
       <r>    1.0980    1.0000 </r>
       <r>    1.7622    1.0000 </r>
       <r>    1.8384    1.0000 </r>
       <r>    1.9242    1.0000 </r>
       <r>    2.0054    1.0000 </r>
       <r>    2.0517    1.0000 </r>
       <r>    2.1115    1.0000 </r>
       <r>    2.1546    1.0000 </r>
       <r>    2.3106    1.0000 </r>
       <r>    2.3444    1.0000 </r>
       <r>    2.4062    1.0000 </r>
       <r>    2.5444    1.0000 </r>
       <r>    2.6888    1.0000 </r>
       <r>    4.0184    0.0000 </r>
       <r>    4.4528    0.0000 </r>
       <r>    4.5417    0.0000 </r>
       <r>    4.6159    0.0000 </r>
       <r>    4.6602    0.0000 </r>
       <r>    4.8468    0.0000 </r>
       <r>    5.1306    0.0000 </r>
       <r>    5.1947    0.0000 </r>
       <r>    5.4028    0.0000 </r>
       <r>    5.4727    0.0000 </r>
       <r>    5.5513    0.0000 </r>
       <r>    5.6767    0.0000 </r>
       <r>    5.8303    0.0000 </r>
       <r>    5.8504    0.0000 </r>
       <r>    6.0945    0.0000 </r>
       <r>    6.2484    0.0000 </r>
      </set>
      <set comment="kpoint 9">
       <r>  -24.4248    1.0000 </r>
       <r>  -24.4184    1.0000 </r>
       <r>  -24.3877    1.0000 </r>
       <r>  -24.3861    1.0000 </r>
       <r>  -24.3513    1.0000 </r>
       <r>  -24.3511    1.0000 </r>
       <r>  -24.3491    1.0000 </r>
       <r>  -24.3445    1.0000 </r>
       <r>  -12.4967    1.0000 </r>
       <r>  -12.4859    1.0000 </r>
       <r>  -12.4554    1.0000 </r>
       <r>  -12.4266    1.0000 </r>
       <r>  -10.0085    1.0000 </r>
       <r>  -10.0069    1.0000 </r>
       <r>   -9.9831    1.0000 </r>
       <r>   -9.9758    1.0000 </r>
       <r>   -9.9626    1.0000 </r>
       <r>   -9.8956    1.0000 </r>
       <r>   -9.8719    1.0000 </r>
       <r>   -9.8609    1.0000 </r>
       <r>   -9.7992    1.0000 </r>
       <r>   -9.7660    1.0000 </r>
       <r>   -9.7433    1.0000 </r>
       <r>   -9.7291    1.0000 </r>
       <r>   -9.7015    1.0000 </r>
       <r>   -9.6855    1.0000 </r>
       <r>   -9.6473    1.0000 </r>
       <r>   -9.6385    1.0000 </r>
       <r>   -9.6174    1.0000 </r>
       <r>   -9.6146    1.0000 </r>
       <r>   -9.6119    1.0000 </r>
       <r>   -9.6029    1.0000 </r>
       <r>   -9.5509    1.0000 </r>
       <r>   -9.5361    1.0000 </r>
       <r>   -9.5237    1.0000 </r>
       <r>   -9.5209    1.0000 </r>
       <r>   -4.2319    1.0000 </r>
       <r>   -4.1056    1.0000 </r>
       <r>   -4.0994    1.0000 </r>
       <r>   -4.0035    1.0000 </r>
       <r>   -3.6051    1.0000 </r>
       <r>   -3.5967    1.0000 </r>
       <r>   -3.4668    1.0000 </r>
       <r>   -3.3642    1.0000 </r>
       <r>   -3.3496    1.0000 </r>
       <r>   -3.3315    1.0000 </r>
       <r>   -3.3278    1.0000 </r>
       <r>   -3.3131    1.0000 </r>
       <r>   -0.9708    1.0000 </r>
       <r>   -0.2243    1.0000 </r>
       <r>   -0.2224    1.0000 </r>
       <r>   -0.1792    1.0000 </r>
       <r>    0.1957    1.0000 </r>
       <r>    0.2781    1.0000 </r>
       <r>    0.4638    1.0000 </r>
       <r>    0.5697    1.0000 </r>
       <r>    0.6536    1.0000 </r>
       <r>    0.7646    1.0000 </r>
       <r>    0.8958    1.0000 </r>
       <r>    1.1130    1.0000 </r>
       <r>    1.8200    1.0000 </r>
       <r>    1.8704    1.0000 </r>
       <r>    1.9497    1.0000 </r>
       <r>    2.0646    1.0000 </r>
       <r>    2.0734    1.0000 </r>
       <r>    2.0982    1.0000 </r>
       <r>    2.1823    1.0000 </r>
       <r>    2.3071    1.0000 </r>
       <r>    2.3369    1.0000 </r>
       <r>    2.3954    1.0000 </r>
       <r>    2.5216    1.0000 </r>
       <r>    2.6501    1.0000 </r>
       <r>    4.0748    0.0000 </r>
       <r>    4.4476    0.0000 </r>
       <r>    4.5403    0.0000 </r>
       <r>    4.5502    0.0000 </r>
       <r>    4.6478    0.0000 </r>
       <r>    4.9041    0.0000 </r>
       <r>    5.0730    0.0000 </r>
       <r>    5.2273    0.0000 </r>
       <r>    5.3988    0.0000 </r>
       <r>    5.4547    0.0000 </r>
       <r>    5.5645    0.0000 </r>
       <r>    5.6404    0.0000 </r>
       <r>    5.8068    0.0000 </r>
       <r>    5.8146    0.0000 </r>
       <r>    6.0096    0.0000 </r>
       <r>    6.2384    0.0000 </r>
      </set>
      <set comment="kpoint 10">
       <r>  -24.4233    1.0000 </r>
       <r>  -24.4173    1.0000 </r>
       <r>  -24.3884    1.0000 </r>
       <r>  -24.3872    1.0000 </r>
       <r>  -24.3517    1.0000 </r>
       <r>  -24.3515    1.0000 </r>
       <r>  -24.3489    1.0000 </r>
       <r>  -24.3446    1.0000 </r>
       <r>  -12.4958    1.0000 </r>
       <r>  -12.4853    1.0000 </r>
       <r>  -12.4567    1.0000 </r>
       <r>  -12.4303    1.0000 </r>
       <r>  -10.0126    1.0000 </r>
       <r>  -10.0114    1.0000 </r>
       <r>   -9.9823    1.0000 </r>
       <r>   -9.9679    1.0000 </r>
       <r>   -9.9647    1.0000 </r>
       <r>   -9.8942    1.0000 </r>
       <r>   -9.8754    1.0000 </r>
       <r>   -9.8714    1.0000 </r>
       <r>   -9.8043    1.0000 </r>
       <r>   -9.7715    1.0000 </r>
       <r>   -9.7384    1.0000 </r>
       <r>   -9.7205    1.0000 </r>
       <r>   -9.7124    1.0000 </r>
       <r>   -9.6846    1.0000 </r>
       <r>   -9.6475    1.0000 </r>
       <r>   -9.6395    1.0000 </r>
       <r>   -9.6141    1.0000 </r>
       <r>   -9.6137    1.0000 </r>
       <r>   -9.6086    1.0000 </r>
       <r>   -9.6034    1.0000 </r>
       <r>   -9.5526    1.0000 </r>
       <r>   -9.5300    1.0000 </r>
       <r>   -9.5172    1.0000 </r>
       <r>   -9.5163    1.0000 </r>
       <r>   -4.2176    1.0000 </r>
       <r>   -4.1004    1.0000 </r>
       <r>   -4.0960    1.0000 </r>
       <r>   -4.0054    1.0000 </r>
       <r>   -3.6203    1.0000 </r>
       <r>   -3.6081    1.0000 </r>
       <r>   -3.4700    1.0000 </r>
       <r>   -3.4008    1.0000 </r>
       <r>   -3.3353    1.0000 </r>
       <r>   -3.3253    1.0000 </r>
       <r>   -3.3225    1.0000 </r>
       <r>   -3.3084    1.0000 </r>
       <r>   -0.9039    1.0000 </r>
       <r>   -0.2185    1.0000 </r>
       <r>   -0.2055    1.0000 </r>
       <r>   -0.1513    1.0000 </r>
       <r>    0.1635    1.0000 </r>
       <r>    0.2615    1.0000 </r>
       <r>    0.4404    1.0000 </r>
       <r>    0.5321    1.0000 </r>
       <r>    0.6622    1.0000 </r>
       <r>    0.7546    1.0000 </r>
       <r>    0.9281    1.0000 </r>
       <r>    1.1248    1.0000 </r>
       <r>    1.8840    1.0000 </r>
       <r>    1.8901    1.0000 </r>
       <r>    1.9939    1.0000 </r>
       <r>    2.0728    1.0000 </r>
       <r>    2.0970    1.0000 </r>
       <r>    2.1424    1.0000 </r>
       <r>    2.2133    1.0000 </r>
       <r>    2.3025    1.0000 </r>
       <r>    2.3272    1.0000 </r>
       <r>    2.3892    1.0000 </r>
       <r>    2.4967    1.0000 </r>
       <r>    2.6109    1.0000 </r>
       <r>    4.1269    0.0000 </r>
       <r>    4.4397    0.0000 </r>
       <r>    4.4677    0.0000 </r>
       <r>    4.5181    0.0000 </r>
       <r>    4.6563    0.0000 </r>
       <r>    4.9626    0.0000 </r>
       <r>    5.0081    0.0000 </r>
       <r>    5.2732    0.0000 </r>
       <r>    5.3114    0.0000 </r>
       <r>    5.5000    0.0000 </r>
       <r>    5.5508    0.0000 </r>
       <r>    5.6188    0.0000 </r>
       <r>    5.8011    0.0000 </r>
       <r>    5.8035    0.0000 </r>
       <r>    5.8989    0.0000 </r>
       <r>    6.2434    0.0000 </r>
      </set>
      <set comment="kpoint 11">
       <r>  -24.4216    1.0000 </r>
       <r>  -24.4161    1.0000 </r>
       <r>  -24.3893    1.0000 </r>
       <r>  -24.3883    1.0000 </r>
       <r>  -24.3521    1.0000 </r>
       <r>  -24.3518    1.0000 </r>
       <r>  -24.3487    1.0000 </r>
       <r>  -24.3448    1.0000 </r>
       <r>  -12.4947    1.0000 </r>
       <r>  -12.4846    1.0000 </r>
       <r>  -12.4582    1.0000 </r>
       <r>  -12.4343    1.0000 </r>
       <r>  -10.0181    1.0000 </r>
       <r>  -10.0142    1.0000 </r>
       <r>   -9.9891    1.0000 </r>
       <r>   -9.9645    1.0000 </r>
       <r>   -9.9557    1.0000 </r>
       <r>   -9.8924    1.0000 </r>
       <r>   -9.8787    1.0000 </r>
       <r>   -9.8779    1.0000 </r>
       <r>   -9.8094    1.0000 </r>
       <r>   -9.7785    1.0000 </r>
       <r>   -9.7336    1.0000 </r>
       <r>   -9.7240    1.0000 </r>
       <r>   -9.7109    1.0000 </r>
       <r>   -9.6836    1.0000 </r>
       <r>   -9.6484    1.0000 </r>
       <r>   -9.6437    1.0000 </r>
       <r>   -9.6166    1.0000 </r>
       <r>   -9.6101    1.0000 </r>
       <r>   -9.6038    1.0000 </r>
       <r>   -9.6007    1.0000 </r>
       <r>   -9.5542    1.0000 </r>
       <r>   -9.5244    1.0000 </r>
       <r>   -9.5133    1.0000 </r>
       <r>   -9.5097    1.0000 </r>
       <r>   -4.2023    1.0000 </r>
       <r>   -4.0943    1.0000 </r>
       <r>   -4.0923    1.0000 </r>
       <r>   -4.0078    1.0000 </r>
       <r>   -3.6439    1.0000 </r>
       <r>   -3.6089    1.0000 </r>
       <r>   -3.4741    1.0000 </r>
       <r>   -3.4393    1.0000 </r>
       <r>   -3.3223    1.0000 </r>
       <r>   -3.3188    1.0000 </r>
       <r>   -3.3165    1.0000 </r>
       <r>   -3.3034    1.0000 </r>
       <r>   -0.8341    1.0000 </r>
       <r>   -0.2137    1.0000 </r>
       <r>   -0.1860    1.0000 </r>
       <r>   -0.1222    1.0000 </r>
       <r>    0.1319    1.0000 </r>
       <r>    0.2413    1.0000 </r>
       <r>    0.4133    1.0000 </r>
       <r>    0.4946    1.0000 </r>
       <r>    0.6741    1.0000 </r>
       <r>    0.7492    1.0000 </r>
       <r>    0.9562    1.0000 </r>
       <r>    1.1334    1.0000 </r>
       <r>    1.9021    1.0000 </r>
       <r>    1.9522    1.0000 </r>
       <r>    2.0519    1.0000 </r>
       <r>    2.0613    1.0000 </r>
       <r>    2.1219    1.0000 </r>
       <r>    2.2092    1.0000 </r>
       <r>    2.2473    1.0000 </r>
       <r>    2.2990    1.0000 </r>
       <r>    2.3189    1.0000 </r>
       <r>    2.3865    1.0000 </r>
       <r>    2.4700    1.0000 </r>
       <r>    2.5719    1.0000 </r>
       <r>    4.1572    0.0000 </r>
       <r>    4.4166    0.0000 </r>
       <r>    4.4263    0.0000 </r>
       <r>    4.4594    0.0000 </r>
       <r>    4.6754    0.0000 </r>
       <r>    4.9344    0.0000 </r>
       <r>    5.0151    0.0000 </r>
       <r>    5.2257    0.0000 </r>
       <r>    5.3285    0.0000 </r>
       <r>    5.5186    0.0000 </r>
       <r>    5.5322    0.0000 </r>
       <r>    5.6120    0.0000 </r>
       <r>    5.7653    0.0000 </r>
       <r>    5.8100    0.0000 </r>
       <r>    5.8402    0.0000 </r>
       <r>    6.2492    0.0000 </r>
      </set>
      <set comment="kpoint 12">
       <r>  -24.4198    1.0000 </r>
       <r>  -24.4147    1.0000 </r>
       <r>  -24.3903    1.0000 </r>
       <r>  -24.3896    1.0000 </r>
       <r>  -24.3526    1.0000 </r>
       <r>  -24.3520    1.0000 </r>
       <r>  -24.3486    1.0000 </r>
       <r>  -24.3450    1.0000 </r>
       <r>  -12.4934    1.0000 </r>
       <r>  -12.4838    1.0000 </r>
       <r>  -12.4598    1.0000 </r>
       <r>  -12.4385    1.0000 </r>
       <r>  -10.0232    1.0000 </r>
       <r>  -10.0166    1.0000 </r>
       <r>   -9.9981    1.0000 </r>
       <r>   -9.9576    1.0000 </r>
       <r>   -9.9514    1.0000 </r>
       <r>   -9.8899    1.0000 </r>
       <r>   -9.8801    1.0000 </r>
       <r>   -9.8792    1.0000 </r>
       <r>   -9.8144    1.0000 </r>
       <r>   -9.7865    1.0000 </r>
       <r>   -9.7360    1.0000 </r>
       <r>   -9.7288    1.0000 </r>
       <r>   -9.7008    1.0000 </r>
       <r>   -9.6823    1.0000 </r>
       <r>   -9.6500    1.0000 </r>
       <r>   -9.6500    1.0000 </r>
       <r>   -9.6192    1.0000 </r>
       <r>   -9.6068    1.0000 </r>
       <r>   -9.6040    1.0000 </r>
       <r>   -9.5927    1.0000 </r>
       <r>   -9.5553    1.0000 </r>
       <r>   -9.5196    1.0000 </r>
       <r>   -9.5093    1.0000 </r>
       <r>   -9.5040    1.0000 </r>
       <r>   -4.1860    1.0000 </r>
       <r>   -4.0881    1.0000 </r>
       <r>   -4.0874    1.0000 </r>
       <r>   -4.0106    1.0000 </r>
       <r>   -3.6670    1.0000 </r>
       <r>   -3.6076    1.0000 </r>
       <r>   -3.4790    1.0000 </r>
       <r>   -3.4787    1.0000 </r>
       <r>   -3.3122    1.0000 </r>
       <r>   -3.3108    1.0000 </r>
       <r>   -3.3103    1.0000 </r>
       <r>   -3.2984    1.0000 </r>
       <r>   -0.7625    1.0000 </r>
       <r>   -0.2079    1.0000 </r>
       <r>   -0.1662    1.0000 </r>
       <r>   -0.0924    1.0000 </r>
       <r>    0.1005    1.0000 </r>
       <r>    0.2186    1.0000 </r>
       <r>    0.3839    1.0000 </r>
       <r>    0.4571    1.0000 </r>
       <r>    0.6879    1.0000 </r>
       <r>    0.7480    1.0000 </r>
       <r>    0.9806    1.0000 </r>
       <r>    1.1389    1.0000 </r>
       <r>    1.9115    1.0000 </r>
       <r>    2.0208    1.0000 </r>
       <r>    2.0516    1.0000 </r>
       <r>    2.1181    1.0000 </r>
       <r>    2.1478    1.0000 </r>
       <r>    2.2587    1.0000 </r>
       <r>    2.2836    1.0000 </r>
       <r>    2.3003    1.0000 </r>
       <r>    2.3305    1.0000 </r>
       <r>    2.3859    1.0000 </r>
       <r>    2.4420    1.0000 </r>
       <r>    2.5338    1.0000 </r>
       <r>    4.1368    0.0000 </r>
       <r>    4.3894    0.0000 </r>
       <r>    4.4030    0.0000 </r>
       <r>    4.4169    0.0000 </r>
       <r>    4.6958    0.0000 </r>
       <r>    4.8509    0.0000 </r>
       <r>    5.0330    0.0000 </r>
       <r>    5.1781    0.0000 </r>
       <r>    5.3882    0.0000 </r>
       <r>    5.4848    0.0000 </r>
       <r>    5.5457    0.0000 </r>
       <r>    5.6181    0.0000 </r>
       <r>    5.6653    0.0000 </r>
       <r>    5.8269    0.0000 </r>
       <r>    5.8523    0.0000 </r>
       <r>    6.2179    0.0000 </r>
      </set>
      <set comment="kpoint 13">
       <r>  -24.4179    1.0000 </r>
       <r>  -24.4133    1.0000 </r>
       <r>  -24.3915    1.0000 </r>
       <r>  -24.3909    1.0000 </r>
       <r>  -24.3530    1.0000 </r>
       <r>  -24.3523    1.0000 </r>
       <r>  -24.3484    1.0000 </r>
       <r>  -24.3452    1.0000 </r>
       <r>  -12.4918    1.0000 </r>
       <r>  -12.4829    1.0000 </r>
       <r>  -12.4614    1.0000 </r>
       <r>  -12.4428    1.0000 </r>
       <r>  -10.0279    1.0000 </r>
       <r>  -10.0185    1.0000 </r>
       <r>  -10.0069    1.0000 </r>
       <r>   -9.9532    1.0000 </r>
       <r>   -9.9494    1.0000 </r>
       <r>   -9.8866    1.0000 </r>
       <r>   -9.8796    1.0000 </r>
       <r>   -9.8742    1.0000 </r>
       <r>   -9.8194    1.0000 </r>
       <r>   -9.7955    1.0000 </r>
       <r>   -9.7483    1.0000 </r>
       <r>   -9.7241    1.0000 </r>
       <r>   -9.6910    1.0000 </r>
       <r>   -9.6809    1.0000 </r>
       <r>   -9.6578    1.0000 </r>
       <r>   -9.6524    1.0000 </r>
       <r>   -9.6216    1.0000 </r>
       <r>   -9.6040    1.0000 </r>
       <r>   -9.6037    1.0000 </r>
       <r>   -9.5861    1.0000 </r>
       <r>   -9.5551    1.0000 </r>
       <r>   -9.5157    1.0000 </r>
       <r>   -9.5055    1.0000 </r>
       <r>   -9.4992    1.0000 </r>
       <r>   -4.1691    1.0000 </r>
       <r>   -4.0836    1.0000 </r>
       <r>   -4.0799    1.0000 </r>
       <r>   -4.0139    1.0000 </r>
       <r>   -3.6889    1.0000 </r>
       <r>   -3.6042    1.0000 </r>
       <r>   -3.5183    1.0000 </r>
       <r>   -3.4847    1.0000 </r>
       <r>   -3.3057    1.0000 </r>
       <r>   -3.3041    1.0000 </r>
       <r>   -3.3009    1.0000 </r>
       <r>   -3.2935    1.0000 </r>
       <r>   -0.6901    1.0000 </r>
       <r>   -0.2009    1.0000 </r>
       <r>   -0.1469    1.0000 </r>
       <r>   -0.0625    1.0000 </r>
       <r>    0.0689    1.0000 </r>
       <r>    0.1946    1.0000 </r>
       <r>    0.3531    1.0000 </r>
       <r>    0.4198    1.0000 </r>
       <r>    0.7025    1.0000 </r>
       <r>    0.7499    1.0000 </r>
       <r>    1.0018    1.0000 </r>
       <r>    1.1415    1.0000 </r>
       <r>    1.9204    1.0000 </r>
       <r>    2.0442    1.0000 </r>
       <r>    2.0845    1.0000 </r>
       <r>    2.1741    1.0000 </r>
       <r>    2.1898    1.0000 </r>
       <r>    2.2620    1.0000 </r>
       <r>    2.3107    1.0000 </r>
       <r>    2.3212    1.0000 </r>
       <r>    2.3860    1.0000 </r>
       <r>    2.3894    1.0000 </r>
       <r>    2.4134    1.0000 </r>
       <r>    2.4976    1.0000 </r>
       <r>    4.0721    0.0000 </r>
       <r>    4.3160    0.0000 </r>
[...]
       <r>   -9.8099    1.0000 </r>
       <r>   -9.8099    1.0000 </r>
       <r>   -9.8097    1.0000 </r>
       <r>   -9.8097    1.0000 </r>
       <r>   -9.7801    1.0000 </r>
       <r>   -9.7800    1.0000 </r>
       <r>   -9.6928    1.0000 </r>
       <r>   -9.6928    1.0000 </r>
       <r>   -9.6887    1.0000 </r>
       <r>   -9.6886    1.0000 </r>
       <r>   -9.6074    1.0000 </r>
       <r>   -9.6073    1.0000 </r>
       <r>   -9.5922    1.0000 </r>
       <r>   -9.5922    1.0000 </r>
       <r>   -9.5495    1.0000 </r>
       <r>   -9.5495    1.0000 </r>
       <r>   -9.5256    1.0000 </r>
       <r>   -9.5256    1.0000 </r>
       <r>   -4.2339    1.0000 </r>
       <r>   -4.2338    1.0000 </r>
       <r>   -4.0479    1.0000 </r>
       <r>   -4.0478    1.0000 </r>
       <r>   -3.4881    1.0000 </r>
       <r>   -3.4881    1.0000 </r>
       <r>   -3.4881    1.0000 </r>
       <r>   -3.4881    1.0000 </r>
       <r>   -3.3873    1.0000 </r>
       <r>   -3.3873    1.0000 </r>
       <r>   -3.3376    1.0000 </r>
       <r>   -3.3375    1.0000 </r>
       <r>   -0.7789    1.0000 </r>
       <r>   -0.7788    1.0000 </r>
       <r>   -0.3119    1.0000 </r>
       <r>   -0.3119    1.0000 </r>
       <r>    0.6667    1.0000 </r>
       <r>    0.6668    1.0000 </r>
       <r>    0.6690    1.0000 </r>
       <r>    0.6690    1.0000 </r>
       <r>    0.8058    1.0000 </r>
       <r>    0.8058    1.0000 </r>
       <r>    0.9080    1.0000 </r>
       <r>    0.9081    1.0000 </r>
       <r>    1.4496    1.0000 </r>
       <r>    1.4496    1.0000 </r>
       <r>    1.7490    1.0000 </r>
       <r>    1.7491    1.0000 </r>
       <r>    1.9427    1.0000 </r>
       <r>    1.9427    1.0000 </r>
       <r>    2.3685    1.0000 </r>
       <r>    2.3685    1.0000 </r>
       <r>    2.5862    1.0000 </r>
       <r>    2.5863    1.0000 </r>
       <r>    2.6627    1.0000 </r>
       <r>    2.6627    1.0000 </r>
       <r>    4.0253    0.0000 </r>
       <r>    4.0253    0.0000 </r>
       <r>    4.7703    0.0000 </r>
       <r>    4.7704    0.0000 </r>
       <r>    5.0027    0.0000 </r>
       <r>    5.0027    0.0000 </r>
       <r>    5.1887    0.0000 </r>
       <r>    5.1887    0.0000 </r>
       <r>    5.2000    0.0000 </r>
       <r>    5.2000    0.0000 </r>
       <r>    5.8630    0.0000 </r>
       <r>    5.8642    0.0000 </r>
       <r>    5.8668    0.0000 </r>
       <r>    5.8730    0.0000 </r>
       <r>    5.9383    0.0000 </r>
       <r>    5.9591    0.0000 </r>
      </set>
     </set>
    </set>
   </array>
  </eigenvalues>
  <separator name="orbital magnetization" >
   <v name="MAGDIPOLOUT">      0.00000000      0.00000000      0.00000000</v>
  </separator>
  <dos>
   <i name="efermi">      2.90508067 </i>
   <total>
    <array>
     <dimension dim="1">gridpoints</dimension>
     <dimension dim="2">spin</dimension>
     <field>energy</field>
     <field>total</field>
     <field>integrated</field>
     <set>
      <set comment="spin 1">
       <r>   -25.9721     0.0000     0.0000 </r>
       <r>   -25.8591     0.0000     0.0000 </r>
       <r>   -25.7461     0.0000     0.0000 </r>
       <r>   -25.6330     0.0000     0.0000 </r>
       <r>   -25.5200     0.0000     0.0000 </r>
       <r>   -25.4070     0.0000     0.0000 </r>
       <r>   -25.2940     0.0000     0.0000 </r>
       <r>   -25.1810     0.0000     0.0000 </r>
       <r>   -25.0679     0.0000     0.0000 </r>
       <r>   -24.9549     0.0000     0.0000 </r>
       <r>   -24.8419     0.0000     0.0000 </r>
       <r>   -24.7289     0.0000     0.0000 </r>
       <r>   -24.6158     0.0000     0.0000 </r>
       <r>   -24.5028     0.0000     0.0000 </r>
       <r>   -24.3898    52.8525     5.9735 </r>
       <r>   -24.2768    70.7825    16.0000 </r>
       <r>   -24.1638     0.0000    16.0000 </r>
       <r>   -24.0507     0.0000    16.0000 </r>
       <r>   -23.9377     0.0000    16.0000 </r>
       <r>   -23.8247     0.0000    16.0000 </r>
       <r>   -23.7117     0.0000    16.0000 </r>
       <r>   -23.5986     0.0000    16.0000 </r>
       <r>   -23.4856     0.0000    16.0000 </r>
       <r>   -23.3726     0.0000    16.0000 </r>
       <r>   -23.2596     0.0000    16.0000 </r>
       <r>   -23.1466     0.0000    16.0000 </r>
       <r>   -23.0335     0.0000    16.0000 </r>
       <r>   -22.9205     0.0000    16.0000 </r>
       <r>   -22.8075     0.0000    16.0000 </r>
       <r>   -22.6945     0.0000    16.0000 </r>
       <r>   -22.5814     0.0000    16.0000 </r>
       <r>   -22.4684     0.0000    16.0000 </r>
       <r>   -22.3554     0.0000    16.0000 </r>
       <r>   -22.2424     0.0000    16.0000 </r>
       <r>   -22.1294     0.0000    16.0000 </r>
       <r>   -22.0163     0.0000    16.0000 </r>
       <r>   -21.9033     0.0000    16.0000 </r>
       <r>   -21.7903     0.0000    16.0000 </r>
       <r>   -21.6773     0.0000    16.0000 </r>
       <r>   -21.5642     0.0000    16.0000 </r>
       <r>   -21.4512     0.0000    16.0000 </r>
       <r>   -21.3382     0.0000    16.0000 </r>
       <r>   -21.2252     0.0000    16.0000 </r>
       <r>   -21.1121     0.0000    16.0000 </r>
       <r>   -20.9991     0.0000    16.0000 </r>
       <r>   -20.8861     0.0000    16.0000 </r>
       <r>   -20.7731     0.0000    16.0000 </r>
       <r>   -20.6601     0.0000    16.0000 </r>
       <r>   -20.5470     0.0000    16.0000 </r>
       <r>   -20.4340     0.0000    16.0000 </r>
       <r>   -20.3210     0.0000    16.0000 </r>
       <r>   -20.2080     0.0000    16.0000 </r>
       <r>   -20.0949     0.0000    16.0000 </r>
       <r>   -19.9819     0.0000    16.0000 </r>
       <r>   -19.8689     0.0000    16.0000 </r>
       <r>   -19.7559     0.0000    16.0000 </r>
       <r>   -19.6429     0.0000    16.0000 </r>
       <r>   -19.5298     0.0000    16.0000 </r>
       <r>   -19.4168     0.0000    16.0000 </r>
       <r>   -19.3038     0.0000    16.0000 </r>
       <r>   -19.1908     0.0000    16.0000 </r>
       <r>   -19.0777     0.0000    16.0000 </r>
       <r>   -18.9647     0.0000    16.0000 </r>
       <r>   -18.8517     0.0000    16.0000 </r>
       <r>   -18.7387     0.0000    16.0000 </r>
       <r>   -18.6257     0.0000    16.0000 </r>
       <r>   -18.5126     0.0000    16.0000 </r>
       <r>   -18.3996     0.0000    16.0000 </r>
       <r>   -18.2866     0.0000    16.0000 </r>
       <r>   -18.1736     0.0000    16.0000 </r>
       <r>   -18.0605     0.0000    16.0000 </r>
       <r>   -17.9475     0.0000    16.0000 </r>
       <r>   -17.8345     0.0000    16.0000 </r>
       <r>   -17.7215     0.0000    16.0000 </r>
       <r>   -17.6085     0.0000    16.0000 </r>
       <r>   -17.4954     0.0000    16.0000 </r>
       <r>   -17.3824     0.0000    16.0000 </r>
       <r>   -17.2694     0.0000    16.0000 </r>
       <r>   -17.1564     0.0000    16.0000 </r>
       <r>   -17.0433     0.0000    16.0000 </r>
       <r>   -16.9303     0.0000    16.0000 </r>
       <r>   -16.8173     0.0000    16.0000 </r>
       <r>   -16.7043     0.0000    16.0000 </r>
       <r>   -16.5913     0.0000    16.0000 </r>
       <r>   -16.4782     0.0000    16.0000 </r>
       <r>   -16.3652     0.0000    16.0000 </r>
       <r>   -16.2522     0.0000    16.0000 </r>
       <r>   -16.1392     0.0000    16.0000 </r>
       <r>   -16.0261     0.0000    16.0000 </r>
       <r>   -15.9131     0.0000    16.0000 </r>
       <r>   -15.8001     0.0000    16.0000 </r>
       <r>   -15.6871     0.0000    16.0000 </r>
       <r>   -15.5741     0.0000    16.0000 </r>
       <r>   -15.4610     0.0000    16.0000 </r>
       <r>   -15.3480     0.0000    16.0000 </r>
       <r>   -15.2350     0.0000    16.0000 </r>
       <r>   -15.1220     0.0000    16.0000 </r>
       <r>   -15.0089     0.0000    16.0000 </r>
       <r>   -14.8959     0.0000    16.0000 </r>
       <r>   -14.7829     0.0000    16.0000 </r>
       <r>   -14.6699     0.0000    16.0000 </r>
       <r>   -14.5569     0.0000    16.0000 </r>
       <r>   -14.4438     0.0000    16.0000 </r>
       <r>   -14.3308     0.0000    16.0000 </r>
       <r>   -14.2178     0.0000    16.0000 </r>
       <r>   -14.1048     0.0000    16.0000 </r>
       <r>   -13.9917     0.0000    16.0000 </r>
       <r>   -13.8787     0.0000    16.0000 </r>
       <r>   -13.7657     0.0000    16.0000 </r>
       <r>   -13.6527     0.0000    16.0000 </r>
       <r>   -13.5397     0.0000    16.0000 </r>
       <r>   -13.4266     0.0000    16.0000 </r>
       <r>   -13.3136     0.0000    16.0000 </r>
       <r>   -13.2006     0.0000    16.0000 </r>
       <r>   -13.0876     0.0000    16.0000 </r>
       <r>   -12.9745     0.0000    16.0000 </r>
       <r>   -12.8615     0.0000    16.0000 </r>
       <r>   -12.7485     0.0000    16.0000 </r>
       <r>   -12.6355     0.0000    16.0000 </r>
       <r>   -12.5225     0.0019    16.0002 </r>
       <r>   -12.4094    55.0039    23.8367 </r>
       <r>   -12.2964     0.0000    24.0000 </r>
       <r>   -12.1834     0.0000    24.0000 </r>
       <r>   -12.0704     0.0000    24.0000 </r>
       <r>   -11.9573     0.0000    24.0000 </r>
       <r>   -11.8443     0.0000    24.0000 </r>
       <r>   -11.7313     0.0000    24.0000 </r>
       <r>   -11.6183     0.0000    24.0000 </r>
       <r>   -11.5053     0.0000    24.0000 </r>
       <r>   -11.3922     0.0000    24.0000 </r>
       <r>   -11.2792     0.0000    24.0000 </r>
       <r>   -11.1662     0.0000    24.0000 </r>
       <r>   -11.0532     0.0000    24.0000 </r>
       <r>   -10.9401     0.0000    24.0000 </r>
       <r>   -10.8271     0.0000    24.0000 </r>
       <r>   -10.7141     0.0000    24.0000 </r>
       <r>   -10.6011     0.0000    24.0000 </r>
       <r>   -10.4881     0.0000    24.0000 </r>
       <r>   -10.3750     0.0000    24.0000 </r>
       <r>   -10.2620     0.0000    24.0000 </r>
       <r>   -10.1490     0.0000    24.0000 </r>
       <r>   -10.0360     5.9472    24.6722 </r>
       <r>    -9.9229    54.1765    33.7832 </r>
       <r>    -9.8099    49.0255    41.2610 </r>
       <r>    -9.6969    54.9556    49.4712 </r>
       <r>    -9.5839    80.6104    62.4908 </r>
       <r>    -9.4709    54.1259    71.9974 </r>
       <r>    -9.3578     0.0000    72.0000 </r>
       <r>    -9.2448     0.0000    72.0000 </r>
       <r>    -9.1318     0.0000    72.0000 </r>
       <r>    -9.0188     0.0000    72.0000 </r>
       <r>    -8.9057     0.0000    72.0000 </r>
       <r>    -8.7927     0.0000    72.0000 </r>
       <r>    -8.6797     0.0000    72.0000 </r>
       <r>    -8.5667     0.0000    72.0000 </r>
       <r>    -8.4537     0.0000    72.0000 </r>
       <r>    -8.3406     0.0000    72.0000 </r>
       <r>    -8.2276     0.0000    72.0000 </r>
       <r>    -8.1146     0.0000    72.0000 </r>
       <r>    -8.0016     0.0000    72.0000 </r>
       <r>    -7.8885     0.0000    72.0000 </r>
       <r>    -7.7755     0.0000    72.0000 </r>
       <r>    -7.6625     0.0000    72.0000 </r>
       <r>    -7.5495     0.0000    72.0000 </r>
       <r>    -7.4365     0.0000    72.0000 </r>
       <r>    -7.3234     0.0000    72.0000 </r>
       <r>    -7.2104     0.0000    72.0000 </r>
       <r>    -7.0974     0.0000    72.0000 </r>
       <r>    -6.9844     0.0000    72.0000 </r>
       <r>    -6.8713     0.0000    72.0000 </r>
       <r>    -6.7583     0.0000    72.0000 </r>
       <r>    -6.6453     0.0000    72.0000 </r>
       <r>    -6.5323     0.0000    72.0000 </r>
       <r>    -6.4193     0.0000    72.0000 </r>
       <r>    -6.3062     0.0000    72.0000 </r>
       <r>    -6.1932     0.0000    72.0000 </r>
       <r>    -6.0802     0.0000    72.0000 </r>
       <r>    -5.9672     0.0000    72.0000 </r>
       <r>    -5.8541     0.0000    72.0000 </r>
       <r>    -5.7411     0.0000    72.0000 </r>
       <r>    -5.6281     0.0000    72.0000 </r>
       <r>    -5.5151     0.0000    72.0000 </r>
       <r>    -5.4021     0.0000    72.0000 </r>
       <r>    -5.2890     0.0000    72.0000 </r>
       <r>    -5.1760     0.0000    72.0000 </r>
       <r>    -5.0630     0.0000    72.0000 </r>
       <r>    -4.9500     0.0000    72.0000 </r>
       <r>    -4.8369     0.0000    72.0000 </r>
       <r>    -4.7239     0.0000    72.0000 </r>
       <r>    -4.6109     0.0000    72.0000 </r>
       <r>    -4.4979     0.0000    72.0000 </r>
       <r>    -4.3849     0.0000    72.0000 </r>
       <r>    -4.2718     5.6768    72.6416 </r>
       <r>    -4.1588     7.7194    74.0525 </r>
       <r>    -4.0458    31.5264    77.9432 </r>
       <r>    -3.9328     6.0165    80.0000 </r>
       <r>    -3.8197     0.0000    80.0000 </r>
       <r>    -3.7067     9.1833    81.0379 </r>
       <r>    -3.5937     3.9135    81.6223 </r>
       <r>    -3.4807    32.5977    85.5843 </r>
       <r>    -3.3677    17.3574    88.7818 </r>
       <r>    -3.2546    38.2861    95.3672 </r>
       <r>    -3.1416     3.5391    96.0000 </r>
       <r>    -3.0286     0.0000    96.0000 </r>
       <r>    -2.9156     0.0000    96.0000 </r>
       <r>    -2.8025     0.0000    96.0000 </r>
       <r>    -2.6895     0.0000    96.0000 </r>
       <r>    -2.5765     0.0000    96.0000 </r>
       <r>    -2.4635     0.0000    96.0000 </r>
       <r>    -2.3505     0.0000    96.0000 </r>
       <r>    -2.2374     0.0000    96.0000 </r>
       <r>    -2.1244     0.0000    96.0000 </r>
       <r>    -2.0114     0.0000    96.0000 </r>
       <r>    -1.8984     0.0000    96.0000 </r>
       <r>    -1.7853     0.0000    96.0000 </r>
       <r>    -1.6723     0.0000    96.0000 </r>
       <r>    -1.5593     0.0000    96.0000 </r>
       <r>    -1.4463     0.0000    96.0000 </r>
       <r>    -1.3333     0.0000    96.0000 </r>
       <r>    -1.2202     2.8395    96.3209 </r>
       <r>    -1.1072     1.5308    96.5730 </r>
       <r>    -0.9942     1.0689    96.7608 </r>
       <r>    -0.8812     1.5578    96.9961 </r>
       <r>    -0.7681     1.7893    97.3622 </r>
       <r>    -0.6551     1.5255    97.6324 </r>
       <r>    -0.5421     1.9373    97.8790 </r>
       <r>    -0.4291     1.2827    98.1250 </r>
       <r>    -0.3161     3.0863    98.5888 </r>
       <r>    -0.2030    17.8500   101.4774 </r>
       <r>    -0.0900     8.5583   103.2073 </r>
       <r>     0.0230     3.4601   104.0111 </r>
       <r>     0.1360     8.5872   105.0305 </r>
       <r>     0.2491     5.2954   106.7385 </r>
       <r>     0.3621     6.9693   107.7277 </r>
       <r>     0.4751     8.1550   108.8817 </r>
       <r>     0.5881     9.4621   110.7894 </r>
       <r>     0.7011    13.6057   112.7777 </r>
       <r>     0.8142    20.9852   115.7318 </r>
       <r>     0.9272    10.9874   117.4618 </r>
       <r>     1.0402     5.8973   118.3465 </r>
       <r>     1.1532    13.2444   119.9969 </r>
       <r>     1.2663     0.0000   120.0000 </r>
       <r>     1.3793     0.0000   120.0000 </r>
       <r>     1.4923     2.2443   120.2537 </r>
       <r>     1.6053     9.5563   121.4201 </r>
       <r>     1.7183     4.2586   122.1413 </r>
       <r>     1.8314    11.3115   123.7985 </r>
       <r>     1.9444    15.9566   125.9035 </r>
       <r>     2.0574    11.0913   128.4136 </r>
       <r>     2.1704     9.8143   130.1692 </r>
       <r>     2.2835    16.2224   132.3735 </r>
       <r>     2.3965    18.8740   135.5732 </r>
       <r>     2.5095    18.0694   138.4622 </r>
       <r>     2.6225    19.2772   141.3188 </r>
       <r>     2.7355    12.0283   143.3595 </r>
       <r>     2.8486     3.7149   143.8999 </r>
       <r>     2.9616     0.0000   144.0000 </r>
       <r>     3.0746     0.0000   144.0000 </r>
       <r>     3.1876     0.0000   144.0000 </r>
       <r>     3.3007     0.0000   144.0000 </r>
       <r>     3.4137     0.0000   144.0000 </r>
       <r>     3.5267     0.0000   144.0000 </r>
       <r>     3.6397     0.0000   144.0000 </r>
       <r>     3.7527     0.0359   144.0041 </r>
       <r>     3.8658     7.2440   144.8587 </r>
       <r>     3.9788     3.2903   145.4319 </r>
       <r>     4.0918     4.4625   146.1244 </r>
       <r>     4.2048    11.2841   147.5154 </r>
       <r>     4.3179     2.8810   147.9456 </r>
       <r>     4.4309     5.2172   148.8497 </r>
       <r>     4.5439     7.0544   149.9773 </r>
       <r>     4.6569     8.6431   151.1569 </r>
       <r>     4.7699    16.0178   153.6904 </r>
       <r>     4.8830     7.6306   154.8424 </r>
       <r>     4.9960     5.9851   156.0565 </r>
       <r>     5.1090     6.8732   157.1168 </r>
       <r>     5.2220    17.2778   159.3528 </r>
       <r>     5.3351     9.6900   161.2752 </r>
       <r>     5.4481     8.2939   162.6174 </r>
       <r>     5.5611    13.1745   164.6090 </r>
       <r>     5.6741     6.7584   166.0038 </r>
       <r>     5.7871    10.3287   167.5074 </r>
       <r>     5.9002    11.8382   169.7780 </r>
       <r>     6.0132    11.1030   171.2949 </r>
       <r>     6.1262    14.7779   173.5102 </r>
       <r>     6.2392    13.1073   175.5614 </r>
       <r>     6.3523     1.0531   175.9790 </r>
       <r>     6.4653     0.1770   176.0000 </r>
       <r>     6.5783     0.0000   176.0000 </r>
       <r>     6.6913     0.0000   176.0000 </r>
       <r>     6.8043     0.0000   176.0000 </r>
       <r>     6.9174     0.0000   176.0000 </r>
       <r>     7.0304     0.0000   176.0000 </r>
       <r>     7.1434     0.0000   176.0000 </r>
       <r>     7.2564     0.0000   176.0000 </r>
       <r>     7.3695     0.0000   176.0000 </r>
       <r>     7.4825     0.0000   176.0000 </r>
       <r>     7.5955     0.0000   176.0000 </r>
       <r>     7.7085     0.0000   176.0000 </r>
       <r>     7.8215     0.0000   176.0000 </r>
       <r>     7.9346     0.0000   176.0000 </r>
      </set>
     </set>
    </array>
   </total>
  </dos>
 </calculation>
 <structure name="finalpos" >
  <crystal>
   <varray name="basis" >
    <v>       8.51475043       0.00000000       0.00000000 </v>
    <v>       0.00000000       6.12912108       0.00000000 </v>
    <v>       0.00000000       0.00000000      11.50007007 </v>
   </varray>
   <i name="volume">    600.16492558 </i>
   <varray name="rec_basis" >
    <v>       0.11744325       0.00000000       0.00000000 </v>
    <v>       0.00000000       0.16315553       0.00000000 </v>
    <v>       0.00000000       0.00000000       0.08695599 </v>
   </varray>
  </crystal>
  <varray name="positions" >
   <v>       0.96912869       0.25000000       0.65744685 </v>
   <v>       0.03087131       0.75000002       0.34255315 </v>
   <v>       0.53087131       0.75000002       0.15744679 </v>
   <v>       0.46912869       0.25000000       0.84255319 </v>
   <v>       0.12779142       0.75000002       0.92670149 </v>
   <v>       0.87220858       0.25000000       0.07329849 </v>
   <v>       0.37220858       0.25000000       0.42670157 </v>
   <v>       0.62779142       0.75000002       0.57329847 </v>
   <v>       0.21788408       0.05907299       0.16005661 </v>
   <v>       0.78211592       0.94092700       0.83994337 </v>
   <v>       0.28211592       0.94092700       0.66005663 </v>
   <v>       0.71788408       0.05907299       0.33994337 </v>
   <v>       0.78211592       0.55907300       0.83994337 </v>
   <v>       0.21788408       0.44092700       0.16005661 </v>
   <v>       0.71788408       0.44092700       0.33994337 </v>
   <v>       0.28211592       0.55907300       0.66005663 </v>
   <v>       0.13448918       0.75000002       0.56813223 </v>
   <v>       0.86551080       0.25000000       0.43186777 </v>
   <v>       0.36551082       0.25000000       0.06813217 </v>
   <v>       0.63448920       0.75000002       0.93186781 </v>
   <v>       0.20980438       0.25000000       0.01764095 </v>
   <v>       0.79019561       0.75000002       0.98235906 </v>
   <v>       0.29019561       0.75000002       0.51764087 </v>
   <v>       0.70980439       0.25000000       0.48235905 </v>
  </varray>
 </structure>
</modeling>
