 vasp.5.4.4.18Apr17-6-g9f103f2a35 (build Nov 21 2017 15:30:27) complex          
  
 executed on             LinuxIFC date 2020.09.15  10:49:48
 running on   64 total cores
 distrk:  each k-point on   32 cores,    2 groups
 distr:  one band on NCORES_PER_BAND=   4 cores,    8 groups


--------------------------------------------------------------------------------------------------------


 INCAR:
 POTCAR:   PAW_PBE Ba_sv 06Sep2000                
 POTCAR:   PAW_PBE Si 05Jan2001                   

 ----------------------------------------------------------------------------- 
|                                                                             |
|           W    W    AA    RRRRR   N    N  II  N    N   GGGG   !!!           |
|           W    W   A  A   R    R  NN   N  II  NN   N  G    G  !!!           |
|           W    W  A    A  R    R  N N  N  II  N N  N  G       !!!           |
|           W WW W  AAAAAA  RRRRR   N  N N  II  N  N N  G  GGG   !            |
|           WW  WW  A    A  R   R   N   NN  II  N   NN  G    G                |
|           W    W  A    A  R    R  N    N  II  N    N   GGGG   !!!           |
|                                                                             |
|      You have enabled k-point parallelism (KPAR>1).                         |
|      This developmental code was originally  written by Paul Kent at ORNL,  |
|      and carefully double checked in Vienna.                                |
|      GW as well as linear response parallelism added by Martijn Marsman     |
|      and Georg Kresse.                                                      |
|      Carefully verify results versus KPAR=1.                                |
|      Report problems to Paul Kent and Vienna.                               |
|                                                                             |
 ----------------------------------------------------------------------------- 


 ----------------------------------------------------------------------------- 
|                                                                             |
|  ADVICE TO THIS USER RUNNING 'VASP/VAMP'   (HEAR YOUR MASTER'S VOICE ...):  |
|                                                                             |
|      You have switched on vdW-DFT.                                          |
|      This routine was written and supplied by Jiri Klimes.                  |
|      We recommed that you carefully read and cite the following             |
|      publication                                                            |
|      J. Klimes, D.R. Bowler, A. Michelides                                  |
|        J. Phys.: Cond Matt. 22 022201 (2010)                                |
|      J. Klimes, D.R. Bowler, A. Michelides                                  |
|        Phys. Rev. B. 83, 195131 (2011)                                      |
|      and references therein.                                                |
|                                                                             |
 ----------------------------------------------------------------------------- 

 POTCAR:   PAW_PBE Ba_sv 06Sep2000                
   VRHFIN =Ba: 5s5p6s                                                           
   LEXCH  = PE                                                                  
   EATOM  =   700.2255 eV,   51.4651 Ry                                         
                                                                                
   TITEL  = PAW_PBE Ba_sv 06Sep2000                                             
   LULTRA =        F    use ultrasoft PP ?                                      
   IUNSCR =        1    unscreen: 0-lin 1-nonlin 2-no                           
   RPACOR =    2.400    partial core radius                                     
   POMASS =  137.327; ZVAL   =   10.000    mass and valenz                      
   RCORE  =    2.800    outmost cutoff radius                                   
   RWIGS  =    3.740; RWIGS  =    1.979    wigner-seitz radius (au A)           
   ENMAX  =  187.210; ENMIN  =  140.408 eV                                      
   RCLOC  =    2.516    cutoff for local pot                                    
   LCOR   =        T    correct aug charges                                     
   LPAW   =        T    paw PP                                                  
   EAUG   =  351.165                                                            
   DEXC   =     .000                                                            
   RMAX   =    3.370    core radius for proj-oper                               
   RAUG   =    1.300    factor for augmentation sphere                          
   RDEP   =    2.976    radius for radial grids                                 
   QCUT   =   -3.709; QGAM   =    7.419    optimization parameters              
                                                                                
   Description                                                                  
     l     E      TYP  RCUT    TYP  RCUT                                        
     0   .000     23  2.800                                                     
     0   .000     23  2.800                                                     
     1   .000     23  2.700                                                     
     1  2.000     23  2.700                                                     
     2   .000     23  2.700                                                     
     2   .000     23  2.700                                                     
  local pseudopotential read in
  partial core-charges read in
  atomic valenz-charges read in
  non local Contribution for L=           0  read in
    real space projection operators read in
  non local Contribution for L=           0  read in
    real space projection operators read in
  non local Contribution for L=           1  read in
    real space projection operators read in
  non local Contribution for L=           1  read in
    real space projection operators read in
  non local Contribution for L=           2  read in
    real space projection operators read in
  non local Contribution for L=           2  read in
    real space projection operators read in
    PAW grid and wavefunctions read in
 
   number of l-projection  operators is LMAX  =           6
   number of lm-projection operators is LMMAX =          18
 
 POTCAR:   PAW_PBE Si 05Jan2001                   
   VRHFIN =Si: s2p2                                                             
   LEXCH  = PE                                                                  
   EATOM  =   103.0669 eV,    7.5752 Ry                                         
                                                                                
   TITEL  = PAW_PBE Si 05Jan2001                                                
   LULTRA =        F    use ultrasoft PP ?                                      
   IUNSCR =        1    unscreen: 0-lin 1-nonlin 2-no                           
   RPACOR =    1.500    partial core radius                                     
   POMASS =   28.085; ZVAL   =    4.000    mass and valenz                      
   RCORE  =    1.900    outmost cutoff radius                                   
   RWIGS  =    2.480; RWIGS  =    1.312    wigner-seitz radius (au A)           
   ENMAX  =  245.345; ENMIN  =  184.009 eV                                      
   ICORE  =        2    local potential                                         
   LCOR   =        T    correct aug charges                                     
   LPAW   =        T    paw PP                                                  
   EAUG   =  322.069                                                            
   DEXC   =    -.007                                                            
   RMAX   =    2.944    core radius for proj-oper                               
   RAUG   =    1.300    factor for augmentation sphere                          
   RDEP   =    1.993    radius for radial grids                                 
   QCUT   =   -4.246; QGAM   =    8.493    optimization parameters              
                                                                                
   Description                                                                  
     l     E      TYP  RCUT    TYP  RCUT                                        
     0   .000     23  1.900                                                     
     0   .000     23  1.900                                                     
     1   .000     23  1.900                                                     
     1   .000     23  1.900                                                     
     2   .000      7  1.900                                                     
  local pseudopotential read in
  partial core-charges read in
  atomic valenz-charges read in
  non local Contribution for L=           0  read in
    real space projection operators read in
  non local Contribution for L=           0  read in
    real space projection operators read in
  non local Contribution for L=           1  read in
    real space projection operators read in
  non local Contribution for L=           1  read in
    real space projection operators read in
    PAW grid and wavefunctions read in
 
   number of l-projection  operators is LMAX  =           4
   number of lm-projection operators is LMMAX =           8
 
 Optimization of the real space projectors (new method)

 maximal supplied QI-value         = 13.42
 optimisation between [QCUT,QGAM] = [ 11.40, 22.81] = [ 36.42,145.68] Ry 
 Optimized for a Real-space Cutoff    1.56 Angstroem

   l    n(q)    QCUT    max X(q) W(low)/X(q) W(high)/X(q)  e(spline) 
   0     11    11.404     7.198    0.14E-04    0.26E-04    0.99E-07
   0     11    11.404    15.603    0.29E-04    0.72E-04    0.44E-06
   1     10    11.404     3.746    0.20E-04    0.24E-04    0.43E-07
   1     10    11.404     4.362    0.22E-03    0.97E-04    0.22E-06
   2     10    11.404     5.782    0.83E-04    0.62E-05    0.27E-06
   2     10    11.404    65.505    0.42E-03    0.31E-04    0.12E-05
 Optimization of the real space projectors (new method)

 maximal supplied QI-value         = 19.84
 optimisation between [QCUT,QGAM] = [ 11.31, 22.82] = [ 35.82,145.81] Ry 
 Optimized for a Real-space Cutoff    1.16 Angstroem

   l    n(q)    QCUT    max X(q) W(low)/X(q) W(high)/X(q)  e(spline) 
   0      8    11.310     8.708    0.14E-04    0.11E-04    0.43E-08
   0      8    11.310   106.241    0.27E-03    0.30E-03    0.38E-07
   1      7    11.310     5.901    0.82E-05    0.48E-04    0.19E-07
   1      7    11.310    73.241    0.27E-03    0.27E-03    0.74E-07

 ----------------------------------------------------------------------------- 
|                                                                             |
|  ADVICE TO THIS USER RUNNING 'VASP/VAMP'   (HEAR YOUR MASTER'S VOICE ...):  |
|                                                                             |
|      You enforced a specific xc-type in the INCAR file,                     |
|      a different type was found on the POTCAR file                          |
|          I HOPE YOU KNOW, WHAT YOU ARE  DOING                               |
|                                                                             |
 ----------------------------------------------------------------------------- 

 PAW_PBE Ba_sv 06Sep2000                :
 energy of atom  1       EATOM= -700.2255
 kinetic energy error for atom=    0.0005 (will be added to EATOM!!)
 PAW_PBE Si 05Jan2001                   :
 energy of atom  2       EATOM= -103.0669
 kinetic energy error for atom=    0.0006 (will be added to EATOM!!)
 
 
 POSCAR: ba8 si16                                
  positions in direct lattice
  velocities in cartesian coordinates
 exchange correlation table for  LEXCH =       43
   RHO(1)=    0.500       N(1)  =     2000
   RHO(2)=  100.500       N(2)  =     4000
 


--------------------------------------------------------------------------------------------------------


 ion  position               nearest neighbor table
   1  0.006  0.250  0.705-  21 3.40  16 3.44  11 3.44  17 3.65  17 3.65   5 4.38   5 4.38   7 4.61

   2  0.380  0.750  0.295-  22 3.40  12 3.44  15 3.44  18 3.65  18 3.65   6 4.38   6 4.38   8 4.61

   3  0.182  0.750  0.186-  20 3.33   9 3.44  14 3.44  12 3.54  15 3.54  22 3.55  19 3.64  19 3.64
                            23 3.75   5 4.29   7 4.38   7 4.38
   4  0.204  0.250  0.814-  19 3.33  13 3.44  10 3.44  16 3.54  11 3.54  21 3.55  20 3.64  20 3.64
                            24 3.75   6 4.29   8 4.38   8 4.38
   5  0.060  0.750  0.917-   9 3.44  14 3.44  21 3.45  21 3.45  11 3.48  16 3.48  17 3.74   3 4.29
                             1 4.38   1 4.38
   6  0.326  0.250  0.083-  13 3.44  10 3.44  22 3.45  22 3.45  15 3.48  12 3.48  18 3.74   4 4.29
                             2 4.38   2 4.38
   7  0.128  0.250  0.398-  14 3.44   9 3.44  23 3.53  23 3.53  15 3.70  12 3.70  19 3.71  16 3.74
                            11 3.74  24 3.76   3 4.38   3 4.38   1 4.61
   8  0.258  0.750  0.602-  10 3.44  13 3.44  24 3.53  24 3.53  11 3.70  16 3.70  20 3.71  12 3.74
                            15 3.74  23 3.76   4 4.38   4 4.38   2 4.61
   9  0.073  0.072  0.144-  14 2.41  21 2.44  19 2.45   5 3.44   3 3.44   7 3.44
  10  0.313  0.928  0.856-  13 2.41  22 2.44  20 2.45   6 3.44   4 3.44   8 3.44
  11  0.115  0.929  0.660-  16 2.43  23 2.45  17 2.45   1 3.44   5 3.48   4 3.54   8 3.70   7 3.74

  12  0.271  0.071  0.340-  15 2.43  24 2.45  18 2.45   2 3.44   6 3.48   3 3.54   7 3.70   8 3.74

  13  0.313  0.572  0.856-  10 2.41  22 2.44  20 2.45   6 3.44   4 3.44   8 3.44
  14  0.073  0.428  0.144-   9 2.41  21 2.44  19 2.45   5 3.44   3 3.44   7 3.44
  15  0.271  0.429  0.340-  12 2.43  24 2.45  18 2.45   2 3.44   6 3.48   3 3.54   7 3.70   8 3.74

  16  0.115  0.571  0.660-  11 2.43  23 2.45  17 2.45   1 3.44   5 3.48   4 3.54   8 3.70   7 3.74

  17  0.031  0.750  0.600-  23 2.44  11 2.45  16 2.45   1 3.65   1 3.65   5 3.74
  18  0.355  0.250  0.400-  24 2.44  15 2.45  12 2.45   2 3.65   2 3.65   6 3.74
  19  0.157  0.250  0.084-  21 2.43  14 2.45   9 2.45   4 3.33   3 3.64   3 3.64   7 3.71
  20  0.229  0.750  0.916-  22 2.43  10 2.45  13 2.45   3 3.33   4 3.64   4 3.64   8 3.71
  21  0.074  0.250  0.961-  19 2.43  14 2.44   9 2.44   1 3.40   5 3.45   5 3.45   4 3.55
  22  0.311  0.750  0.039-  20 2.43  10 2.44  13 2.44   2 3.40   6 3.45   6 3.45   3 3.55
  23  0.113  0.750  0.477-  17 2.44  11 2.45  16 2.45   7 3.53   7 3.53   3 3.75   8 3.76
  24  0.272  0.250  0.523-  18 2.44  15 2.45  12 2.45   8 3.53   8 3.53   4 3.75   7 3.76
 
  LATTYP: Found a simple orthorhombic cell.
 ALAT       =     6.7778496742
 B/A-ratio  =     1.7117734747
 C/A-ratio  =     3.5423429602
  
  Lattice vectors:
  
 A1 = (   0.0000000000,   6.7778496742,   0.0000000000)
 A2 = (   0.0000000000,   0.0000000000, -11.6021432877)
 A3 = ( -24.0094680786,   0.0000000000,   0.0000000000)


Analysis of symmetry for initial positions (statically):
=====================================================================
 Subroutine PRICEL returns:
 Original cell was already a primitive cell.
 

 Routine SETGRP: Setting up the symmetry group for a 
 simple orthorhombic supercell.


 Subroutine GETGRP returns: Found  4 space group operations
 (whereof  1 operations were pure point group operations)
 out of a pool of  8 trial point group operations.


The static configuration has the point symmetry C_1 .
 The point group associated with its full space group is C_2h.


Analysis of symmetry for dynamics (positions and initial velocities):
=====================================================================
 Subroutine PRICEL returns:
 Original cell was already a primitive cell.
 

 Routine SETGRP: Setting up the symmetry group for a 
 simple orthorhombic supercell.


 Subroutine GETGRP returns: Found  4 space group operations
 (whereof  1 operations were pure point group operations)
 out of a pool of  8 trial point group operations.


The dynamic configuration has the point symmetry C_1 .
 The point group associated with its full space group is C_2h.


Analysis of constrained symmetry for selective dynamics:
=====================================================================
 Subroutine PRICEL returns:
 Original cell was already a primitive cell.
 

 Routine SETGRP: Setting up the symmetry group for a 
 simple orthorhombic supercell.


 Subroutine GETGRP returns: Found  4 space group operations
 (whereof  1 operations were pure point group operations)
 out of a pool of  8 trial point group operations.


The constrained configuration has the point symmetry C_1 .
 The point group associated with its full space group is C_2h.


 Subroutine INISYM returns: Found  4 space group operations
 (whereof  1 operations are pure point group operations),
 and found     1 'primitive' translations

 
 
 KPOINTS: k-density: 8.0                          

Automatic generation of k-mesh.
Space group operators:
 irot       det(A)        alpha          n_x          n_y          n_z        tau_x        tau_y        tau_z
    1     1.000000     0.000000     1.000000     0.000000     0.000000     0.000000     0.000000     0.000000
    2    -1.000000     0.000000     1.000000     0.000000     0.000000    -0.614341     0.000000     0.000000
    3     1.000000   180.000000     0.000000     1.000000     0.000000    -0.614341     0.500000     0.000000
    4    -1.000000   180.000000     0.000000     1.000000     0.000000     0.000000     0.500000     0.000000
 
 Subroutine IBZKPT returns following result:
 ===========================================
 
 Found     15 irreducible k-points:
 
 Following reciprocal coordinates:
            Coordinates               Weight
  0.000000  0.000000  0.000000      1.000000
  0.000000  0.125000  0.000000      2.000000
  0.000000  0.250000  0.000000      2.000000
  0.000000  0.375000  0.000000      2.000000
  0.000000  0.500000  0.000000      1.000000
  0.000000  0.000000  0.200000      2.000000
  0.000000  0.125000  0.200000      4.000000
  0.000000  0.250000  0.200000      4.000000
  0.000000  0.375000  0.200000      4.000000
  0.000000  0.500000  0.200000      2.000000
  0.000000  0.000000  0.400000      2.000000
  0.000000  0.125000  0.400000      4.000000
  0.000000  0.250000  0.400000      4.000000
  0.000000  0.375000  0.400000      4.000000
  0.000000  0.500000  0.400000      2.000000
 
 Following cartesian coordinates:
            Coordinates               Weight
  0.000000  0.000000  0.000000      1.000000
  0.000000  0.018442  0.000000      2.000000
  0.000000  0.036885  0.000000      2.000000
  0.000000  0.055327  0.000000      2.000000
  0.000000  0.073770  0.000000      1.000000
  0.000000  0.000000  0.017238      2.000000
  0.000000  0.018442  0.017238      4.000000
  0.000000  0.036885  0.017238      4.000000
  0.000000  0.055327  0.017238      4.000000
  0.000000  0.073770  0.017238      2.000000
  0.000000  0.000000  0.034476      2.000000
  0.000000  0.018442  0.034476      4.000000
  0.000000  0.036885  0.034476      4.000000
  0.000000  0.055327  0.034476      4.000000
  0.000000  0.073770  0.034476      2.000000
 
 TETIRR: Found    108 inequivalent tetrahedra from      240


--------------------------------------------------------------------------------------------------------




 Dimension of arrays:
   k-points           NKPTS =     15   k-points in BZ     NKDIM =     15   number of bands    NBANDS=     88
   number of dos      NEDOS =    301   number of ions     NIONS =     24
   non local maximal  LDIM  =      6   non local SUM 2l+1 LMDIM =     18
   total plane-waves  NPLWV = 358400
   max r-space proj   IRMAX =   3093   max aug-charges    IRDMAX=  12081
   dimension x,y,z NGX =   140 NGY =   40 NGZ =   64
   dimension x,y,z NGXF=   280 NGYF=   80 NGZF=  128
   support grid    NGXF=   280 NGYF=   80 NGZF=  128
   ions per type =               8  16
   NGX,Y,Z   is equivalent  to a cutoff of   9.69,  9.81,  9.17 a.u.
   NGXF,Y,Z  is equivalent  to a cutoff of  19.39, 19.62, 18.34 a.u.

 SYSTEM =  unknown system                          
 POSCAR =  ba8 si16                                

 Startparameter for this run:
   NWRITE =      2    write-flag & timer
   PREC   = normal    normal or accurate (medium, high low for compatibility)
   ISTART =      0    job   : 0-new  1-cont  2-samecut
   ICHARG =      2    charge: 1-file 2-atom 10-const
   ISPIN  =      1    spin polarized calculation?
   LNONCOLLINEAR =      F non collinear calculations
   LSORBIT =      F    spin-orbit coupling
   INIWAV =      1    electr: 0-lowe 1-rand  2-diag
   LASPH  =      T    aspherical Exc in radial PAW
   METAGGA=      F    non-selfconsistent MetaGGA calc.

 Electronic Relaxation 1
   ENCUT  =  500.0 eV  36.75 Ry    6.06 a.u.  43.77 12.36 21.15*2*pi/ulx,y,z
   ENINI  =  500.0     initial cutoff
   ENAUG  =  351.2 eV  augmentation charge cutoff
   NELM   =    100;   NELMIN=  2; NELMDL= -5     # of ELM steps 
   EDIFF  = 0.1E-05   stopping-criterion for ELM
   LREAL  =      T    real-space projection
   NLSPLINE    = F    spline interpolate recip. space projectors
   LCOMPAT=      F    compatible to vasp.4.4
   GGA_COMPAT  = T    GGA compatible to vasp.4.4-vasp.4.6
   LMAXPAW     = -100 max onsite density
   LMAXMIX     =    2 max onsite mixed and CHGCAR
   VOSKOWN=      0    Vosko Wilk Nusair interpolation
   ROPT   =   -0.00050  -0.00050
 Ionic relaxation
   EDIFFG = -.1E-02   stopping-criterion for IOM
   NSW    =      0    number of steps for IOM
   NBLOCK =      1;   KBLOCK =      1    inner block; outer block 
   IBRION =     -1    ionic relax: 0-MD 1-quasi-New 2-CG
   NFREE  =      0    steps in history (QN), initial steepest desc. (CG)
   ISIF   =      2    stress and relaxation
   IWAVPR =     10    prediction:  0-non 1-charg 2-wave 3-comb
   ISYM   =      2    0-nonsym 1-usesym 2-fastsym
   LCORR  =      T    Harris-Foulkes like correction to forces

   POTIM  = 0.3000    time-step for ionic-motion
   TEIN   =    0.0    initial temperature
   TEBEG  =    0.0;   TEEND  =   0.0 temperature during run
   SMASS  =  -3.00    Nose mass-parameter (am)
   estimated Nose-frequenzy (Omega)   =  0.10E-29 period in steps =****** mass=  -0.132E-25a.u.
   SCALEE = 1.0000    scale energy and forces
   NPACO  =    256;   APACO  = 16.0  distance and # of slots for P.C.
   PSTRESS=    0.0 pullay stress

  Mass of Ions in am
   POMASS = 137.33 28.09
  Ionic Valenz
   ZVAL   =  10.00  4.00
  Atomic Wigner-Seitz radii
   RWIGS  =  -1.00 -1.00
  virtual crystal weights 
   VCA    =   1.00  1.00
   NELECT =     144.0000    total number of electrons
   NUPDOWN=      -1.0000    fix difference up-down

 DOS related values:
   EMIN   =  10.00;   EMAX   =-10.00  energy-range for DOS
   EFERMI =   0.00
   ISMEAR =    -5;   SIGMA  =   0.01  broadening in eV -4-tet -1-fermi 0-gaus

 Electronic relaxation 2 (details)
   IALGO  =     38    algorithm
   LDIAG  =      T    sub-space diagonalisation (order eigenvalues)
   LSUBROT=      F    optimize rotation matrix (better conditioning)
   TURBO    =      0    0=normal 1=particle mesh
   IRESTART =      0    0=no restart 2=restart with 2 vectors
   NREBOOT  =      0    no. of reboots
   NMIN     =      0    reboot dimension
   EREF     =   0.00    reference energy to select bands
   IMIX   =      4    mixing-type and parameters
     AMIX     =   0.40;   BMIX     =  1.00
     AMIX_MAG =   1.60;   BMIX_MAG =  1.00
     AMIN     =   0.10
     WC   =   100.;   INIMIX=   1;  MIXPRE=   1;  MAXMIX= -45

 Intra band minimization:
   WEIMIN = 0.0000     energy-eigenvalue tresh-hold
   EBREAK =  0.28E-08  absolut break condition
   DEPER  =   0.30     relativ break condition  

   TIME   =   0.40     timestep for ELM

  volume/ion in A,a.u.               =      78.67       530.88
  Fermi-wavevector in a.u.,A,eV,Ry     =   0.694264  1.311969  6.558046  0.482003
  Thomas-Fermi vector in A             =   1.776709
 
 Write flags
   LWAVE        =      T    write WAVECAR
   LDOWNSAMPLE  =      F    k-point downsampling of WAVECAR
   LCHARG       =      T    write CHGCAR
   LVTOT        =      F    write LOCPOT, total local potential
   LVHAR        =      F    write LOCPOT, Hartree potential only
   LELF         =      F    write electronic localiz. function (ELF)
   LORBIT       =      0    0 simple, 1 ext, 2 COOP (PROOUT), +10 PAW based schemes


 Dipole corrections
   LMONO  =      F    monopole corrections only (constant potential shift)
   LDIPOL =      F    correct potential (dipole corrections)
   IDIPOL =      0    1-x, 2-y, 3-z, 4-all directions 
   EPSILON=  1.0000000 bulk dielectric constant

 Exchange correlation treatment:
   GGA     =    MK    GGA type
   LEXCH   =    43    internal setting for exchange type
   VOSKOWN=      0    Vosko Wilk Nusair interpolation
   LHFCALC =     F    Hartree Fock is set to
   LHFONE  =     F    Hartree Fock one center treatment
   AEXX    =    0.0000 exact exchange contribution

 vdW DFT:
   LUSE_VDW   =     T    switch on vdW DFT
   Zab_VDW    =******    correlation parameter
   PARAM1     =0.1234
   PARAM2     =0.7114
   PARAM3     =0.0000
   -- rVV10 --
   BPARAM     = 6.3000
   CPARAM     = 0.0093

 Linear response parameters
   LEPSILON=     F    determine dielectric tensor
   LRPA    =     F    only Hartree local field effects (RPA)
   LNABLA  =     F    use nabla operator in PAW spheres
   LVEL    =     F    velocity operator in full k-point grid
   LINTERFAST=   F  fast interpolation
   KINTER  =     0    interpolate to denser k-point grid
   CSHIFT  =0.1000    complex shift for real part using Kramers Kronig
   OMEGAMAX=  -1.0    maximum frequency
   DEG_THRESHOLD= 0.2000000E-02 threshold for treating states as degnerate
   RTIME   =   -0.100 relaxation time in fs
  (WPLASMAI=    0.000 imaginary part of plasma frequency in eV, 0.658/RTIME)
   DFIELD  = 0.0000000 0.0000000 0.0000000 field for delta impulse in time
 
 Orbital magnetization related:
   ORBITALMAG=     F  switch on orbital magnetization
   LCHIMAG   =     F  perturbation theory with respect to B field
   DQ        =  0.001000  dq finite difference perturbation B field
   LLRAUG    =     F  two centre corrections for induced B field



--------------------------------------------------------------------------------------------------------


 Static calculation
 charge density and potential will be updated during run
 non-spin polarized calculation
 Variant of blocked Davidson
 Davidson routine will perform the subspace rotation
 perform sub-space diagonalisation
    after iterative eigenvector-optimisation
 modified Broyden-mixing scheme, WC =      100.0
 initial mixing is a Kerker type mixing with AMIX =  0.4000 and BMIX =      1.0000
 Hartree-type preconditioning will be used
 using additional bands           16
 real space projection scheme for non local part
 use partial core corrections
 calculate Harris-corrections to forces 
   (improved forces if not selfconsistent)
 use gradient corrections 
 use of overlap-Matrix (Vanderbilt PP)
 Fermi weights with tetrahedron method with Bloechl corrections


--------------------------------------------------------------------------------------------------------


  energy-cutoff  :      500.00
  volume of cell :     1888.05
      direct lattice vectors                 reciprocal lattice vectors
    24.009468079  0.000000000  0.000000000     0.041650236  0.000000000  0.000000000
     0.000000000  6.777849674  0.000000000     0.000000000  0.147539419  0.000000000
     0.000000000  0.000000000 11.602143288     0.000000000  0.000000000  0.086190971

  length of vectors
    24.009468079  6.777849674 11.602143288     0.041650236  0.147539419  0.086190971


 
 k-points in units of 2pi/SCALE and weight: k-density: 8.0                          
   0.00000000  0.00000000  0.00000000       0.025
   0.00000000  0.01844243  0.00000000       0.050
   0.00000000  0.03688485  0.00000000       0.050
   0.00000000  0.05532728  0.00000000       0.050
   0.00000000  0.07376971  0.00000000       0.025
   0.00000000  0.00000000  0.01723819       0.050
   0.00000000  0.01844243  0.01723819       0.100
   0.00000000  0.03688485  0.01723819       0.100
   0.00000000  0.05532728  0.01723819       0.100
   0.00000000  0.07376971  0.01723819       0.050
   0.00000000  0.00000000  0.03447639       0.050
   0.00000000  0.01844243  0.03447639       0.100
   0.00000000  0.03688485  0.03447639       0.100
   0.00000000  0.05532728  0.03447639       0.100
   0.00000000  0.07376971  0.03447639       0.050
 
 k-points in reciprocal lattice and weights: k-density: 8.0                          
   0.00000000  0.00000000  0.00000000       0.025
   0.00000000  0.12500000  0.00000000       0.050
   0.00000000  0.25000000  0.00000000       0.050
   0.00000000  0.37500000  0.00000000       0.050
   0.00000000  0.50000000  0.00000000       0.025
   0.00000000  0.00000000  0.20000000       0.050
   0.00000000  0.12500000  0.20000000       0.100
   0.00000000  0.25000000  0.20000000       0.100
   0.00000000  0.37500000  0.20000000       0.100
   0.00000000  0.50000000  0.20000000       0.050
   0.00000000  0.00000000  0.40000000       0.050
   0.00000000  0.12500000  0.40000000       0.100
   0.00000000  0.25000000  0.40000000       0.100
   0.00000000  0.37500000  0.40000000       0.100
   0.00000000  0.50000000  0.40000000       0.050
 
 position of ions in fractional coordinates (direct lattice) 
   0.00569361  0.25000000  0.70504553
   0.37996541  0.75000002  0.29495447
   0.18192962  0.75000002  0.18618888
   0.20372941  0.25000000  0.81381110
   0.05978014  0.75000002  0.91661319
   0.32587889  0.25000000  0.08338679
   0.12784309  0.25000000  0.39812277
   0.25781593  0.75000002  0.60187727
   0.07289913  0.07206299  0.14441728
   0.31275989  0.92793700  0.85558270
   0.11472410  0.92923657  0.65950585
   0.27093493  0.07076342  0.34049415
   0.31275989  0.57206300  0.85558270
   0.07289913  0.42793700  0.14441728
   0.27093493  0.42923657  0.34049415
   0.11472410  0.57076343  0.65950585
   0.03110981  0.75000002  0.60001917
   0.35454921  0.25000000  0.39998082
   0.15651343  0.25000000  0.08353735
   0.22914561  0.75000002  0.91646263
   0.07418398  0.25000000  0.96149289
   0.31147505  0.75000002  0.03850712
   0.11343925  0.75000002  0.47661208
   0.27221977  0.25000000  0.52338784
 
 position of ions in cartesian coordinates  (Angst):
   0.13670066  1.69446242  8.18003931
   9.12276745  5.08338737  3.42210398
   4.36803341  5.08338737  2.16019001
   4.89143467  1.69446242  9.44195304
   1.43528938  5.08338737 10.63467755
   7.82417870  1.69446242  0.96746550
   3.06944466  1.69446242  4.61907746
   6.19002342  5.08338737  6.98306630
   1.75026941  0.48843211  1.67554999
   7.50919867  6.28941750  9.92659306
   2.75446463  6.29822577  7.65168132
   6.50500345  0.47962384  3.95046197
   7.50919867  3.87735701  9.92659306
   1.75026941  2.90049267  1.67554999
   6.50500345  2.90930094  3.95046197
   2.75446463  3.86854874  7.65168132
   0.74692994  5.08338737  6.96150844
   8.51253796  1.69446242  4.64063484
   3.75780416  1.69446242  0.96921234
   5.50166416  5.08338737 10.63293071
   1.78111780  1.69446242 11.15537833
   7.47835016  5.08338737  0.44676514
   2.72361612  5.08338737  5.52972162
   6.53585196  1.69446242  6.07242071
 


--------------------------------------------------------------------------------------------------------


 k-point  1 :   0.0000 0.0000 0.0000  plane waves:   47989
 k-point  2 :   0.0000 0.1250 0.0000  plane waves:   47929
 k-point  3 :   0.0000 0.2500 0.0000  plane waves:   47901
 k-point  4 :   0.0000 0.3750 0.0000  plane waves:   47910
 k-point  5 :   0.0000 0.5000 0.0000  plane waves:   47868
 k-point  6 :   0.0000 0.0000 0.2000  plane waves:   48006
 k-point  7 :   0.0000 0.1250 0.2000  plane waves:   47967
 k-point  8 :   0.0000 0.2500 0.2000  plane waves:   47907
 k-point  9 :   0.0000 0.3750 0.2000  plane waves:   47884
 k-point 10 :   0.0000 0.5000 0.2000  plane waves:   47884
 k-point 11 :   0.0000 0.0000 0.4000  plane waves:   47922
 k-point 12 :   0.0000 0.1250 0.4000  plane waves:   47954
 k-point 13 :   0.0000 0.2500 0.4000  plane waves:   47967
 k-point 14 :   0.0000 0.3750 0.4000  plane waves:   47928
 k-point 15 :   0.0000 0.5000 0.4000  plane waves:   47890

 maximum and minimum number of plane-waves per node :     12077    11868

 maximum number of plane-waves:     48006
 maximum index in each direction: 
   IXMAX=   43   IYMAX=   12   IZMAX=   21
   IXMIN=  -43   IYMIN=  -12   IZMIN=  -21


 real space projection operators:
  total allocation   :       4531.45 KBytes
  max/ min on nodes  :       1136.03       1126.38


 parallel 3D FFT for wavefunctions:
    minimum data exchange during FFTs selected (reduces bandwidth)
 parallel 3D FFT for charge:
    minimum data exchange during FFTs selected (reduces bandwidth)


 total amount of memory used by VASP MPI-rank0    79355. kBytes
=======================================================================

   base      :      30000. kBytes
   nonlr-proj:       2649. kBytes
   fftplans  :       5898. kBytes
   grid      :       8824. kBytes
   one-center:         93. kBytes
   wavefun   :      31891. kBytes
 
     INWAV:  cpu time    0.0000: real time    0.0000
 Broyden mixing: mesh for mixing (old mesh)
   NGX = 87   NGY = 25   NGZ = 43
  (NGX  =280   NGY  = 80   NGZ  =128)
  gives a total of  93525 points

 initial charge density was supplied:
 charge density of overlapping atoms calculated
 number of electron     144.0000000 magnetization 
 keeping initial charge density in first step


--------------------------------------------------------------------------------------------------------


 Maximum index for non-local projection operator          752
 Maximum index for augmentation-charges          601 (set IRDMAX)


--------------------------------------------------------------------------------------------------------


 First call to EWALD:  gamma=   0.143
 Maximum number of real-space cells 2x 5x 3
 Maximum number of reciprocal cells 5x 2x 3

    FEWALD:  cpu time    0.0135: real time    0.0135


--------------------------------------- Iteration      1(   1)  ---------------------------------------


    POTLOK:  cpu time13831.4416: real time13864.1401
    SETDIJ:  cpu time    0.0032: real time    0.0300
     EDDAV:  cpu time    2.9501: real time    3.2657
 BZINTS: Fermi energy:  6.827135;144.000000 electrons
         Band energy:-475.693355;  BLOECHL correction: -0.029120
       DOS:  cpu time    0.0123: real time    0.0254
    --------------------------------------------
      LOOP:  cpu time13834.4071: real time13867.4612

 eigenvalue-minimisations  :  2768
 total energy-change (2. order) : 0.1194884E+04  (-0.4769201E+04)
 number of electron     144.0000000 magnetization 
 augmentation part      144.0000000 magnetization 

 Free energy of the ion-electron system (eV)
  ---------------------------------------------------
  alpha Z        PSCENC =       170.45750602
  Ewald energy   TEWEN  =     11810.33034231
  -Hartree energ DENC   =    -17926.95235327
  -exchange      EXHF   =         0.00000000
  -V(xc)+E(xc)   XCENC  =        37.36788461
  PAW double counting   =      3696.57165193    -3386.34934349
  entropy T*S    EENTRO =         0.00000000
  eigenvalues    EBANDS =      -475.69335533
  atomic energy  EATOM  =      7269.15145414
  Solvation  Ediel_sol  =         0.00000000
  ---------------------------------------------------
  free energy    TOTEN  =      1194.88378692 eV

  energy without entropy =     1194.88378692  energy(sigma->0) =     1194.88378692


--------------------------------------------------------------------------------------------------------




--------------------------------------- Iteration      1(   2)  ---------------------------------------


     EDDAV:  cpu time    3.7018: real time    3.7585
 BZINTS: Fermi energy: -2.006032;144.000000 electrons
         Band energy:***********;  BLOECHL correction:  0.000000
       DOS:  cpu time    0.0026: real time    0.0026
    --------------------------------------------
      LOOP:  cpu time    3.7044: real time    3.7611

 eigenvalue-minimisations  :  3848
 total energy-change (2. order) :-0.1118933E+04  (-0.1090372E+04)
 number of electron     144.0000000 magnetization 
 augmentation part      144.0000000 magnetization 

 Free energy of the ion-electron system (eV)
  ---------------------------------------------------
  alpha Z        PSCENC =       170.45750602
  Ewald energy   TEWEN  =     11810.33034231
  -Hartree energ DENC   =    -17926.95235327
  -exchange      EXHF   =         0.00000000
  -V(xc)+E(xc)   XCENC  =        37.36788461
  PAW double counting   =      3696.57165193    -3386.34934349
  entropy T*S    EENTRO =         0.00000000
  eigenvalues    EBANDS =     -1594.62653419
  atomic energy  EATOM  =      7269.15145414
  Solvation  Ediel_sol  =         0.00000000
  ---------------------------------------------------
  free energy    TOTEN  =        75.95060806 eV

  energy without entropy =       75.95060806  energy(sigma->0) =       75.95060806


--------------------------------------------------------------------------------------------------------




--------------------------------------- Iteration      1(   3)  ---------------------------------------


     EDDAV:  cpu time    3.3262: real time    3.3613
 BZINTS: Fermi energy: -3.288917;144.000000 electrons
         Band energy:***********;  BLOECHL correction:  0.000000
       DOS:  cpu time    0.0025: real time    0.0025
    --------------------------------------------
      LOOP:  cpu time    3.3287: real time    3.3638

 eigenvalue-minimisations  :  3232
 total energy-change (2. order) :-0.1693746E+03  (-0.1686806E+03)
 number of electron     144.0000000 magnetization 
 augmentation part      144.0000000 magnetization 

 Free energy of the ion-electron system (eV)
  ---------------------------------------------------
  alpha Z        PSCENC =       170.45750602
  Ewald energy   TEWEN  =     11810.33034231
  -Hartree energ DENC   =    -17926.95235327
  -exchange      EXHF   =         0.00000000
  -V(xc)+E(xc)   XCENC  =        37.36788461
  PAW double counting   =      3696.57165193    -3386.34934349
  entropy T*S    EENTRO =         0.00000000
  eigenvalues    EBANDS =     -1764.00109749
  atomic energy  EATOM  =      7269.15145414
  Solvation  Ediel_sol  =         0.00000000
  ---------------------------------------------------
  free energy    TOTEN  =       -93.42395523 eV

  energy without entropy =      -93.42395523  energy(sigma->0) =      -93.42395523


--------------------------------------------------------------------------------------------------------




--------------------------------------- Iteration      1(   4)  ---------------------------------------


     EDDAV:  cpu time    3.6075: real time    3.6258
 BZINTS: Fermi energy: -3.388464;144.000000 electrons
         Band energy:***********;  BLOECHL correction:  0.000000
       DOS:  cpu time    0.0022: real time    0.0022
    --------------------------------------------
      LOOP:  cpu time    3.6097: real time    3.6281

 eigenvalue-minimisations  :  3744
 total energy-change (2. order) :-0.6000352E+01  (-0.5983715E+01)
 number of electron     144.0000000 magnetization 
 augmentation part      144.0000000 magnetization 

 Free energy of the ion-electron system (eV)
  ---------------------------------------------------
  alpha Z        PSCENC =       170.45750602
  Ewald energy   TEWEN  =     11810.33034231
  -Hartree energ DENC   =    -17926.95235327
  -exchange      EXHF   =         0.00000000
  -V(xc)+E(xc)   XCENC  =        37.36788461
  PAW double counting   =      3696.57165193    -3386.34934349
  entropy T*S    EENTRO =         0.00000000
  eigenvalues    EBANDS =     -1770.00144921
  atomic energy  EATOM  =      7269.15145414
  Solvation  Ediel_sol  =         0.00000000
  ---------------------------------------------------
  free energy    TOTEN  =       -99.42430696 eV

  energy without entropy =      -99.42430696  energy(sigma->0) =      -99.42430696


--------------------------------------------------------------------------------------------------------




--------------------------------------- Iteration      1(   5)  ---------------------------------------


     EDDAV:  cpu time    3.9998: real time    4.0204
 BZINTS: Fermi energy: -3.366651;144.000000 electrons
         Band energy:***********;  BLOECHL correction:  0.000000
       DOS:  cpu time    0.0026: real time    0.0026
    CHARGE:  cpu time    0.1830: real time    0.1965
    MIXING:  cpu time    0.0077: real time    0.0080
    --------------------------------------------
      LOOP:  cpu time    4.1931: real time    4.2275

 eigenvalue-minimisations  :  4160
 total energy-change (2. order) :-0.2749497E+00  (-0.2748637E+00)
 number of electron     143.9999992 magnetization 
 augmentation part      -17.6587117 magnetization 

 Broyden mixing:
  rms(total) = 0.90553E+00    rms(broyden)= 0.90552E+00
  rms(prec ) = 0.11818E+01
  weight for this iteration     100.00

 Free energy of the ion-electron system (eV)
  ---------------------------------------------------
  alpha Z        PSCENC =       170.45750602
  Ewald energy   TEWEN  =     11810.33034231
  -Hartree energ DENC   =    -17926.95235327
  -exchange      EXHF   =         0.00000000
  -V(xc)+E(xc)   XCENC  =        37.36788461
  PAW double counting   =      3696.57165193    -3386.34934349
  entropy T*S    EENTRO =         0.00000000
  eigenvalues    EBANDS =     -1770.27639896
  atomic energy  EATOM  =      7269.15145414
  Solvation  Ediel_sol  =         0.00000000
  ---------------------------------------------------
  free energy    TOTEN  =       -99.69925670 eV

  energy without entropy =      -99.69925670  energy(sigma->0) =      -99.69925670


--------------------------------------------------------------------------------------------------------




--------------------------------------- Iteration      1(   6)  ---------------------------------------


    POTLOK:  cpu time    2.6609: real time    2.6779
    SETDIJ:  cpu time    0.0018: real time    0.0018
     EDDAV:  cpu time    3.0162: real time    3.0233
 BZINTS: Fermi energy: -2.264295;144.000000 electrons
         Band energy:***********;  BLOECHL correction:  0.000000
       DOS:  cpu time    0.0029: real time    0.0029
    CHARGE:  cpu time    0.1858: real time    0.1862
    MIXING:  cpu time    0.0087: real time    0.0087
    --------------------------------------------
      LOOP:  cpu time    5.8763: real time    5.9010

 eigenvalue-minimisations  :  3016
 total energy-change (2. order) : 0.8044592E+01  (-0.2016588E+01)
 number of electron     143.9999991 magnetization 
 augmentation part      -17.5395555 magnetization 

 Broyden mixing:
  rms(total) = 0.46272E+00    rms(broyden)= 0.46272E+00
  rms(prec ) = 0.58096E+00
  weight for this iteration     100.00

 eigenvalues of (default mixing * dielectric matrix)
  average eigenvalue GAMMA=   1.5414
  1.5414

 Free energy of the ion-electron system (eV)
  ---------------------------------------------------
  alpha Z        PSCENC =       170.45750602
  Ewald energy   TEWEN  =     11810.33034231
  -Hartree energ DENC   =    -18021.43577411
  -exchange      EXHF   =         0.00000000
  -V(xc)+E(xc)   XCENC  =        40.01975120
  PAW double counting   =      3730.67891877    -3427.51110092
  entropy T*S    EENTRO =         0.00000000
  eigenvalues    EBANDS =     -1663.34576170
  atomic energy  EATOM  =      7269.15145414
  Solvation  Ediel_sol  =         0.00000000
  ---------------------------------------------------
  free energy    TOTEN  =       -91.65466429 eV

  energy without entropy =      -91.65466429  energy(sigma->0) =      -91.65466429


--------------------------------------------------------------------------------------------------------




--------------------------------------- Iteration      1(   7)  ---------------------------------------


    POTLOK:  cpu time    2.6497: real time    2.6663
    SETDIJ:  cpu time    0.0018: real time    0.0018
     EDDAV:  cpu time    3.3241: real time    3.3319
 BZINTS: Fermi energy: -1.414468;144.000000 electrons
         Band energy:***********;  BLOECHL correction:  0.000000
       DOS:  cpu time    0.0026: real time    0.0026
    CHARGE:  cpu time    0.1871: real time    0.1875
    MIXING:  cpu time    0.0167: real time    0.0168
    --------------------------------------------
      LOOP:  cpu time    6.1819: real time    6.2068

 eigenvalue-minimisations  :  3480
 total energy-change (2. order) : 0.1288815E+01  (-0.9668564E+00)
 number of electron     143.9999991 magnetization 
 augmentation part      -17.6059708 magnetization 

 Broyden mixing:
  rms(total) = 0.24492E+00    rms(broyden)= 0.24492E+00
  rms(prec ) = 0.29377E+00
  weight for this iteration     100.00

 eigenvalues of (default mixing * dielectric matrix)
  average eigenvalue GAMMA=   1.8517
  1.8517  1.8517

 Free energy of the ion-electron system (eV)
  ---------------------------------------------------
  alpha Z        PSCENC =       170.45750602
  Ewald energy   TEWEN  =     11810.33034231
  -Hartree energ DENC   =    -18098.76176285
  -exchange      EXHF   =         0.00000000
  -V(xc)+E(xc)   XCENC  =        42.22585760
  PAW double counting   =      3775.20033400    -3477.77496660
  entropy T*S    EENTRO =         0.00000000
  eigenvalues    EBANDS =     -1581.19461408
  atomic energy  EATOM  =      7269.15145414
  Solvation  Ediel_sol  =         0.00000000
  ---------------------------------------------------
  free energy    TOTEN  =       -90.36584946 eV

  energy without entropy =      -90.36584946  energy(sigma->0) =      -90.36584946


--------------------------------------------------------------------------------------------------------




--------------------------------------- Iteration      1(   8)  ---------------------------------------


    POTLOK:  cpu time    2.6482: real time    2.6651
    SETDIJ:  cpu time    0.0024: real time    0.0024
     EDDAV:  cpu time    3.1116: real time    3.1190
 BZINTS: Fermi energy: -1.306418;144.000000 electrons
         Band energy:***********;  BLOECHL correction:  0.000000
       DOS:  cpu time    0.0032: real time    0.0032
    CHARGE:  cpu time    0.2002: real time    0.2007
    MIXING:  cpu time    0.0066: real time    0.0066
    --------------------------------------------
      LOOP:  cpu time    5.9722: real time    5.9971

 eigenvalue-minimisations  :  3112
 total energy-change (2. order) : 0.2487808E+00  (-0.3525630E+00)
 number of electron     143.9999991 magnetization 
 augmentation part      -17.7220598 magnetization 

 Broyden mixing:
  rms(total) = 0.11606E+00    rms(broyden)= 0.11606E+00
  rms(prec ) = 0.18745E+00
  weight for this iteration     100.00

 eigenvalues of (default mixing * dielectric matrix)
  average eigenvalue GAMMA=   1.6813
  2.6377  1.2031  1.2031

 Free energy of the ion-electron system (eV)
  ---------------------------------------------------
  alpha Z        PSCENC =       170.45750602
  Ewald energy   TEWEN  =     11810.33034231
  -Hartree energ DENC   =    -18131.87328740
  -exchange      EXHF   =         0.00000000
  -V(xc)+E(xc)   XCENC  =        43.15749422
  PAW double counting   =      3823.25498728    -3527.65916437
  entropy T*S    EENTRO =         0.00000000
  eigenvalues    EBANDS =     -1546.93640090
  atomic energy  EATOM  =      7269.15145414
  Solvation  Ediel_sol  =         0.00000000
  ---------------------------------------------------
  free energy    TOTEN  =       -90.11706870 eV

  energy without entropy =      -90.11706870  energy(sigma->0) =      -90.11706870


--------------------------------------------------------------------------------------------------------




--------------------------------------- Iteration      1(   9)  ---------------------------------------


    POTLOK:  cpu time    2.6399: real time    2.6554
    SETDIJ:  cpu time    0.0018: real time    0.0018
     EDDAV:  cpu time    3.0515: real time    3.0588
 BZINTS: Fermi energy: -0.952881;144.000000 electrons
         Band energy:***********;  BLOECHL correction:  0.000000
       DOS:  cpu time    0.0046: real time    0.0046
    CHARGE:  cpu time    0.1782: real time    0.1786
    MIXING:  cpu time    0.0104: real time    0.0104
    --------------------------------------------
      LOOP:  cpu time    5.8863: real time    5.9095

 eigenvalue-minimisations  :  3104
 total energy-change (2. order) : 0.2649152E+00  (-0.1139984E+00)
 number of electron     143.9999991 magnetization 
 augmentation part      -17.6894107 magnetization 

 Broyden mixing:
  rms(total) = 0.54650E-01    rms(broyden)= 0.54649E-01
  rms(prec ) = 0.76615E-01
  weight for this iteration     100.00

 eigenvalues of (default mixing * dielectric matrix)
  average eigenvalue GAMMA=   1.4063
  2.5765  1.2128  1.2128  0.6231

 Free energy of the ion-electron system (eV)
  ---------------------------------------------------
  alpha Z        PSCENC =       170.45750602
  Ewald energy   TEWEN  =     11810.33034231
  -Hartree energ DENC   =    -18171.79755470
  -exchange      EXHF   =         0.00000000
  -V(xc)+E(xc)   XCENC  =        44.05269543
  PAW double counting   =      3834.13597872    -3539.88285372
  entropy T*S    EENTRO =         0.00000000
  eigenvalues    EBANDS =     -1506.29972171
  atomic energy  EATOM  =      7269.15145414
  Solvation  Ediel_sol  =         0.00000000
  ---------------------------------------------------
  free energy    TOTEN  =       -89.85215350 eV

  energy without entropy =      -89.85215350  energy(sigma->0) =      -89.85215350


--------------------------------------------------------------------------------------------------------




--------------------------------------- Iteration      1(  10)  ---------------------------------------


    POTLOK:  cpu time    2.6424: real time    2.6593
    SETDIJ:  cpu time    0.0016: real time    0.0016
     EDDAV:  cpu time    3.5515: real time    3.5599
 BZINTS: Fermi energy: -0.824804;144.000000 electrons
         Band energy:***********;  BLOECHL correction:  0.000000
       DOS:  cpu time    0.0023: real time    0.0023
    CHARGE:  cpu time    0.1946: real time    0.1951
    MIXING:  cpu time    0.0072: real time    0.0072
    --------------------------------------------
      LOOP:  cpu time    6.3996: real time    6.4254

 eigenvalue-minimisations  :  3584
 total energy-change (2. order) : 0.1213324E-01  (-0.2316713E-01)
 number of electron     143.9999991 magnetization 
 augmentation part      -17.7035142 magnetization 

 Broyden mixing:
  rms(total) = 0.40294E-01    rms(broyden)= 0.40294E-01
  rms(prec ) = 0.60033E-01
  weight for this iteration     100.00

 eigenvalues of (default mixing * dielectric matrix)
  average eigenvalue GAMMA=   1.5638
  2.4973  2.2765  1.1649  0.9400  0.9400

 Free energy of the ion-electron system (eV)
  ---------------------------------------------------
  alpha Z        PSCENC =       170.45750602
  Ewald energy   TEWEN  =     11810.33034231
  -Hartree energ DENC   =    -18179.70688752
  -exchange      EXHF   =         0.00000000
  -V(xc)+E(xc)   XCENC  =        44.06584190
  PAW double counting   =      3829.31485803    -3534.74948686
  entropy T*S    EENTRO =         0.00000000
  eigenvalues    EBANDS =     -1498.70364828
  atomic energy  EATOM  =      7269.15145414
  Solvation  Ediel_sol  =         0.00000000
  ---------------------------------------------------
  free energy    TOTEN  =       -89.84002025 eV

  energy without entropy =      -89.84002025  energy(sigma->0) =      -89.84002025


--------------------------------------------------------------------------------------------------------




--------------------------------------- Iteration      1(  11)  ---------------------------------------


    POTLOK:  cpu time    2.6519: real time    2.6683
    SETDIJ:  cpu time    0.0016: real time    0.0016
     EDDAV:  cpu time    3.0877: real time    3.0950
 BZINTS: Fermi energy: -0.805297;144.000000 electrons
         Band energy:***********;  BLOECHL correction:  0.000000
       DOS:  cpu time    0.0020: real time    0.0020
    CHARGE:  cpu time    0.1771: real time    0.1775
    MIXING:  cpu time    0.0084: real time    0.0085
    --------------------------------------------
      LOOP:  cpu time    5.9288: real time    5.9530

 eigenvalue-minimisations  :  3216
 total energy-change (2. order) : 0.6677916E-01  (-0.6517932E-02)
 number of electron     143.9999991 magnetization 
 augmentation part      -17.7092501 magnetization 

 Broyden mixing:
  rms(total) = 0.15637E-01    rms(broyden)= 0.15637E-01
  rms(prec ) = 0.30701E-01
  weight for this iteration     100.00

 eigenvalues of (default mixing * dielectric matrix)
  average eigenvalue GAMMA=   1.5953
  2.7577  2.7577  1.2378  0.9284  0.9450  0.9450

 Free energy of the ion-electron system (eV)
  ---------------------------------------------------
  alpha Z        PSCENC =       170.45750602
  Ewald energy   TEWEN  =     11810.33034231
  -Hartree energ DENC   =    -18195.46940063
  -exchange      EXHF   =         0.00000000
  -V(xc)+E(xc)   XCENC  =        44.25873740
  PAW double counting   =      3830.08958538    -3535.24704997
  entropy T*S    EENTRO =         0.00000000
  eigenvalues    EBANDS =     -1483.34441574
  atomic energy  EATOM  =      7269.15145414
  Solvation  Ediel_sol  =         0.00000000
  ---------------------------------------------------
  free energy    TOTEN  =       -89.77324110 eV

  energy without entropy =      -89.77324110  energy(sigma->0) =      -89.77324110


--------------------------------------------------------------------------------------------------------




--------------------------------------- Iteration      1(  12)  ---------------------------------------


    POTLOK:  cpu time    2.4725: real time    2.4893
    SETDIJ:  cpu time    0.0021: real time    0.0021
     EDDAV:  cpu time    3.0908: real time    3.0982
 BZINTS: Fermi energy: -0.734479;144.000000 electrons
         Band energy:***********;  BLOECHL correction:  0.000000
       DOS:  cpu time    0.0024: real time    0.0024
    CHARGE:  cpu time    0.1833: real time    0.1838
    MIXING:  cpu time    0.0070: real time    0.0071
    --------------------------------------------
      LOOP:  cpu time    5.7581: real time    5.7827

 eigenvalue-minimisations  :  3392
 total energy-change (2. order) :-0.3218903E-03  (-0.1412465E-02)
 number of electron     143.9999991 magnetization 
 augmentation part      -17.7043964 magnetization 

 Broyden mixing:
  rms(total) = 0.11411E-01    rms(broyden)= 0.11411E-01
  rms(prec ) = 0.19685E-01
  weight for this iteration     100.00

 eigenvalues of (default mixing * dielectric matrix)
  average eigenvalue GAMMA=   1.7115
  3.3803  2.6241  1.9749  1.1186  1.1186  0.8821  0.8821

 Free energy of the ion-electron system (eV)
  ---------------------------------------------------
  alpha Z        PSCENC =       170.45750602
  Ewald energy   TEWEN  =     11810.33034231
  -Hartree energ DENC   =    -18206.66825612
  -exchange      EXHF   =         0.00000000
  -V(xc)+E(xc)   XCENC  =        44.30300365
  PAW double counting   =      3827.60362966    -3532.59145354
  entropy T*S    EENTRO =         0.00000000
  eigenvalues    EBANDS =     -1472.35978910
  atomic energy  EATOM  =      7269.15145414
  Solvation  Ediel_sol  =         0.00000000
  ---------------------------------------------------
  free energy    TOTEN  =       -89.77356299 eV

  energy without entropy =      -89.77356299  energy(sigma->0) =      -89.77356299


--------------------------------------------------------------------------------------------------------




--------------------------------------- Iteration      1(  13)  ---------------------------------------


    POTLOK:  cpu time    2.6493: real time    2.6662
    SETDIJ:  cpu time    0.0025: real time    0.0025
     EDDAV:  cpu time    3.4172: real time    3.4254
 BZINTS: Fermi energy: -0.597346;144.000000 electrons
         Band energy:***********;  BLOECHL correction:  0.000000
       DOS:  cpu time    0.0024: real time    0.0024
    CHARGE:  cpu time    0.1924: real time    0.1929
    MIXING:  cpu time    0.0087: real time    0.0088
    --------------------------------------------
      LOOP:  cpu time    6.2726: real time    6.2980

 eigenvalue-minimisations  :  3448
 total energy-change (2. order) : 0.9394047E-05  (-0.6834708E-03)
 number of electron     143.9999991 magnetization 
 augmentation part      -17.7054944 magnetization 

 Broyden mixing:
  rms(total) = 0.57249E-02    rms(broyden)= 0.57249E-02
  rms(prec ) = 0.10025E-01
  weight for this iteration     100.00

 eigenvalues of (default mixing * dielectric matrix)
  average eigenvalue GAMMA=   1.7782
  3.9588  2.8317  2.3749  1.2161  1.2161  0.8884  0.8698  0.8698

 Free energy of the ion-electron system (eV)
  ---------------------------------------------------
  alpha Z        PSCENC =       170.45750602
  Ewald energy   TEWEN  =     11810.33034231
  -Hartree energ DENC   =    -18215.43031886
  -exchange      EXHF   =         0.00000000
  -V(xc)+E(xc)   XCENC  =        44.34772678
  PAW double counting   =      3826.18449933    -3531.26561538
  entropy T*S    EENTRO =         0.00000000
  eigenvalues    EBANDS =     -1463.54914793
  atomic energy  EATOM  =      7269.15145414
  Solvation  Ediel_sol  =         0.00000000
  ---------------------------------------------------
  free energy    TOTEN  =       -89.77355359 eV

  energy without entropy =      -89.77355359  energy(sigma->0) =      -89.77355359


--------------------------------------------------------------------------------------------------------




--------------------------------------- Iteration      1(  14)  ---------------------------------------


    POTLOK:  cpu time    2.6669: real time    2.6839
    SETDIJ:  cpu time    0.0016: real time    0.0016
     EDDAV:  cpu time    2.8927: real time    2.8996
 BZINTS: Fermi energy: -0.578303;144.000000 electrons
         Band energy:***********;  BLOECHL correction:  0.000000
       DOS:  cpu time    0.0027: real time    0.0027
    CHARGE:  cpu time    0.1812: real time    0.1816
    MIXING:  cpu time    0.0087: real time    0.0087
    --------------------------------------------
      LOOP:  cpu time    5.7537: real time    5.7781

 eigenvalue-minimisations  :  2984
 total energy-change (2. order) : 0.6123090E-02  (-0.2568816E-03)
 number of electron     143.9999991 magnetization 
 augmentation part      -17.7059881 magnetization 

 Broyden mixing:
  rms(total) = 0.46166E-02    rms(broyden)= 0.46166E-02
  rms(prec ) = 0.74801E-02
  weight for this iteration     100.00

 eigenvalues of (default mixing * dielectric matrix)
  average eigenvalue GAMMA=   1.8546
  4.5455  3.0606  1.9849  1.9849  0.8869  0.8869  1.1578  1.1578  1.0262

 Free energy of the ion-electron system (eV)
  ---------------------------------------------------
  alpha Z        PSCENC =       170.45750602
  Ewald energy   TEWEN  =     11810.33034231
  -Hartree energ DENC   =    -18219.03935702
  -exchange      EXHF   =         0.00000000
  -V(xc)+E(xc)   XCENC  =        44.36060595
  PAW double counting   =      3825.49616541    -3530.58792013
  entropy T*S    EENTRO =         0.00000000
  eigenvalues    EBANDS =     -1459.93622718
  atomic energy  EATOM  =      7269.15145414
  Solvation  Ediel_sol  =         0.00000000
  ---------------------------------------------------
  free energy    TOTEN  =       -89.76743050 eV

  energy without entropy =      -89.76743050  energy(sigma->0) =      -89.76743050


--------------------------------------------------------------------------------------------------------




--------------------------------------- Iteration      1(  15)  ---------------------------------------


    POTLOK:  cpu time    2.6694: real time    2.6859
    SETDIJ:  cpu time    0.0019: real time    0.0019
     EDDAV:  cpu time    3.0248: real time    3.0320
 BZINTS: Fermi energy: -0.567605;144.000000 electrons
         Band energy:***********;  BLOECHL correction:  0.000000
       DOS:  cpu time    0.0025: real time    0.0025
    CHARGE:  cpu time    0.1926: real time    0.1931
    MIXING:  cpu time    0.0129: real time    0.0130
    --------------------------------------------
      LOOP:  cpu time    5.9042: real time    5.9283

 eigenvalue-minimisations  :  2896
 total energy-change (2. order) : 0.4334451E-03  (-0.2497189E-03)
 number of electron     143.9999991 magnetization 
 augmentation part      -17.7071746 magnetization 

 Broyden mixing:
  rms(total) = 0.17705E-02    rms(broyden)= 0.17705E-02
  rms(prec ) = 0.34980E-02
  weight for this iteration     100.00

 eigenvalues of (default mixing * dielectric matrix)
  average eigenvalue GAMMA=   1.9325
  5.4157  3.2266  2.5825  1.7782  0.8869  0.8869  1.2706  1.2706  1.0034  1.0034

 Free energy of the ion-electron system (eV)
  ---------------------------------------------------
  alpha Z        PSCENC =       170.45750602
  Ewald energy   TEWEN  =     11810.33034231
  -Hartree energ DENC   =    -18221.10713059
  -exchange      EXHF   =         0.00000000
  -V(xc)+E(xc)   XCENC  =        44.35776462
  PAW double counting   =      3825.93575883    -3531.00549527
  entropy T*S    EENTRO =         0.00000000
  eigenvalues    EBANDS =     -1457.88719712
  atomic energy  EATOM  =      7269.15145414
  Solvation  Ediel_sol  =         0.00000000
  ---------------------------------------------------
  free energy    TOTEN  =       -89.76699706 eV

  energy without entropy =      -89.76699706  energy(sigma->0) =      -89.76699706


--------------------------------------------------------------------------------------------------------




--------------------------------------- Iteration      1(  16)  ---------------------------------------


    POTLOK:  cpu time    2.6570: real time    2.6724
    SETDIJ:  cpu time    0.0016: real time    0.0016
     EDDAV:  cpu time    3.0354: real time    3.0427
 BZINTS: Fermi energy: -0.560424;144.000000 electrons
         Band energy:***********;  BLOECHL correction:  0.000000
       DOS:  cpu time    0.0026: real time    0.0026
    CHARGE:  cpu time    0.1877: real time    0.1882
    MIXING:  cpu time    0.0115: real time    0.0115
    --------------------------------------------
      LOOP:  cpu time    5.8959: real time    5.9191

 eigenvalue-minimisations  :  3056
 total energy-change (2. order) : 0.4779468E-04  (-0.1542605E-03)
 number of electron     143.9999991 magnetization 
 augmentation part      -17.7069983 magnetization 

 Broyden mixing:
  rms(total) = 0.13240E-02    rms(broyden)= 0.13240E-02
  rms(prec ) = 0.24450E-02
  weight for this iteration     100.00

 eigenvalues of (default mixing * dielectric matrix)
  average eigenvalue GAMMA=   2.0072
  5.8419  3.5345  2.3509  2.3509  1.6477  0.8888  0.8888  1.2849  1.2849  1.0029
  1.0029

 Free energy of the ion-electron system (eV)
  ---------------------------------------------------
  alpha Z        PSCENC =       170.45750602
  Ewald energy   TEWEN  =     11810.33034231
  -Hartree energ DENC   =    -18222.61632039
  -exchange      EXHF   =         0.00000000
  -V(xc)+E(xc)   XCENC  =        44.36100048
  PAW double counting   =      3826.12415109    -3531.20759923
  entropy T*S    EENTRO =         0.00000000
  eigenvalues    EBANDS =     -1456.36748369
  atomic energy  EATOM  =      7269.15145414
  Solvation  Ediel_sol  =         0.00000000
  ---------------------------------------------------
  free energy    TOTEN  =       -89.76694926 eV

  energy without entropy =      -89.76694926  energy(sigma->0) =      -89.76694926


--------------------------------------------------------------------------------------------------------




--------------------------------------- Iteration      1(  17)  ---------------------------------------


    POTLOK:  cpu time    2.6558: real time    2.6720
    SETDIJ:  cpu time    0.0024: real time    0.0024
     EDDAV:  cpu time    2.9216: real time    2.9286
 BZINTS: Fermi energy: -0.554681;144.000000 electrons
         Band energy:***********;  BLOECHL correction:  0.000000
       DOS:  cpu time    0.0048: real time    0.0048
    CHARGE:  cpu time    0.1684: real time    0.1687
    MIXING:  cpu time    0.0077: real time    0.0077
    --------------------------------------------
      LOOP:  cpu time    5.7607: real time    5.7843

 eigenvalue-minimisations  :  2864
 total energy-change (2. order) : 0.2505687E-03  (-0.7761439E-04)
 number of electron     143.9999991 magnetization 
 augmentation part      -17.7069849 magnetization 

 Broyden mixing:
  rms(total) = 0.74302E-03    rms(broyden)= 0.74302E-03
  rms(prec ) = 0.14373E-02
  weight for this iteration     100.00

 eigenvalues of (default mixing * dielectric matrix)
  average eigenvalue GAMMA=   2.0031
  6.1771  3.7061  2.7405  2.2328  1.4848  1.4848  0.8883  0.8883  1.3499  1.0601
  1.0601  0.9644

 Free energy of the ion-electron system (eV)
  ---------------------------------------------------
  alpha Z        PSCENC =       170.45750602
  Ewald energy   TEWEN  =     11810.33034231
  -Hartree energ DENC   =    -18223.86967125
  -exchange      EXHF   =         0.00000000
  -V(xc)+E(xc)   XCENC  =        44.36540681
  PAW double counting   =      3826.11886034    -3531.19862926
  entropy T*S    EENTRO =         0.00000000
  eigenvalues    EBANDS =     -1455.12196780
  atomic energy  EATOM  =      7269.15145414
  Solvation  Ediel_sol  =         0.00000000
  ---------------------------------------------------
  free energy    TOTEN  =       -89.76669870 eV

  energy without entropy =      -89.76669870  energy(sigma->0) =      -89.76669870


--------------------------------------------------------------------------------------------------------




--------------------------------------- Iteration      1(  18)  ---------------------------------------


    POTLOK:  cpu time    2.6426: real time    2.6594
    SETDIJ:  cpu time    0.0018: real time    0.0018
     EDDAV:  cpu time    2.6170: real time    2.6232
 BZINTS: Fermi energy: -0.555939;144.000000 electrons
         Band energy:***********;  BLOECHL correction:  0.000000
       DOS:  cpu time    0.0027: real time    0.0027
    CHARGE:  cpu time    0.2114: real time    0.2119
    MIXING:  cpu time    0.0110: real time    0.0110
    --------------------------------------------
      LOOP:  cpu time    5.4864: real time    5.5099

 eigenvalue-minimisations  :  2544
 total energy-change (2. order) :-0.5070646E-03  (-0.1580837E-04)
 number of electron     143.9999991 magnetization 
 augmentation part      -17.7070056 magnetization 

 Broyden mixing:
  rms(total) = 0.52467E-03    rms(broyden)= 0.52467E-03
  rms(prec ) = 0.95053E-03
  weight for this iteration     100.00

 eigenvalues of (default mixing * dielectric matrix)
  average eigenvalue GAMMA=   2.0945
  6.6034  4.3074  2.7550  2.7550  1.9740  1.3880  1.3880  0.8880  0.8880  1.1659
  1.1659  0.9748  0.9748

 Free energy of the ion-electron system (eV)
  ---------------------------------------------------
  alpha Z        PSCENC =       170.45750602
  Ewald energy   TEWEN  =     11810.33034231
  -Hartree energ DENC   =    -18224.27780364
  -exchange      EXHF   =         0.00000000
  -V(xc)+E(xc)   XCENC  =        44.36703643
  PAW double counting   =      3826.13700779    -3531.21620118
  entropy T*S    EENTRO =         0.00000000
  eigenvalues    EBANDS =     -1454.71654762
  atomic energy  EATOM  =      7269.15145414
  Solvation  Ediel_sol  =         0.00000000
  ---------------------------------------------------
  free energy    TOTEN  =       -89.76720576 eV

  energy without entropy =      -89.76720576  energy(sigma->0) =      -89.76720576


--------------------------------------------------------------------------------------------------------




--------------------------------------- Iteration      1(  19)  ---------------------------------------


    POTLOK:  cpu time    2.6474: real time    2.6639
    SETDIJ:  cpu time    0.0018: real time    0.0018
     EDDAV:  cpu time    2.6714: real time    2.6777
 BZINTS: Fermi energy: -0.557821;144.000000 electrons
         Band energy:***********;  BLOECHL correction:  0.000000
       DOS:  cpu time    0.0027: real time    0.0027
    CHARGE:  cpu time    0.1814: real time    0.1818
    MIXING:  cpu time    0.0118: real time    0.0119
    --------------------------------------------
      LOOP:  cpu time    5.5165: real time    5.5399

 eigenvalue-minimisations  :  2632
 total energy-change (2. order) :-0.7301959E-03  (-0.1804222E-04)
 number of electron     143.9999991 magnetization 
 augmentation part      -17.7071712 magnetization 

 Broyden mixing:
  rms(total) = 0.40854E-03    rms(broyden)= 0.40854E-03
  rms(prec ) = 0.61841E-03
  weight for this iteration     100.00

 eigenvalues of (default mixing * dielectric matrix)
  average eigenvalue GAMMA=   2.1452
  6.8967  4.9060  2.8893  2.8893  1.8986  1.6292  1.6292  0.8881  0.8881  1.2803
  1.2803  1.0119  1.0119  0.9345

 Free energy of the ion-electron system (eV)
  ---------------------------------------------------
  alpha Z        PSCENC =       170.45750602
  Ewald energy   TEWEN  =     11810.33034231
  -Hartree energ DENC   =    -18224.59878426
  -exchange      EXHF   =         0.00000000
  -V(xc)+E(xc)   XCENC  =        44.36598250
  PAW double counting   =      3826.04635296    -3531.12273601
  entropy T*S    EENTRO =         0.00000000
  eigenvalues    EBANDS =     -1454.39805363
  atomic energy  EATOM  =      7269.15145414
  Solvation  Ediel_sol  =         0.00000000
  ---------------------------------------------------
  free energy    TOTEN  =       -89.76793596 eV

  energy without entropy =      -89.76793596  energy(sigma->0) =      -89.76793596


--------------------------------------------------------------------------------------------------------




--------------------------------------- Iteration      1(  20)  ---------------------------------------


    POTLOK:  cpu time    2.6448: real time    2.6607
    SETDIJ:  cpu time    0.0019: real time    0.0019
     EDDAV:  cpu time    2.8595: real time    2.8663
 BZINTS: Fermi energy: -0.561595;144.000000 electrons
         Band energy:***********;  BLOECHL correction:  0.000000
       DOS:  cpu time    0.0050: real time    0.0050
    CHARGE:  cpu time    0.1940: real time    0.1945
    MIXING:  cpu time    0.0102: real time    0.0102
    --------------------------------------------
      LOOP:  cpu time    5.7155: real time    5.7387

 eigenvalue-minimisations  :  2728
 total energy-change (2. order) :-0.2621732E-03  (-0.7534785E-05)
 number of electron     143.9999991 magnetization 
 augmentation part      -17.7072297 magnetization 

 Broyden mixing:
  rms(total) = 0.22085E-03    rms(broyden)= 0.22085E-03
  rms(prec ) = 0.34156E-03
  weight for this iteration     100.00

 eigenvalues of (default mixing * dielectric matrix)
  average eigenvalue GAMMA=   2.2981
  7.5817  6.5127  3.1268  3.1268  2.5169  1.5573  1.5573  0.8881  0.8881  1.2912
  1.2912  0.9611  0.9611  1.1058  1.1058

 Free energy of the ion-electron system (eV)
  ---------------------------------------------------
  alpha Z        PSCENC =       170.45750602
  Ewald energy   TEWEN  =     11810.33034231
  -Hartree energ DENC   =    -18224.63025715
  -exchange      EXHF   =         0.00000000
  -V(xc)+E(xc)   XCENC  =        44.36596672
  PAW double counting   =      3826.05944911    -3531.13540621
  entropy T*S    EENTRO =         0.00000000
  eigenvalues    EBANDS =     -1454.36725306
  atomic energy  EATOM  =      7269.15145414
  Solvation  Ediel_sol  =         0.00000000
  ---------------------------------------------------
  free energy    TOTEN  =       -89.76819813 eV

  energy without entropy =      -89.76819813  energy(sigma->0) =      -89.76819813


--------------------------------------------------------------------------------------------------------




--------------------------------------- Iteration      1(  21)  ---------------------------------------


    POTLOK:  cpu time    2.6488: real time    2.6647
    SETDIJ:  cpu time    0.0017: real time    0.0017
     EDDAV:  cpu time    2.4383: real time    2.4441
 BZINTS: Fermi energy: -0.566113;144.000000 electrons
         Band energy:***********;  BLOECHL correction:  0.000000
       DOS:  cpu time    0.0027: real time    0.0027
    CHARGE:  cpu time    0.1786: real time    0.1790
    MIXING:  cpu time    0.0131: real time    0.0131
    --------------------------------------------
      LOOP:  cpu time    5.2832: real time    5.3053

 eigenvalue-minimisations  :  2360
 total energy-change (2. order) :-0.1509668E-03  (-0.4319535E-05)
 number of electron     143.9999991 magnetization 
 augmentation part      -17.7072270 magnetization 

 Broyden mixing:
  rms(total) = 0.10679E-03    rms(broyden)= 0.10679E-03
  rms(prec ) = 0.13033E-03
  weight for this iteration     100.00

 eigenvalues of (default mixing * dielectric matrix)
  average eigenvalue GAMMA=   2.3351
  8.4712  6.5971  3.1914  3.1914  2.4570  1.8861  1.8861  0.8881  0.8881  1.3036
  1.3036  1.1684  1.0948  1.0948  0.9704  0.9704

 Free energy of the ion-electron system (eV)
  ---------------------------------------------------
  alpha Z        PSCENC =       170.45750602
  Ewald energy   TEWEN  =     11810.33034231
  -Hartree energ DENC   =    -18224.52240365
  -exchange      EXHF   =         0.00000000
  -V(xc)+E(xc)   XCENC  =        44.36472104
  PAW double counting   =      3826.06226677    -3531.13947620
  entropy T*S    EENTRO =         0.00000000
  eigenvalues    EBANDS =     -1454.47275952
  atomic energy  EATOM  =      7269.15145414
  Solvation  Ediel_sol  =         0.00000000
  ---------------------------------------------------
  free energy    TOTEN  =       -89.76834910 eV

  energy without entropy =      -89.76834910  energy(sigma->0) =      -89.76834910


--------------------------------------------------------------------------------------------------------




--------------------------------------- Iteration      1(  22)  ---------------------------------------


    POTLOK:  cpu time    2.6356: real time    2.6527
    SETDIJ:  cpu time    0.0026: real time    0.0026
     EDDAV:  cpu time    2.7302: real time    2.7367
 BZINTS: Fermi energy: -0.569385;144.000000 electrons
         Band energy:***********;  BLOECHL correction:  0.000000
       DOS:  cpu time    0.0025: real time    0.0025
    CHARGE:  cpu time    0.1858: real time    0.1863
    MIXING:  cpu time    0.0094: real time    0.0094
    --------------------------------------------
      LOOP:  cpu time    5.5661: real time    5.5902

 eigenvalue-minimisations  :  2544
 total energy-change (2. order) :-0.1941353E-04  (-0.3770000E-06)
 number of electron     143.9999991 magnetization 
 augmentation part      -17.7071822 magnetization 

 Broyden mixing:
  rms(total) = 0.68454E-04    rms(broyden)= 0.68454E-04
  rms(prec ) = 0.88600E-04
  weight for this iteration     100.00

 eigenvalues of (default mixing * dielectric matrix)
  average eigenvalue GAMMA=   2.3180
  8.6739  6.9872  3.2764  3.2764  2.6014  1.9069  1.9069  0.8881  0.8881  1.3626
  1.2518  1.2518  0.9553  0.9553  1.0831  1.0707  1.0707

 Free energy of the ion-electron system (eV)
  ---------------------------------------------------
  alpha Z        PSCENC =       170.45750602
  Ewald energy   TEWEN  =     11810.33034231
  -Hartree energ DENC   =    -18224.55647633
  -exchange      EXHF   =         0.00000000
  -V(xc)+E(xc)   XCENC  =        44.36478074
  PAW double counting   =      3826.04787143    -3531.12463047
  entropy T*S    EENTRO =         0.00000000
  eigenvalues    EBANDS =     -1454.43921635
  atomic energy  EATOM  =      7269.15145414
  Solvation  Ediel_sol  =         0.00000000
  ---------------------------------------------------
  free energy    TOTEN  =       -89.76836851 eV

  energy without entropy =      -89.76836851  energy(sigma->0) =      -89.76836851


--------------------------------------------------------------------------------------------------------




--------------------------------------- Iteration      1(  23)  ---------------------------------------


    POTLOK:  cpu time    2.6496: real time    2.6659
    SETDIJ:  cpu time    0.0022: real time    0.0023
     EDDAV:  cpu time    2.2182: real time    2.2234
 BZINTS: Fermi energy: -0.572830;144.000000 electrons
         Band energy:***********;  BLOECHL correction:  0.000000
       DOS:  cpu time    0.0027: real time    0.0028
    CHARGE:  cpu time    0.1798: real time    0.1802
    MIXING:  cpu time    0.0089: real time    0.0089
    --------------------------------------------
      LOOP:  cpu time    5.0615: real time    5.0835

 eigenvalue-minimisations  :  2000
 total energy-change (2. order) :-0.6570791E-05  (-0.7438890E-07)
 number of electron     143.9999991 magnetization 
 augmentation part      -17.7071816 magnetization 

 Broyden mixing:
  rms(total) = 0.31788E-04    rms(broyden)= 0.31788E-04
  rms(prec ) = 0.43391E-04
  weight for this iteration     100.00

 eigenvalues of (default mixing * dielectric matrix)
  average eigenvalue GAMMA=   2.3219
  8.8738  7.0758  3.3652  3.3652  2.6753  2.1107  1.8291  1.8291  0.8881  0.8881
  1.2613  1.2613  1.2535  1.0923  1.0923  0.9695  0.9695  0.9946

 Free energy of the ion-electron system (eV)
  ---------------------------------------------------
  alpha Z        PSCENC =       170.45750602
  Ewald energy   TEWEN  =     11810.33034231
  -Hartree energ DENC   =    -18224.52609383
  -exchange      EXHF   =         0.00000000
  -V(xc)+E(xc)   XCENC  =        44.36449478
  PAW double counting   =      3826.04895483    -3531.12594769
  entropy T*S    EENTRO =         0.00000000
  eigenvalues    EBANDS =     -1454.46908565
  atomic energy  EATOM  =      7269.15145414
  Solvation  Ediel_sol  =         0.00000000
  ---------------------------------------------------
  free energy    TOTEN  =       -89.76837508 eV

  energy without entropy =      -89.76837508  energy(sigma->0) =      -89.76837508


--------------------------------------------------------------------------------------------------------




--------------------------------------- Iteration      1(  24)  ---------------------------------------


    POTLOK:  cpu time    2.6566: real time    2.6738
    SETDIJ:  cpu time    0.0017: real time    0.0017
     EDDAV:  cpu time    2.2564: real time    2.2617
 BZINTS: Fermi energy: -0.575748;144.000000 electrons
         Band energy:***********;  BLOECHL correction:  0.000000
       DOS:  cpu time    0.0030: real time    0.0031
    CHARGE:  cpu time    0.1887: real time    0.1891
    MIXING:  cpu time    0.0094: real time    0.0094
    --------------------------------------------
      LOOP:  cpu time    5.1159: real time    5.1389

 eigenvalue-minimisations  :  1928
 total energy-change (2. order) :-0.1456803E-05  (-0.3057020E-07)
 number of electron     143.9999991 magnetization 
 augmentation part      -17.7071841 magnetization 

 Broyden mixing:
  rms(total) = 0.15640E-04    rms(broyden)= 0.15640E-04
  rms(prec ) = 0.22963E-04
  weight for this iteration     100.00

 eigenvalues of (default mixing * dielectric matrix)
  average eigenvalue GAMMA=   2.3020
  8.7651  7.1999  3.4496  3.4496  2.8936  2.1416  2.0253  2.0253  0.8881  0.8881
  1.2408  1.2408  1.2214  1.2214  1.1084  1.1084  0.9706  0.9706  0.9288

 Free energy of the ion-electron system (eV)
  ---------------------------------------------------
[...]
      7     -28.0481      2.00000
      8     -28.0478      2.00000
      9     -14.9728      2.00000
     10     -14.9726      2.00000
     11     -14.9107      2.00000
     12     -14.9106      2.00000
     13     -14.8457      2.00000
     14     -14.8457      2.00000
     15     -14.0819      2.00000
     16     -14.0813      2.00000
     17     -13.9965      2.00000
     18     -13.9860      2.00000
     19     -13.9466      2.00000
     20     -13.9408      2.00000
     21     -13.9326      2.00000
     22     -13.9286      2.00000
     23     -13.9220      2.00000
     24     -13.9205      2.00000
     25     -13.8720      2.00000
     26     -13.8641      2.00000
     27     -13.4036      2.00000
     28     -13.3950      2.00000
     29     -13.3552      2.00000
     30     -13.3474      2.00000
     31     -13.3277      2.00000
     32     -13.3259      2.00000
     33     -11.0799      2.00000
     34     -11.0683      2.00000
     35     -10.7202      2.00000
     36     -10.7054      2.00000
     37      -6.5380      2.00000
     38      -6.5215      2.00000
     39      -6.2854      2.00000
     40      -6.2776      2.00000
     41      -6.2058      2.00000
     42      -6.1984      2.00000
     43      -5.9774      2.00000
     44      -5.9642      2.00000
     45      -5.9181      2.00000
     46      -5.8730      2.00000
     47      -5.8302      2.00000
     48      -5.7191      2.00000
     49      -2.8842      2.00000
     50      -2.7949      2.00000
     51      -2.6502      2.00000
     52      -2.5994      2.00000
     53      -2.3109      2.00000
     54      -2.2274      2.00000
     55      -2.2063      2.00000
     56      -2.1804      2.00000
     57      -2.0312      2.00000
     58      -2.0075      2.00000
     59      -1.9105      2.00000
     60      -1.8265      2.00000
     61      -1.7518      2.00000
     62      -1.6781      2.00000
     63      -1.5774      2.00000
     64      -1.5139      2.00000
     65      -1.3799      2.00000
     66      -1.3124      2.00000
     67      -1.2620      2.00000
     68      -1.1406      2.00000
     69      -1.0234      2.00000
     70      -0.9429      2.00000
     71      -0.9197      2.00000
     72      -0.8542      2.00000
     73       0.1850      0.00000
     74       0.2265      0.00000
     75       0.3870      0.00000
     76       0.4319      0.00000
     77       0.5299      0.00000
     78       0.6217      0.00000
     79       0.7535      0.00000
     80       0.7665      0.00000
     81       0.8120      0.00000
     82       0.8673      0.00000
     83       1.0252      0.00000
     84       1.0570      0.00000
     85       1.1758      0.00000
     86       1.3367      0.00000
     87       1.4175      0.00000
     88       1.5509      0.00000

 k-point    15 :       0.0000    0.5000    0.4000
  band No.  band energies     occupation 
      1     -29.6589      2.00000
      2     -29.6589      2.00000
      3     -28.6776      2.00000
      4     -28.6776      2.00000
      5     -28.6360      2.00000
      6     -28.6360      2.00000
      7     -28.0480      2.00000
      8     -28.0479      2.00000
      9     -14.9722      2.00000
     10     -14.9722      2.00000
     11     -14.9114      2.00000
     12     -14.9114      2.00000
     13     -14.8477      2.00000
     14     -14.8477      2.00000
     15     -14.0808      2.00000
     16     -14.0808      2.00000
     17     -13.9930      2.00000
     18     -13.9930      2.00000
     19     -13.9466      2.00000
     20     -13.9466      2.00000
     21     -13.9335      2.00000
     22     -13.9335      2.00000
     23     -13.9206      2.00000
     24     -13.9206      2.00000
     25     -13.8675      2.00000
     26     -13.8675      2.00000
     27     -13.3991      2.00000
     28     -13.3991      2.00000
     29     -13.3515      2.00000
     30     -13.3515      2.00000
     31     -13.3262      2.00000
     32     -13.3262      2.00000
     33     -11.0682      2.00000
     34     -11.0682      2.00000
     35     -10.7034      2.00000
     36     -10.7034      2.00000
     37      -6.5592      2.00000
     38      -6.5592      2.00000
     39      -6.2588      2.00000
     40      -6.2588      2.00000
     41      -6.1988      2.00000
     42      -6.1988      2.00000
     43      -5.9467      2.00000
     44      -5.9467      2.00000
     45      -5.9067      2.00000
     46      -5.9067      2.00000
     47      -5.7696      2.00000
     48      -5.7696      2.00000
     49      -2.7936      2.00000
     50      -2.7936      2.00000
     51      -2.6440      2.00000
     52      -2.6440      2.00000
     53      -2.2658      2.00000
     54      -2.2658      2.00000
     55      -2.2047      2.00000
     56      -2.2047      2.00000
     57      -2.0237      2.00000
     58      -2.0237      2.00000
     59      -1.8170      2.00000
     60      -1.8170      2.00000
     61      -1.6136      2.00000
     62      -1.6136      2.00000
     63      -1.5993      2.00000
     64      -1.5993      2.00000
     65      -1.3627      2.00000
     66      -1.3627      2.00000
     67      -1.2031      2.00000
     68      -1.2031      2.00000
     69      -1.0126      2.00000
     70      -1.0126      2.00000
     71      -0.8894      2.00000
     72      -0.8894      2.00000
     73       0.1268      0.00000
     74       0.1268      0.00000
     75       0.3747      0.00000
     76       0.3747      0.00000
     77       0.5794      0.00000
     78       0.5794      0.00000
     79       0.7239      0.00000
     80       0.7239      0.00000
     81       0.7774      0.00000
     82       0.7774      0.00000
     83       1.0603      0.00000
     84       1.0603      0.00000
     85       1.2599      0.00000
     86       1.2599      0.00000
     87       1.3987      0.00000
     88       1.3987      0.00000


--------------------------------------------------------------------------------------------------------


 soft charge-density along one line, spin component           1
         0         1         2         3         4         5         6         7         8         9
 total charge-density along one line
 
 pseudopotential strength for first ion, spin component:           1
  4.876  -5.566  -0.000  -0.006  -0.024  -0.000  -0.004  -0.020
 -5.566  -2.760   0.000   0.001   0.004  -0.000  -0.001  -0.004
 -0.000   0.000  -6.821  -0.000  -0.000   1.884  -0.000  -0.000
 -0.006   0.001  -0.000  -6.816  -0.001  -0.000   1.895  -0.003
 -0.024   0.004  -0.000  -0.001  -6.816  -0.000  -0.003   1.894
 -0.000  -0.000   1.884  -0.000  -0.000   7.262  -0.000  -0.000
 -0.004  -0.001  -0.000   1.895  -0.003  -0.000   7.263  -0.000
 -0.020  -0.004  -0.000  -0.003   1.894  -0.000  -0.000   7.263
 -0.000   0.000  -0.012  -0.000  -0.000  -0.009  -0.000  -0.000
 -0.000   0.000  -0.001  -0.000  -0.000  -0.000  -0.000  -0.000
  0.002  -0.001   0.000  -0.004   0.006   0.000  -0.003   0.005
 -0.002   0.001  -0.000  -0.011  -0.002  -0.000  -0.008  -0.002
  0.003  -0.001   0.000  -0.001  -0.011   0.000  -0.001  -0.008
  0.000   0.000   0.001   0.000   0.000   0.000   0.000   0.000
  0.000   0.000   0.000   0.000   0.000  -0.000   0.000   0.000
 -0.000  -0.000  -0.000   0.000  -0.000  -0.000   0.000  -0.000
  0.000   0.000   0.000   0.001   0.000   0.000   0.000   0.000
 -0.000  -0.000  -0.000   0.000   0.000  -0.000   0.000   0.000
 total augmentation occupancy for first ion, spin component:           1
  2.108  -0.260   0.000   0.012   0.051   0.000  -0.005  -0.019   0.000   0.000   0.014  -0.008   0.031   0.000   0.000  -0.008
 -0.260   0.635  -0.000  -0.032  -0.133   0.000   0.012   0.032   0.000   0.000  -0.023   0.008  -0.060   0.000  -0.000   0.036
  0.000   0.000   2.012   0.000  -0.000  -0.015   0.000  -0.000  -0.080   0.022   0.000   0.000   0.000   0.068  -0.043  -0.000
  0.012  -0.032   0.000   1.999   0.003   0.000  -0.006  -0.002   0.000   0.000  -0.044  -0.065  -0.014   0.000   0.000   0.043
  0.051  -0.133   0.000   0.003   1.994   0.000  -0.002  -0.004   0.000   0.000   0.033  -0.006  -0.050   0.000   0.000  -0.027
  0.000   0.000  -0.015   0.000  -0.000   0.008  -0.000   0.000   0.022  -0.009   0.000   0.000   0.000  -0.030   0.014  -0.000
 -0.005   0.012   0.000  -0.006  -0.002   0.000   0.005   0.000   0.000   0.000   0.015   0.015   0.005   0.000   0.000  -0.022
 -0.019   0.032  -0.000  -0.002  -0.004   0.000   0.000   0.004   0.000   0.000  -0.007   0.000   0.009   0.000   0.000   0.009
  0.000   0.000  -0.080   0.000  -0.000   0.022  -0.000   0.000   0.146  -0.014   0.000   0.000  -0.000  -0.186   0.020   0.000
 -0.000   0.000   0.022  -0.000   0.000  -0.009   0.000   0.000  -0.014   0.067   0.000   0.000   0.000   0.018  -0.085   0.000
  0.014  -0.023  -0.000  -0.044   0.033   0.000   0.015  -0.007   0.000   0.000   0.120   0.049   0.019   0.000   0.000  -0.149
 -0.008   0.008   0.000  -0.065  -0.006  -0.000   0.015   0.000   0.000  -0.000   0.049   0.087   0.008  -0.000  -0.000  -0.069
  0.031  -0.060   0.000  -0.014  -0.050   0.000   0.005   0.009   0.000  -0.000   0.019   0.008   0.092   0.000   0.000  -0.026
  0.000   0.000   0.068   0.000  -0.000  -0.030  -0.000  -0.000  -0.186   0.018   0.000  -0.000   0.000   0.266  -0.034  -0.000
  0.000   0.000  -0.043   0.000   0.000   0.014   0.000   0.000   0.020  -0.085   0.000   0.000   0.000  -0.034   0.116   0.000
 -0.008   0.036   0.000   0.043  -0.027   0.000  -0.022   0.009   0.000   0.000  -0.149  -0.069  -0.026   0.000   0.000   0.207
  0.006  -0.025   0.000   0.054  -0.001  -0.000  -0.023  -0.001   0.000   0.000  -0.068  -0.112  -0.011   0.000   0.000   0.105
 -0.024   0.073   0.000   0.022   0.042   0.000  -0.008  -0.012  -0.000   0.000  -0.027  -0.013  -0.123  -0.000   0.000   0.043


------------------------ aborting loop because EDIFF is reached ----------------------------------------


    CHARGE:  cpu time    0.1971: real time    0.1975
    FORLOC:  cpu time    0.0097: real time    0.0097
    FORNL :  cpu time    0.5613: real time    0.5632
    STRESS:  cpu time    1.6020: real time    1.6259
    FORCOR:  cpu time    2.5226: real time    2.5286
    FORHAR:  cpu time    0.0240: real time    0.0241
    MIXING:  cpu time    0.0106: real time    0.0107
    OFIELD:  cpu time    0.0000: real time    0.0000

  FORCE on cell =-STRESS in cart. coord.  units (eV):
  Direction    XX          YY          ZZ          XY          YZ          ZX
  --------------------------------------------------------------------------------------
  Alpha Z   170.45751   170.45751   170.45751
  Ewald  -19572.48433 15960.47794 15422.32306    -0.00002     0.00000   139.35889
  Hartree-16497.78023 17570.81372 17151.49366     0.00000    -0.00000   105.93590
  E(xc)    -461.22485  -462.47915  -462.48569    -0.00000    -0.00000     0.06991
  Local   34653.88048-34966.55208-34001.32106     0.00001    -0.00000  -242.82614
  n-local   336.49695   336.60279   337.36634     0.06212    -0.21026    -1.60396
  augment  -167.61334  -167.98146  -167.86960    -0.00000    -0.00000     0.32930
  Kinetic  1527.88041  1545.77199  1537.60814    -0.03438    -0.85070    -1.14300
  Fock        0.00000     0.00000     0.00000     0.00000     0.00000     0.00000
  -------------------------------------------------------------------------------------
  Total     -10.38742   -12.88875   -12.42763     0.00000     0.00000     0.12091
  in kB      -8.81466   -10.93726   -10.54596     0.00000     0.00000     0.10260
  external pressure =      -10.10 kB  Pullay stress =        0.00 kB


 VOLUME and BASIS-vectors are now :
 -----------------------------------------------------------------------------
  energy-cutoff  :      500.00
  volume of cell :     1888.05
      direct lattice vectors                 reciprocal lattice vectors
    24.009468079  0.000000000  0.000000000     0.041650236  0.000000000  0.000000000
     0.000000000  6.777849674  0.000000000     0.000000000  0.147539419  0.000000000
     0.000000000  0.000000000 11.602143288     0.000000000  0.000000000  0.086190971

  length of vectors
    24.009468079  6.777849674 11.602143288     0.041650236  0.147539419  0.086190971


 FORCES acting on ions
    electron-ion (+dipol)            ewald-force                    non-local-force                 convergence-correction
 -----------------------------------------------------------------------------------------------
   0.780E+03 0.102E-04 0.435E+02   -.776E+03 0.985E-05 -.427E+02   -.402E+01 -.141E-18 -.795E+00   -.202E-03 -.215E-08 0.112E-04
   -.780E+03 -.632E-04 -.435E+02   0.776E+03 -.128E-04 0.427E+02   0.402E+01 -.734E-19 0.795E+00   0.202E-03 0.230E-08 -.112E-04
   0.826E+02 -.606E-04 -.359E+02   -.823E+02 -.184E-04 0.347E+02   -.859E-01 0.324E-18 0.122E+01   0.576E-04 0.361E-08 0.346E-04
   -.826E+02 0.113E-04 0.359E+02   0.823E+02 0.130E-04 -.347E+02   0.859E-01 0.268E-18 -.122E+01   -.576E-04 -.335E-08 -.346E-04
   0.627E+03 -.612E-04 -.495E+02   -.624E+03 -.166E-04 0.500E+02   -.180E+01 -.648E-18 -.462E+00   -.141E-03 0.289E-08 -.141E-03
   -.627E+03 0.902E-05 0.495E+02   0.624E+03 0.144E-04 -.500E+02   0.180E+01 -.508E-18 0.462E+00   0.141E-03 -.276E-08 0.141E-03
   0.362E+03 0.118E-04 -.749E+01   -.361E+03 0.133E-04 0.679E+01   -.788E+00 0.153E-17 0.697E+00   0.621E-04 -.319E-08 0.972E-04
   -.362E+03 -.617E-04 0.749E+01   0.361E+03 -.134E-04 -.679E+01   0.788E+00 0.158E-17 -.697E+00   -.621E-04 0.303E-08 -.972E-04
   0.274E+03 0.356E+02 -.460E+02   -.274E+03 -.374E+02 0.470E+02   -.174E+00 0.174E+01 -.933E+00   0.199E-04 0.208E-04 -.578E-05
   -.274E+03 -.356E+02 0.460E+02   0.274E+03 0.374E+02 -.470E+02   0.174E+00 -.174E+01 0.933E+00   -.199E-04 -.208E-04 0.578E-05
   0.122E+03 -.314E+02 0.270E+01   -.122E+03 0.328E+02 -.154E+01   -.257E+00 -.137E+01 -.115E+01   -.170E-04 -.447E-04 -.394E-04
   -.122E+03 0.314E+02 -.270E+01   0.122E+03 -.328E+02 0.154E+01   0.257E+00 0.137E+01 0.115E+01   0.170E-04 0.447E-04 0.394E-04
   -.274E+03 0.356E+02 0.460E+02   0.274E+03 -.374E+02 -.470E+02   0.174E+00 0.174E+01 0.933E+00   -.199E-04 0.208E-04 0.578E-05
   0.274E+03 -.356E+02 -.460E+02   -.274E+03 0.374E+02 0.470E+02   -.174E+00 -.174E+01 -.933E+00   0.199E-04 -.208E-04 -.578E-05
   -.122E+03 -.314E+02 -.270E+01   0.122E+03 0.328E+02 0.154E+01   0.257E+00 -.137E+01 0.115E+01   0.170E-04 -.447E-04 0.394E-04
   0.122E+03 0.314E+02 0.270E+01   -.122E+03 -.328E+02 -.154E+01   -.257E+00 0.137E+01 -.115E+01   -.170E-04 0.447E-04 -.394E-04
   0.330E+03 -.437E-05 0.459E+02   -.332E+03 -.609E-05 -.464E+02   0.147E+01 0.492E-18 0.458E+00   0.196E-04 0.899E-09 0.401E-04
   -.330E+03 0.617E-05 -.459E+02   0.332E+03 0.630E-05 0.464E+02   -.147E+01 0.452E-18 -.458E+00   -.196E-04 -.101E-08 -.401E-04
   0.331E+02 0.943E-05 -.106E+02   -.314E+02 0.759E-05 0.992E+01   -.140E+01 0.285E-19 0.664E+00   0.561E-07 -.139E-08 0.210E-04
   -.331E+02 -.184E-05 0.106E+02   0.314E+02 -.727E-05 -.992E+01   0.140E+01 -.473E-19 -.664E+00   -.551E-07 0.128E-08 -.210E-04
   0.241E+03 0.437E-05 0.106E+02   -.241E+03 0.807E-05 -.121E+02   -.344E+00 0.784E-18 0.151E+01   -.317E-04 -.120E-08 -.224E-04
   -.241E+03 -.570E-05 -.106E+02   0.241E+03 -.813E-05 0.121E+02   0.344E+00 0.251E-18 -.151E+01   0.317E-04 0.110E-08 0.223E-04
   0.157E+03 -.630E-05 0.589E+02   -.157E+03 -.760E-05 -.608E+02   -.759E+00 -.332E-17 0.192E+01   0.124E-04 0.118E-08 0.822E-04
   -.157E+03 0.371E-05 -.589E+02   0.157E+03 0.742E-05 0.608E+02   0.759E+00 0.194E-17 -.192E+01   -.124E-04 -.122E-08 -.821E-04
 -----------------------------------------------------------------------------------------------
   0.624E-04 -.210E-03 0.825E-04   0.568E-13 0.215E-13 -.213E-13   0.000E+00 -.444E-15 -.222E-15   -.138E-08 -.263E-09 -.696E-08
 
 
 POSITION                                       TOTAL-FORCE (eV/Angst)
 -----------------------------------------------------------------------------------
      0.13670      1.69446      8.18004         0.769860     -0.000000      0.000600
      9.12277      5.08339      3.42210        -0.769860      0.000000     -0.000600
      4.36803      5.08339      2.16019         0.166744      0.000000      0.000329
      4.89143      1.69446      9.44195        -0.166744      0.000000     -0.000329
      1.43529      5.08339     10.63468         0.729887      0.000000      0.000404
      7.82418      1.69446      0.96747        -0.729887     -0.000000     -0.000404
      3.06944      1.69446      4.61908         0.465119      0.000000      0.000277
      6.19002      5.08339      6.98307        -0.465119     -0.000000     -0.000277
      1.75027      0.48843      1.67555        -0.138685      0.000488     -0.000315
      7.50920      6.28942      9.92659         0.138685     -0.000488      0.000315
      2.75446      6.29823      7.65168         0.214459     -0.000081     -0.000249
      6.50500      0.47962      3.95046        -0.214459      0.000081      0.000249
      7.50920      3.87736      9.92659         0.138685      0.000488      0.000315
      1.75027      2.90049      1.67555        -0.138685     -0.000488     -0.000315
      6.50500      2.90930      3.95046        -0.214459     -0.000081      0.000249
      2.75446      3.86855      7.65168         0.214459      0.000081     -0.000249
      0.74693      5.08339      6.96151        -0.259879      0.000000      0.000378
      8.51254      1.69446      4.64063         0.259879      0.000000     -0.000378
      3.75780      1.69446      0.96921         0.332263     -0.000000     -0.000006
      5.50166      5.08339     10.63293        -0.332263     -0.000000      0.000006
      1.78112      1.69446     11.15538        -0.184770     -0.000000      0.000751
      7.47835      5.08339      0.44677         0.184770     -0.000000     -0.000751
      2.72362      5.08339      5.52972        -0.146675     -0.000000      0.000045
      6.53585      1.69446      6.07242         0.146675      0.000000     -0.000045
 -----------------------------------------------------------------------------------
    total drift:                                0.000062     -0.000210      0.000083


--------------------------------------------------------------------------------------------------------



  FREE ENERGIE OF THE ION-ELECTRON SYSTEM (eV)
  ---------------------------------------------------
  free  energy   TOTEN  =       -89.76837674 eV

  energy  without entropy=      -89.76837674  energy(sigma->0) =      -89.76837674
 


--------------------------------------------------------------------------------------------------------


    POTLOK:  cpu time    2.6430: real time    2.6493


--------------------------------------------------------------------------------------------------------


 writing wavefunctions
     LOOP+:  cpu time13976.6730: real time14011.0234
    4ORBIT:  cpu time    0.0000: real time    0.0000
 BZINTS: Fermi energy: -0.578313;144.000000 electrons
         Band energy:***********;  BLOECHL correction:  0.000000

 total amount of memory used by VASP MPI-rank0    79355. kBytes
=======================================================================

   base      :      30000. kBytes
   nonlr-proj:       2649. kBytes
   fftplans  :       5898. kBytes
   grid      :       8824. kBytes
   one-center:         93. kBytes
   wavefun   :      31891. kBytes
 
  
  
 General timing and accounting informations for this job:
 ========================================================
  
                  Total CPU time used (sec):    13985.057
                            User time (sec):    13820.217
                          System time (sec):      164.839
                         Elapsed time (sec):    14022.446
  
                   Maximum memory used (kb):      302832.
                   Average memory used (kb):           0.
  
                          Minor page faults:       109676
                          Major page faults:          166
                 Voluntary context switches:        13505
