 vasp.5.4.4.18Apr17-6-g9f103f2a35 (build Nov 21 2017 15:30:27) complex          
  
 executed on             LinuxIFC date 2020.09.15  12:19:59
 running on   64 total cores
 distrk:  each k-point on   32 cores,    2 groups
 distr:  one band on NCORES_PER_BAND=   4 cores,    8 groups


--------------------------------------------------------------------------------------------------------


 INCAR:
 POTCAR:   PAW_PBE Ba_sv 06Sep2000                
 POTCAR:   PAW_PBE Si 05Jan2001                   

 ----------------------------------------------------------------------------- 
|                                                                             |
|           W    W    AA    RRRRR   N    N  II  N    N   GGGG   !!!           |
|           W    W   A  A   R    R  NN   N  II  NN   N  G    G  !!!           |
|           W    W  A    A  R    R  N N  N  II  N N  N  G       !!!           |
|           W WW W  AAAAAA  RRRRR   N  N N  II  N  N N  G  GGG   !            |
|           WW  WW  A    A  R   R   N   NN  II  N   NN  G    G                |
|           W    W  A    A  R    R  N    N  II  N    N   GGGG   !!!           |
|                                                                             |
|      You have enabled k-point parallelism (KPAR>1).                         |
|      This developmental code was originally  written by Paul Kent at ORNL,  |
|      and carefully double checked in Vienna.                                |
|      GW as well as linear response parallelism added by Martijn Marsman     |
|      and Georg Kresse.                                                      |
|      Carefully verify results versus KPAR=1.                                |
|      Report problems to Paul Kent and Vienna.                               |
|                                                                             |
 ----------------------------------------------------------------------------- 


 ----------------------------------------------------------------------------- 
|                                                                             |
|  ADVICE TO THIS USER RUNNING 'VASP/VAMP'   (HEAR YOUR MASTER'S VOICE ...):  |
|                                                                             |
|      You have switched on vdW-DFT.                                          |
|      This routine was written and supplied by Jiri Klimes.                  |
|      We recommed that you carefully read and cite the following             |
|      publication                                                            |
|      J. Klimes, D.R. Bowler, A. Michelides                                  |
|        J. Phys.: Cond Matt. 22 022201 (2010)                                |
|      J. Klimes, D.R. Bowler, A. Michelides                                  |
|        Phys. Rev. B. 83, 195131 (2011)                                      |
|      and references therein.                                                |
|                                                                             |
 ----------------------------------------------------------------------------- 

 POTCAR:   PAW_PBE Ba_sv 06Sep2000                
   VRHFIN =Ba: 5s5p6s                                                           
   LEXCH  = PE                                                                  
   EATOM  =   700.2255 eV,   51.4651 Ry                                         
                                                                                
   TITEL  = PAW_PBE Ba_sv 06Sep2000                                             
   LULTRA =        F    use ultrasoft PP ?                                      
   IUNSCR =        1    unscreen: 0-lin 1-nonlin 2-no                           
   RPACOR =    2.400    partial core radius                                     
   POMASS =  137.327; ZVAL   =   10.000    mass and valenz                      
   RCORE  =    2.800    outmost cutoff radius                                   
   RWIGS  =    3.740; RWIGS  =    1.979    wigner-seitz radius (au A)           
   ENMAX  =  187.210; ENMIN  =  140.408 eV                                      
   RCLOC  =    2.516    cutoff for local pot                                    
   LCOR   =        T    correct aug charges                                     
   LPAW   =        T    paw PP                                                  
   EAUG   =  351.165                                                            
   DEXC   =     .000                                                            
   RMAX   =    3.370    core radius for proj-oper                               
   RAUG   =    1.300    factor for augmentation sphere                          
   RDEP   =    2.976    radius for radial grids                                 
   QCUT   =   -3.709; QGAM   =    7.419    optimization parameters              
                                                                                
   Description                                                                  
     l     E      TYP  RCUT    TYP  RCUT                                        
     0   .000     23  2.800                                                     
     0   .000     23  2.800                                                     
     1   .000     23  2.700                                                     
     1  2.000     23  2.700                                                     
     2   .000     23  2.700                                                     
     2   .000     23  2.700                                                     
  local pseudopotential read in
  partial core-charges read in
  atomic valenz-charges read in
  non local Contribution for L=           0  read in
    real space projection operators read in
  non local Contribution for L=           0  read in
    real space projection operators read in
  non local Contribution for L=           1  read in
    real space projection operators read in
  non local Contribution for L=           1  read in
    real space projection operators read in
  non local Contribution for L=           2  read in
    real space projection operators read in
  non local Contribution for L=           2  read in
    real space projection operators read in
    PAW grid and wavefunctions read in
 
   number of l-projection  operators is LMAX  =           6
   number of lm-projection operators is LMMAX =          18
 
 POTCAR:   PAW_PBE Si 05Jan2001                   
   VRHFIN =Si: s2p2                                                             
   LEXCH  = PE                                                                  
   EATOM  =   103.0669 eV,    7.5752 Ry                                         
                                                                                
   TITEL  = PAW_PBE Si 05Jan2001                                                
   LULTRA =        F    use ultrasoft PP ?                                      
   IUNSCR =        1    unscreen: 0-lin 1-nonlin 2-no                           
   RPACOR =    1.500    partial core radius                                     
   POMASS =   28.085; ZVAL   =    4.000    mass and valenz                      
   RCORE  =    1.900    outmost cutoff radius                                   
   RWIGS  =    2.480; RWIGS  =    1.312    wigner-seitz radius (au A)           
   ENMAX  =  245.345; ENMIN  =  184.009 eV                                      
   ICORE  =        2    local potential                                         
   LCOR   =        T    correct aug charges                                     
   LPAW   =        T    paw PP                                                  
   EAUG   =  322.069                                                            
   DEXC   =    -.007                                                            
   RMAX   =    2.944    core radius for proj-oper                               
   RAUG   =    1.300    factor for augmentation sphere                          
   RDEP   =    1.993    radius for radial grids                                 
   QCUT   =   -4.246; QGAM   =    8.493    optimization parameters              
                                                                                
   Description                                                                  
     l     E      TYP  RCUT    TYP  RCUT                                        
     0   .000     23  1.900                                                     
     0   .000     23  1.900                                                     
     1   .000     23  1.900                                                     
     1   .000     23  1.900                                                     
     2   .000      7  1.900                                                     
  local pseudopotential read in
  partial core-charges read in
  atomic valenz-charges read in
  non local Contribution for L=           0  read in
    real space projection operators read in
  non local Contribution for L=           0  read in
    real space projection operators read in
  non local Contribution for L=           1  read in
    real space projection operators read in
  non local Contribution for L=           1  read in
    real space projection operators read in
    PAW grid and wavefunctions read in
 
   number of l-projection  operators is LMAX  =           4
   number of lm-projection operators is LMMAX =           8
 
 Optimization of the real space projectors (new method)

 maximal supplied QI-value         = 13.42
 optimisation between [QCUT,QGAM] = [ 11.40, 22.81] = [ 36.42,145.68] Ry 
 Optimized for a Real-space Cutoff    1.56 Angstroem

   l    n(q)    QCUT    max X(q) W(low)/X(q) W(high)/X(q)  e(spline) 
   0     11    11.404     7.198    0.14E-04    0.26E-04    0.99E-07
   0     11    11.404    15.603    0.29E-04    0.72E-04    0.44E-06
   1     10    11.404     3.746    0.20E-04    0.24E-04    0.43E-07
   1     10    11.404     4.362    0.22E-03    0.97E-04    0.22E-06
   2     10    11.404     5.782    0.83E-04    0.62E-05    0.27E-06
   2     10    11.404    65.505    0.42E-03    0.31E-04    0.12E-05
 Optimization of the real space projectors (new method)

 maximal supplied QI-value         = 19.84
 optimisation between [QCUT,QGAM] = [ 11.31, 22.82] = [ 35.82,145.81] Ry 
 Optimized for a Real-space Cutoff    1.16 Angstroem

   l    n(q)    QCUT    max X(q) W(low)/X(q) W(high)/X(q)  e(spline) 
   0      8    11.310     8.708    0.14E-04    0.11E-04    0.43E-08
   0      8    11.310   106.241    0.27E-03    0.30E-03    0.38E-07
   1      7    11.310     5.901    0.82E-05    0.48E-04    0.19E-07
   1      7    11.310    73.241    0.27E-03    0.27E-03    0.74E-07

 ----------------------------------------------------------------------------- 
|                                                                             |
|  ADVICE TO THIS USER RUNNING 'VASP/VAMP'   (HEAR YOUR MASTER'S VOICE ...):  |
|                                                                             |
|      You enforced a specific xc-type in the INCAR file,                     |
|      a different type was found on the POTCAR file                          |
|          I HOPE YOU KNOW, WHAT YOU ARE  DOING                               |
|                                                                             |
 ----------------------------------------------------------------------------- 

 PAW_PBE Ba_sv 06Sep2000                :
 energy of atom  1       EATOM= -700.2255
 kinetic energy error for atom=    0.0005 (will be added to EATOM!!)
 PAW_PBE Si 05Jan2001                   :
 energy of atom  2       EATOM= -103.0669
 kinetic energy error for atom=    0.0006 (will be added to EATOM!!)
 
 
 POSCAR: ba8 si16                                
  positions in direct lattice
  velocities in cartesian coordinates
 exchange correlation table for  LEXCH =       43
   RHO(1)=    0.500       N(1)  =     2000
   RHO(2)=  100.500       N(2)  =     4000
 


--------------------------------------------------------------------------------------------------------


 ion  position               nearest neighbor table
   1  0.006  0.250  0.705-  21 3.39  16 3.44  11 3.44  17 3.65  17 3.65   5 4.38   5 4.38   7 4.62

   2  0.382  0.750  0.295-  22 3.39  12 3.44  15 3.44  18 3.65  18 3.65   6 4.38   6 4.38   8 4.62

   3  0.182  0.750  0.186-  20 3.33   9 3.44  14 3.44  12 3.56  15 3.56  22 3.59  19 3.65  19 3.65
                            23 3.75   5 4.29   7 4.38   7 4.38
   4  0.206  0.250  0.814-  19 3.33  13 3.44  10 3.44  16 3.56  11 3.56  21 3.59  20 3.65  20 3.65
                            24 3.75   6 4.29   8 4.38   8 4.38
   5  0.060  0.750  0.916-   9 3.44  14 3.44  21 3.45  21 3.45  11 3.47  16 3.47  17 3.73   3 4.29
                             1 4.38   1 4.38
   6  0.328  0.250  0.084-  13 3.44  10 3.44  22 3.45  22 3.45  15 3.47  12 3.47  18 3.73   4 4.29
                             2 4.38   2 4.38
   7  0.128  0.250  0.398-  14 3.45   9 3.45  23 3.53  23 3.53  19 3.72  16 3.75  11 3.75  15 3.75
                            12 3.75  24 3.81   3 4.38   3 4.38   1 4.62
   8  0.260  0.750  0.602-  10 3.45  13 3.45  24 3.53  24 3.53  20 3.72  12 3.75  15 3.75  11 3.75
                            16 3.75  23 3.81   4 4.38   4 4.38   2 4.62
   9  0.073  0.072  0.144-  14 2.41  21 2.44  19 2.45   5 3.44   3 3.44   7 3.45
  10  0.315  0.928  0.856-  13 2.41  22 2.44  20 2.45   6 3.44   4 3.44   8 3.45
  11  0.115  0.929  0.660-  16 2.43  17 2.45  23 2.45   1 3.44   5 3.47   4 3.56   7 3.75   8 3.75

  12  0.273  0.071  0.340-  15 2.43  18 2.45  24 2.45   2 3.44   6 3.47   3 3.56   8 3.75   7 3.75

  13  0.315  0.572  0.856-  10 2.41  22 2.44  20 2.45   6 3.44   4 3.44   8 3.45
  14  0.073  0.428  0.144-   9 2.41  21 2.44  19 2.45   5 3.44   3 3.44   7 3.45
  15  0.273  0.429  0.340-  12 2.43  18 2.45  24 2.45   2 3.44   6 3.47   3 3.56   8 3.75   7 3.75

  16  0.115  0.571  0.660-  11 2.43  17 2.45  23 2.45   1 3.44   5 3.47   4 3.56   7 3.75   8 3.75

  17  0.031  0.750  0.600-  23 2.44  11 2.45  16 2.45   1 3.65   1 3.65   5 3.73
  18  0.357  0.250  0.400-  24 2.44  15 2.45  12 2.45   2 3.65   2 3.65   6 3.73
  19  0.157  0.250  0.082-  21 2.43  14 2.45   9 2.45   4 3.33   3 3.65   3 3.65   7 3.72
  20  0.231  0.750  0.918-  22 2.43  10 2.45  13 2.45   3 3.33   4 3.65   4 3.65   8 3.72
  21  0.074  0.250  0.961-  19 2.43  14 2.44   9 2.44   1 3.39   5 3.45   5 3.45   4 3.59
  22  0.314  0.750  0.039-  20 2.43  10 2.44  13 2.44   2 3.39   6 3.45   6 3.45   3 3.59
  23  0.113  0.750  0.477-  17 2.44  11 2.45  16 2.45   7 3.53   7 3.53   3 3.75   8 3.81
  24  0.274  0.250  0.523-  18 2.44  15 2.45  12 2.45   8 3.53   8 3.53   4 3.75   7 3.81
 
  LATTYP: Found a simple orthorhombic cell.
 ALAT       =     6.7778496742
 B/A-ratio  =     1.7117734747
 C/A-ratio  =     3.5423429602
  
  Lattice vectors:
  
 A1 = (   0.0000000000,   6.7778496742,   0.0000000000)
 A2 = (   0.0000000000,   0.0000000000, -11.6021432877)
 A3 = ( -24.0094680786,   0.0000000000,   0.0000000000)


Analysis of symmetry for initial positions (statically):
=====================================================================
 Subroutine PRICEL returns:
 Original cell was already a primitive cell.
 

 Routine SETGRP: Setting up the symmetry group for a 
 simple orthorhombic supercell.


 Subroutine GETGRP returns: Found  4 space group operations
 (whereof  1 operations were pure point group operations)
 out of a pool of  8 trial point group operations.


The static configuration has the point symmetry C_1 .
 The point group associated with its full space group is C_2h.


Analysis of symmetry for dynamics (positions and initial velocities):
=====================================================================
 Subroutine PRICEL returns:
 Original cell was already a primitive cell.
 

 Routine SETGRP: Setting up the symmetry group for a 
 simple orthorhombic supercell.


 Subroutine GETGRP returns: Found  4 space group operations
 (whereof  1 operations were pure point group operations)
 out of a pool of  8 trial point group operations.


The dynamic configuration has the point symmetry C_1 .
 The point group associated with its full space group is C_2h.


Analysis of constrained symmetry for selective dynamics:
=====================================================================
 Subroutine PRICEL returns:
 Original cell was already a primitive cell.
 

 Routine SETGRP: Setting up the symmetry group for a 
 simple orthorhombic supercell.


 Subroutine GETGRP returns: Found  4 space group operations
 (whereof  1 operations were pure point group operations)
 out of a pool of  8 trial point group operations.


The constrained configuration has the point symmetry C_1 .
 The point group associated with its full space group is C_2h.


 Subroutine INISYM returns: Found  4 space group operations
 (whereof  1 operations are pure point group operations),
 and found     1 'primitive' translations

 
 
 KPOINTS: k-density: 8.0                          

Automatic generation of k-mesh.
Space group operators:
 irot       det(A)        alpha          n_x          n_y          n_z        tau_x        tau_y        tau_z
    1     1.000000     0.000000     1.000000     0.000000     0.000000     0.000000     0.000000     0.000000
    2    -1.000000     0.000000     1.000000     0.000000     0.000000    -0.612258     0.000000     0.000000
    3     1.000000   180.000000     0.000000     1.000000     0.000000    -0.612258     0.500000     0.000000
    4    -1.000000   180.000000     0.000000     1.000000     0.000000     0.000000     0.500000     0.000000
 
 Subroutine IBZKPT returns following result:
 ===========================================
 
 Found     15 irreducible k-points:
 
 Following reciprocal coordinates:
            Coordinates               Weight
  0.000000  0.000000  0.000000      1.000000
  0.000000  0.125000  0.000000      2.000000
  0.000000  0.250000  0.000000      2.000000
  0.000000  0.375000  0.000000      2.000000
  0.000000  0.500000  0.000000      1.000000
  0.000000  0.000000  0.200000      2.000000
  0.000000  0.125000  0.200000      4.000000
  0.000000  0.250000  0.200000      4.000000
  0.000000  0.375000  0.200000      4.000000
  0.000000  0.500000  0.200000      2.000000
  0.000000  0.000000  0.400000      2.000000
  0.000000  0.125000  0.400000      4.000000
  0.000000  0.250000  0.400000      4.000000
  0.000000  0.375000  0.400000      4.000000
  0.000000  0.500000  0.400000      2.000000
 
 Following cartesian coordinates:
            Coordinates               Weight
  0.000000  0.000000  0.000000      1.000000
  0.000000  0.018442  0.000000      2.000000
  0.000000  0.036885  0.000000      2.000000
  0.000000  0.055327  0.000000      2.000000
  0.000000  0.073770  0.000000      1.000000
  0.000000  0.000000  0.017238      2.000000
  0.000000  0.018442  0.017238      4.000000
  0.000000  0.036885  0.017238      4.000000
  0.000000  0.055327  0.017238      4.000000
  0.000000  0.073770  0.017238      2.000000
  0.000000  0.000000  0.034476      2.000000
  0.000000  0.018442  0.034476      4.000000
  0.000000  0.036885  0.034476      4.000000
  0.000000  0.055327  0.034476      4.000000
  0.000000  0.073770  0.034476      2.000000
 
 TETIRR: Found    108 inequivalent tetrahedra from      240


--------------------------------------------------------------------------------------------------------




 Dimension of arrays:
   k-points           NKPTS =     15   k-points in BZ     NKDIM =     15   number of bands    NBANDS=     88
   number of dos      NEDOS =    301   number of ions     NIONS =     24
   non local maximal  LDIM  =      6   non local SUM 2l+1 LMDIM =     18
   total plane-waves  NPLWV = 358400
   max r-space proj   IRMAX =   3093   max aug-charges    IRDMAX=  12081
   dimension x,y,z NGX =   140 NGY =   40 NGZ =   64
   dimension x,y,z NGXF=   280 NGYF=   80 NGZF=  128
   support grid    NGXF=   280 NGYF=   80 NGZF=  128
   ions per type =               8  16
   NGX,Y,Z   is equivalent  to a cutoff of   9.69,  9.81,  9.17 a.u.
   NGXF,Y,Z  is equivalent  to a cutoff of  19.39, 19.62, 18.34 a.u.

 SYSTEM =  unknown system                          
 POSCAR =  ba8 si16                                

 Startparameter for this run:
   NWRITE =      2    write-flag & timer
   PREC   = normal    normal or accurate (medium, high low for compatibility)
   ISTART =      0    job   : 0-new  1-cont  2-samecut
   ICHARG =      2    charge: 1-file 2-atom 10-const
   ISPIN  =      1    spin polarized calculation?
   LNONCOLLINEAR =      F non collinear calculations
   LSORBIT =      F    spin-orbit coupling
   INIWAV =      1    electr: 0-lowe 1-rand  2-diag
   LASPH  =      T    aspherical Exc in radial PAW
   METAGGA=      F    non-selfconsistent MetaGGA calc.

 Electronic Relaxation 1
   ENCUT  =  500.0 eV  36.75 Ry    6.06 a.u.  43.77 12.36 21.15*2*pi/ulx,y,z
   ENINI  =  500.0     initial cutoff
   ENAUG  =  351.2 eV  augmentation charge cutoff
   NELM   =    100;   NELMIN=  2; NELMDL= -5     # of ELM steps 
   EDIFF  = 0.1E-05   stopping-criterion for ELM
   LREAL  =      T    real-space projection
   NLSPLINE    = F    spline interpolate recip. space projectors
   LCOMPAT=      F    compatible to vasp.4.4
   GGA_COMPAT  = T    GGA compatible to vasp.4.4-vasp.4.6
   LMAXPAW     = -100 max onsite density
   LMAXMIX     =    2 max onsite mixed and CHGCAR
   VOSKOWN=      0    Vosko Wilk Nusair interpolation
   ROPT   =   -0.00050  -0.00050
 Ionic relaxation
   EDIFFG = -.1E-02   stopping-criterion for IOM
   NSW    =      0    number of steps for IOM
   NBLOCK =      1;   KBLOCK =      1    inner block; outer block 
   IBRION =     -1    ionic relax: 0-MD 1-quasi-New 2-CG
   NFREE  =      0    steps in history (QN), initial steepest desc. (CG)
   ISIF   =      2    stress and relaxation
   IWAVPR =     10    prediction:  0-non 1-charg 2-wave 3-comb
   ISYM   =      2    0-nonsym 1-usesym 2-fastsym
   LCORR  =      T    Harris-Foulkes like correction to forces

   POTIM  = 0.3000    time-step for ionic-motion
   TEIN   =    0.0    initial temperature
   TEBEG  =    0.0;   TEEND  =   0.0 temperature during run
   SMASS  =  -3.00    Nose mass-parameter (am)
   estimated Nose-frequenzy (Omega)   =  0.10E-29 period in steps =****** mass=  -0.132E-25a.u.
   SCALEE = 1.0000    scale energy and forces
   NPACO  =    256;   APACO  = 16.0  distance and # of slots for P.C.
   PSTRESS=    0.0 pullay stress

  Mass of Ions in am
   POMASS = 137.33 28.09
  Ionic Valenz
   ZVAL   =  10.00  4.00
  Atomic Wigner-Seitz radii
   RWIGS  =  -1.00 -1.00
  virtual crystal weights 
   VCA    =   1.00  1.00
   NELECT =     144.0000    total number of electrons
   NUPDOWN=      -1.0000    fix difference up-down

 DOS related values:
   EMIN   =  10.00;   EMAX   =-10.00  energy-range for DOS
   EFERMI =   0.00
   ISMEAR =    -5;   SIGMA  =   0.01  broadening in eV -4-tet -1-fermi 0-gaus

 Electronic relaxation 2 (details)
   IALGO  =     38    algorithm
   LDIAG  =      T    sub-space diagonalisation (order eigenvalues)
   LSUBROT=      F    optimize rotation matrix (better conditioning)
   TURBO    =      0    0=normal 1=particle mesh
   IRESTART =      0    0=no restart 2=restart with 2 vectors
   NREBOOT  =      0    no. of reboots
   NMIN     =      0    reboot dimension
   EREF     =   0.00    reference energy to select bands
   IMIX   =      4    mixing-type and parameters
     AMIX     =   0.40;   BMIX     =  1.00
     AMIX_MAG =   1.60;   BMIX_MAG =  1.00
     AMIN     =   0.10
     WC   =   100.;   INIMIX=   1;  MIXPRE=   1;  MAXMIX= -45

 Intra band minimization:
   WEIMIN = 0.0000     energy-eigenvalue tresh-hold
   EBREAK =  0.28E-08  absolut break condition
   DEPER  =   0.30     relativ break condition  

   TIME   =   0.40     timestep for ELM

  volume/ion in A,a.u.               =      78.67       530.88
  Fermi-wavevector in a.u.,A,eV,Ry     =   0.694264  1.311969  6.558046  0.482003
  Thomas-Fermi vector in A             =   1.776709
 
 Write flags
   LWAVE        =      T    write WAVECAR
   LDOWNSAMPLE  =      F    k-point downsampling of WAVECAR
   LCHARG       =      T    write CHGCAR
   LVTOT        =      F    write LOCPOT, total local potential
   LVHAR        =      F    write LOCPOT, Hartree potential only
   LELF         =      F    write electronic localiz. function (ELF)
   LORBIT       =      0    0 simple, 1 ext, 2 COOP (PROOUT), +10 PAW based schemes


 Dipole corrections
   LMONO  =      F    monopole corrections only (constant potential shift)
   LDIPOL =      F    correct potential (dipole corrections)
   IDIPOL =      0    1-x, 2-y, 3-z, 4-all directions 
   EPSILON=  1.0000000 bulk dielectric constant

 Exchange correlation treatment:
   GGA     =    MK    GGA type
   LEXCH   =    43    internal setting for exchange type
   VOSKOWN=      0    Vosko Wilk Nusair interpolation
   LHFCALC =     F    Hartree Fock is set to
   LHFONE  =     F    Hartree Fock one center treatment
   AEXX    =    0.0000 exact exchange contribution

 vdW DFT:
   LUSE_VDW   =     T    switch on vdW DFT
   Zab_VDW    =******    correlation parameter
   PARAM1     =0.1234
   PARAM2     =0.7114
   PARAM3     =0.0000
   -- rVV10 --
   BPARAM     = 6.3000
   CPARAM     = 0.0093

 Linear response parameters
   LEPSILON=     F    determine dielectric tensor
   LRPA    =     F    only Hartree local field effects (RPA)
   LNABLA  =     F    use nabla operator in PAW spheres
   LVEL    =     F    velocity operator in full k-point grid
   LINTERFAST=   F  fast interpolation
   KINTER  =     0    interpolate to denser k-point grid
   CSHIFT  =0.1000    complex shift for real part using Kramers Kronig
   OMEGAMAX=  -1.0    maximum frequency
   DEG_THRESHOLD= 0.2000000E-02 threshold for treating states as degnerate
   RTIME   =   -0.100 relaxation time in fs
  (WPLASMAI=    0.000 imaginary part of plasma frequency in eV, 0.658/RTIME)
   DFIELD  = 0.0000000 0.0000000 0.0000000 field for delta impulse in time
 
 Orbital magnetization related:
   ORBITALMAG=     F  switch on orbital magnetization
   LCHIMAG   =     F  perturbation theory with respect to B field
   DQ        =  0.001000  dq finite difference perturbation B field
   LLRAUG    =     F  two centre corrections for induced B field



--------------------------------------------------------------------------------------------------------


 Static calculation
 charge density and potential will be updated during run
 non-spin polarized calculation
 Variant of blocked Davidson
 Davidson routine will perform the subspace rotation
 perform sub-space diagonalisation
    after iterative eigenvector-optimisation
 modified Broyden-mixing scheme, WC =      100.0
 initial mixing is a Kerker type mixing with AMIX =  0.4000 and BMIX =      1.0000
 Hartree-type preconditioning will be used
 using additional bands           16
 real space projection scheme for non local part
 use partial core corrections
 calculate Harris-corrections to forces 
   (improved forces if not selfconsistent)
 use gradient corrections 
 use of overlap-Matrix (Vanderbilt PP)
 Fermi weights with tetrahedron method with Bloechl corrections


--------------------------------------------------------------------------------------------------------


  energy-cutoff  :      500.00
  volume of cell :     1888.05
      direct lattice vectors                 reciprocal lattice vectors
    24.009468079  0.000000000  0.000000000     0.041650236  0.000000000  0.000000000
     0.000000000  6.777849674  0.000000000     0.000000000  0.147539419  0.000000000
     0.000000000  0.000000000 11.602143288     0.000000000  0.000000000  0.086190971

  length of vectors
    24.009468079  6.777849674 11.602143288     0.041650236  0.147539419  0.086190971


 
 k-points in units of 2pi/SCALE and weight: k-density: 8.0                          
   0.00000000  0.00000000  0.00000000       0.025
   0.00000000  0.01844243  0.00000000       0.050
   0.00000000  0.03688485  0.00000000       0.050
   0.00000000  0.05532728  0.00000000       0.050
   0.00000000  0.07376971  0.00000000       0.025
   0.00000000  0.00000000  0.01723819       0.050
   0.00000000  0.01844243  0.01723819       0.100
   0.00000000  0.03688485  0.01723819       0.100
   0.00000000  0.05532728  0.01723819       0.100
   0.00000000  0.07376971  0.01723819       0.050
   0.00000000  0.00000000  0.03447639       0.050
   0.00000000  0.01844243  0.03447639       0.100
   0.00000000  0.03688485  0.03447639       0.100
   0.00000000  0.05532728  0.03447639       0.100
   0.00000000  0.07376971  0.03447639       0.050
 
 k-points in reciprocal lattice and weights: k-density: 8.0                          
   0.00000000  0.00000000  0.00000000       0.025
   0.00000000  0.12500000  0.00000000       0.050
   0.00000000  0.25000000  0.00000000       0.050
   0.00000000  0.37500000  0.00000000       0.050
   0.00000000  0.50000000  0.00000000       0.025
   0.00000000  0.00000000  0.20000000       0.050
   0.00000000  0.12500000  0.20000000       0.100
   0.00000000  0.25000000  0.20000000       0.100
   0.00000000  0.37500000  0.20000000       0.100
   0.00000000  0.50000000  0.20000000       0.050
   0.00000000  0.00000000  0.40000000       0.050
   0.00000000  0.12500000  0.40000000       0.100
   0.00000000  0.25000000  0.40000000       0.100
   0.00000000  0.37500000  0.40000000       0.100
   0.00000000  0.50000000  0.40000000       0.050
 
 position of ions in fractional coordinates (direct lattice) 
   0.00569361  0.25000000  0.70499098
   0.38204792  0.75000002  0.29500902
   0.18192962  0.75000002  0.18605499
   0.20581192  0.25000000  0.81394498
   0.05978014  0.75000002  0.91603817
   0.32796140  0.25000000  0.08396181
   0.12784309  0.25000000  0.39781381
   0.25989845  0.75000002  0.60218623
   0.07289913  0.07203249  0.14369680
   0.31484240  0.92796750  0.85630318
   0.11472410  0.92939612  0.65969213
   0.27301744  0.07060387  0.34030787
   0.31484240  0.57203250  0.85630318
   0.07289913  0.42796750  0.14369680
   0.27301744  0.42939612  0.34030787
   0.11472410  0.57060388  0.65969213
   0.03110981  0.75000002  0.60032738
   0.35663172  0.25000000  0.39967262
   0.15651343  0.25000000  0.08245512
   0.23122812  0.75000002  0.91754486
   0.07418398  0.25000000  0.96072773
   0.31355756  0.75000002  0.03927228
   0.11343925  0.75000002  0.47675926
   0.27430228  0.25000000  0.52324066
 
 position of ions in cartesian coordinates  (Angst):
   0.13670066  1.69446242  8.17940633
   9.17276745  5.08338737  3.42273696
   4.36803341  5.08338737  2.15863671
   4.94143467  1.69446242  9.44350634
   1.43528938  5.08338737 10.62800612
   7.87417870  1.69446242  0.97413693
   3.06944466  1.69446242  4.61549280
   6.24002342  5.08338737  6.98665096
   1.75026941  0.48822537  1.66719081
   7.55919867  6.28962425  9.93495224
   2.75446463  6.29930722  7.65384266
   6.55500345  0.47854239  3.94830063
   7.55919867  3.87715027  9.93495224
   1.75026941  2.90069941  1.66719081
   6.55500345  2.91038238  3.94830063
   2.75446463  3.86746729  7.65384266
   0.74692994  5.08338737  6.96508434
   8.56253796  1.69446242  4.63705895
   3.75780416  1.69446242  0.95665616
   5.55166416  5.08338737 10.64548689
   1.78111780  1.69446242 11.14650083
   7.52835016  5.08338737  0.45564264
   2.72361612  5.08338737  5.53142919
   6.58585195  1.69446242  6.07071314
 


--------------------------------------------------------------------------------------------------------


 k-point  1 :   0.0000 0.0000 0.0000  plane waves:   47989
 k-point  2 :   0.0000 0.1250 0.0000  plane waves:   47929
 k-point  3 :   0.0000 0.2500 0.0000  plane waves:   47901
 k-point  4 :   0.0000 0.3750 0.0000  plane waves:   47910
 k-point  5 :   0.0000 0.5000 0.0000  plane waves:   47868
 k-point  6 :   0.0000 0.0000 0.2000  plane waves:   48006
 k-point  7 :   0.0000 0.1250 0.2000  plane waves:   47967
 k-point  8 :   0.0000 0.2500 0.2000  plane waves:   47907
 k-point  9 :   0.0000 0.3750 0.2000  plane waves:   47884
 k-point 10 :   0.0000 0.5000 0.2000  plane waves:   47884
 k-point 11 :   0.0000 0.0000 0.4000  plane waves:   47922
 k-point 12 :   0.0000 0.1250 0.4000  plane waves:   47954
 k-point 13 :   0.0000 0.2500 0.4000  plane waves:   47967
 k-point 14 :   0.0000 0.3750 0.4000  plane waves:   47928
 k-point 15 :   0.0000 0.5000 0.4000  plane waves:   47890

 maximum and minimum number of plane-waves per node :     12077    11868

 maximum number of plane-waves:     48006
 maximum index in each direction: 
   IXMAX=   43   IYMAX=   12   IZMAX=   21
   IXMIN=  -43   IYMIN=  -12   IZMIN=  -21


 real space projection operators:
  total allocation   :       4535.00 KBytes
  max/ min on nodes  :       1138.02       1127.92


 parallel 3D FFT for wavefunctions:
    minimum data exchange during FFTs selected (reduces bandwidth)
 parallel 3D FFT for charge:
    minimum data exchange during FFTs selected (reduces bandwidth)


 total amount of memory used by VASP MPI-rank0    79352. kBytes
=======================================================================

   base      :      30000. kBytes
   nonlr-proj:       2646. kBytes
   fftplans  :       5898. kBytes
   grid      :       8824. kBytes
   one-center:         93. kBytes
   wavefun   :      31891. kBytes
 
     INWAV:  cpu time    0.0001: real time    0.0003
 Broyden mixing: mesh for mixing (old mesh)
   NGX = 87   NGY = 25   NGZ = 43
  (NGX  =280   NGY  = 80   NGZ  =128)
  gives a total of  93525 points

 initial charge density was supplied:
 charge density of overlapping atoms calculated
 number of electron     144.0000000 magnetization 
 keeping initial charge density in first step


--------------------------------------------------------------------------------------------------------


 Maximum index for non-local projection operator          740
 Maximum index for augmentation-charges          601 (set IRDMAX)


--------------------------------------------------------------------------------------------------------


 First call to EWALD:  gamma=   0.143
 Maximum number of real-space cells 2x 5x 3
 Maximum number of reciprocal cells 5x 2x 3

    FEWALD:  cpu time    0.0019: real time    0.0020


--------------------------------------- Iteration      1(   1)  ---------------------------------------


    POTLOK:  cpu time13950.7707: real time13983.8537
    SETDIJ:  cpu time    0.0033: real time    0.0035
     EDDAV:  cpu time    2.9457: real time    2.9597
 BZINTS: Fermi energy:  6.814297;144.000000 electrons
         Band energy:-475.664598;  BLOECHL correction: -0.030114
       DOS:  cpu time    0.0128: real time    0.0128
    --------------------------------------------
      LOOP:  cpu time13953.7324: real time13986.8298

 eigenvalue-minimisations  :  2768
 total energy-change (2. order) : 0.1193097E+04  (-0.4767980E+04)
 number of electron     144.0000000 magnetization 
 augmentation part      144.0000000 magnetization 

 Free energy of the ion-electron system (eV)
  ---------------------------------------------------
  alpha Z        PSCENC =       170.45750602
  Ewald energy   TEWEN  =     11643.76239419
  -Hartree energ DENC   =    -17762.02337934
  -exchange      EXHF   =         0.00000000
  -V(xc)+E(xc)   XCENC  =        37.19133775
  PAW double counting   =      3696.57165193    -3386.34934349
  entropy T*S    EENTRO =         0.00000000
  eigenvalues    EBANDS =      -475.66459838
  atomic energy  EATOM  =      7269.15145414
  Solvation  Ediel_sol  =         0.00000000
  ---------------------------------------------------
  free energy    TOTEN  =      1193.09702282 eV

  energy without entropy =     1193.09702282  energy(sigma->0) =     1193.09702282


--------------------------------------------------------------------------------------------------------




--------------------------------------- Iteration      1(   2)  ---------------------------------------


     EDDAV:  cpu time    3.9093: real time    3.9603
 BZINTS: Fermi energy: -2.057687;144.000000 electrons
         Band energy:***********;  BLOECHL correction:  0.000000
       DOS:  cpu time    0.0022: real time    0.0022
    --------------------------------------------
      LOOP:  cpu time    3.9115: real time    3.9626

 eigenvalue-minimisations  :  3864
 total energy-change (2. order) :-0.1117596E+04  (-0.1089570E+04)
 number of electron     144.0000000 magnetization 
 augmentation part      144.0000000 magnetization 

 Free energy of the ion-electron system (eV)
  ---------------------------------------------------
  alpha Z        PSCENC =       170.45750602
  Ewald energy   TEWEN  =     11643.76239419
  -Hartree energ DENC   =    -17762.02337934
  -exchange      EXHF   =         0.00000000
  -V(xc)+E(xc)   XCENC  =        37.19133775
  PAW double counting   =      3696.57165193    -3386.34934349
  entropy T*S    EENTRO =         0.00000000
  eigenvalues    EBANDS =     -1593.26094905
  atomic energy  EATOM  =      7269.15145414
  Solvation  Ediel_sol  =         0.00000000
  ---------------------------------------------------
  free energy    TOTEN  =        75.50067216 eV

  energy without entropy =       75.50067216  energy(sigma->0) =       75.50067216


--------------------------------------------------------------------------------------------------------




--------------------------------------- Iteration      1(   3)  ---------------------------------------


     EDDAV:  cpu time    3.5039: real time    3.5663
 BZINTS: Fermi energy: -3.315700;144.000000 electrons
         Band energy:***********;  BLOECHL correction:  0.000000
       DOS:  cpu time    0.0024: real time    0.0024
    --------------------------------------------
      LOOP:  cpu time    3.5064: real time    3.5687

 eigenvalue-minimisations  :  3232
 total energy-change (2. order) :-0.1688440E+03  (-0.1681653E+03)
 number of electron     144.0000000 magnetization 
 augmentation part      144.0000000 magnetization 

 Free energy of the ion-electron system (eV)
  ---------------------------------------------------
  alpha Z        PSCENC =       170.45750602
  Ewald energy   TEWEN  =     11643.76239419
  -Hartree energ DENC   =    -17762.02337934
  -exchange      EXHF   =         0.00000000
  -V(xc)+E(xc)   XCENC  =        37.19133775
  PAW double counting   =      3696.57165193    -3386.34934349
  entropy T*S    EENTRO =         0.00000000
  eigenvalues    EBANDS =     -1762.10496530
  atomic energy  EATOM  =      7269.15145414
  Solvation  Ediel_sol  =         0.00000000
  ---------------------------------------------------
  free energy    TOTEN  =       -93.34334409 eV

  energy without entropy =      -93.34334409  energy(sigma->0) =      -93.34334409


--------------------------------------------------------------------------------------------------------




--------------------------------------- Iteration      1(   4)  ---------------------------------------


     EDDAV:  cpu time    3.6905: real time    3.7327
 BZINTS: Fermi energy: -3.390404;144.000000 electrons
         Band energy:***********;  BLOECHL correction:  0.000000
       DOS:  cpu time    0.0021: real time    0.0021
    --------------------------------------------
      LOOP:  cpu time    3.6925: real time    3.7347

 eigenvalue-minimisations  :  3752
 total energy-change (2. order) :-0.5962927E+01  (-0.5946440E+01)
 number of electron     144.0000000 magnetization 
 augmentation part      144.0000000 magnetization 

 Free energy of the ion-electron system (eV)
  ---------------------------------------------------
  alpha Z        PSCENC =       170.45750602
  Ewald energy   TEWEN  =     11643.76239419
  -Hartree energ DENC   =    -17762.02337934
  -exchange      EXHF   =         0.00000000
  -V(xc)+E(xc)   XCENC  =        37.19133775
  PAW double counting   =      3696.57165193    -3386.34934349
  entropy T*S    EENTRO =         0.00000000
  eigenvalues    EBANDS =     -1768.06789257
  atomic energy  EATOM  =      7269.15145414
  Solvation  Ediel_sol  =         0.00000000
  ---------------------------------------------------
  free energy    TOTEN  =       -99.30627137 eV

  energy without entropy =      -99.30627137  energy(sigma->0) =      -99.30627137


--------------------------------------------------------------------------------------------------------




--------------------------------------- Iteration      1(   5)  ---------------------------------------


     EDDAV:  cpu time    3.9969: real time    4.0176
 BZINTS: Fermi energy: -3.370008;144.000000 electrons
         Band energy:***********;  BLOECHL correction:  0.000000
       DOS:  cpu time    0.0023: real time    0.0023
    CHARGE:  cpu time    0.1826: real time    0.1832
    MIXING:  cpu time    0.0062: real time    0.0064
    --------------------------------------------
      LOOP:  cpu time    4.1881: real time    4.2096

 eigenvalue-minimisations  :  4160
 total energy-change (2. order) :-0.2700198E+00  (-0.2699394E+00)
 number of electron     143.9999989 magnetization 
 augmentation part      -17.6560565 magnetization 

 Broyden mixing:
  rms(total) = 0.90701E+00    rms(broyden)= 0.90700E+00
  rms(prec ) = 0.11809E+01
  weight for this iteration     100.00

 Free energy of the ion-electron system (eV)
  ---------------------------------------------------
  alpha Z        PSCENC =       170.45750602
  Ewald energy   TEWEN  =     11643.76239419
  -Hartree energ DENC   =    -17762.02337934
  -exchange      EXHF   =         0.00000000
  -V(xc)+E(xc)   XCENC  =        37.19133775
  PAW double counting   =      3696.57165193    -3386.34934349
  entropy T*S    EENTRO =         0.00000000
  eigenvalues    EBANDS =     -1768.33791241
  atomic energy  EATOM  =      7269.15145414
  Solvation  Ediel_sol  =         0.00000000
  ---------------------------------------------------
  free energy    TOTEN  =       -99.57629121 eV

  energy without entropy =      -99.57629121  energy(sigma->0) =      -99.57629121


--------------------------------------------------------------------------------------------------------




--------------------------------------- Iteration      1(   6)  ---------------------------------------


    POTLOK:  cpu time    2.5322: real time    2.5488
    SETDIJ:  cpu time    0.0479: real time    0.0480
     EDDAV:  cpu time    2.9772: real time    2.9842
 BZINTS: Fermi energy: -2.267402;144.000000 electrons
         Band energy:***********;  BLOECHL correction:  0.000000
       DOS:  cpu time    0.0026: real time    0.0026
    CHARGE:  cpu time    0.1981: real time    0.1986
    MIXING:  cpu time    0.0076: real time    0.0076
    --------------------------------------------
      LOOP:  cpu time    5.7656: real time    5.7899

 eigenvalue-minimisations  :  3000
 total energy-change (2. order) : 0.8040700E+01  (-0.2018511E+01)
 number of electron     143.9999988 magnetization 
 augmentation part      -17.5352998 magnetization 

 Broyden mixing:
  rms(total) = 0.46299E+00    rms(broyden)= 0.46299E+00
  rms(prec ) = 0.58051E+00
  weight for this iteration     100.00

 eigenvalues of (default mixing * dielectric matrix)
  average eigenvalue GAMMA=   1.5426
  1.5426

 Free energy of the ion-electron system (eV)
  ---------------------------------------------------
  alpha Z        PSCENC =       170.45750602
  Ewald energy   TEWEN  =     11643.76239419
  -Hartree energ DENC   =    -17855.20178799
  -exchange      EXHF   =         0.00000000
  -V(xc)+E(xc)   XCENC  =        39.86361565
  PAW double counting   =      3729.87786500    -3426.70819170
  entropy T*S    EENTRO =         0.00000000
  eigenvalues    EBANDS =     -1662.73844636
  atomic energy  EATOM  =      7269.15145414
  Solvation  Ediel_sol  =         0.00000000
  ---------------------------------------------------
  free energy    TOTEN  =       -91.53559105 eV

  energy without entropy =      -91.53559105  energy(sigma->0) =      -91.53559105


--------------------------------------------------------------------------------------------------------




--------------------------------------- Iteration      1(   7)  ---------------------------------------


    POTLOK:  cpu time    2.5163: real time    2.5319
    SETDIJ:  cpu time    0.0831: real time    0.0833
     EDDAV:  cpu time    3.4923: real time    3.5005
 BZINTS: Fermi energy: -1.446457;144.000000 electrons
         Band energy:***********;  BLOECHL correction:  0.000000
       DOS:  cpu time    0.0023: real time    0.0023
    CHARGE:  cpu time    0.1858: real time    0.1863
    MIXING:  cpu time    0.0052: real time    0.0055
    --------------------------------------------
      LOOP:  cpu time    6.2849: real time    6.3097

 eigenvalue-minimisations  :  3480
 total energy-change (2. order) : 0.1280135E+01  (-0.9693653E+00)
 number of electron     143.9999988 magnetization 
 augmentation part      -17.6022127 magnetization 

 Broyden mixing:
  rms(total) = 0.24481E+00    rms(broyden)= 0.24481E+00
  rms(prec ) = 0.29350E+00
  weight for this iteration     100.00

 eigenvalues of (default mixing * dielectric matrix)
  average eigenvalue GAMMA=   1.8548
  1.8548  1.8548

 Free energy of the ion-electron system (eV)
  ---------------------------------------------------
  alpha Z        PSCENC =       170.45750602
  Ewald energy   TEWEN  =     11643.76239419
  -Hartree energ DENC   =    -17931.86263800
  -exchange      EXHF   =         0.00000000
  -V(xc)+E(xc)   XCENC  =        42.07656433
  PAW double counting   =      3773.70935233    -3476.27638756
  entropy T*S    EENTRO =         0.00000000
  eigenvalues    EBANDS =     -1581.27370124
  atomic energy  EATOM  =      7269.15145414
  Solvation  Ediel_sol  =         0.00000000
  ---------------------------------------------------
  free energy    TOTEN  =       -90.25545579 eV

  energy without entropy =      -90.25545579  energy(sigma->0) =      -90.25545579


--------------------------------------------------------------------------------------------------------




--------------------------------------- Iteration      1(   8)  ---------------------------------------


    POTLOK:  cpu time    2.5202: real time    2.5365
    SETDIJ:  cpu time    0.0167: real time    0.0168
     EDDAV:  cpu time    3.1294: real time    3.1368
 BZINTS: Fermi energy: -1.289898;144.000000 electrons
         Band energy:***********;  BLOECHL correction:  0.000000
       DOS:  cpu time    0.0029: real time    0.0029
    CHARGE:  cpu time    0.1947: real time    0.1951
    MIXING:  cpu time    0.0057: real time    0.0060
    --------------------------------------------
      LOOP:  cpu time    5.8696: real time    5.8941

 eigenvalue-minimisations  :  3120
 total energy-change (2. order) : 0.2475021E+00  (-0.3514538E+00)
 number of electron     143.9999988 magnetization 
 augmentation part      -17.7191298 magnetization 

 Broyden mixing:
  rms(total) = 0.11577E+00    rms(broyden)= 0.11577E+00
  rms(prec ) = 0.18629E+00
  weight for this iteration     100.00

 eigenvalues of (default mixing * dielectric matrix)
  average eigenvalue GAMMA=   1.6831
  2.6398  1.2048  1.2048

 Free energy of the ion-electron system (eV)
  ---------------------------------------------------
  alpha Z        PSCENC =       170.45750602
  Ewald energy   TEWEN  =     11643.76239419
  -Hartree energ DENC   =    -17964.96428995
  -exchange      EXHF   =         0.00000000
  -V(xc)+E(xc)   XCENC  =        43.00720120
  PAW double counting   =      3821.77327626    -3526.16671189
  entropy T*S    EENTRO =         0.00000000
  eigenvalues    EBANDS =     -1547.02878371
  atomic energy  EATOM  =      7269.15145414
  Solvation  Ediel_sol  =         0.00000000
  ---------------------------------------------------
  free energy    TOTEN  =       -90.00795374 eV

  energy without entropy =      -90.00795374  energy(sigma->0) =      -90.00795374


--------------------------------------------------------------------------------------------------------




--------------------------------------- Iteration      1(   9)  ---------------------------------------


    POTLOK:  cpu time    2.5241: real time    2.5413
    SETDIJ:  cpu time    0.0530: real time    0.0531
     EDDAV:  cpu time    3.1151: real time    3.1225
 BZINTS: Fermi energy: -0.960908;144.000000 electrons
         Band energy:***********;  BLOECHL correction:  0.000000
       DOS:  cpu time    0.0024: real time    0.0024
    CHARGE:  cpu time    0.1761: real time    0.1766
    MIXING:  cpu time    0.0064: real time    0.0064
    --------------------------------------------
      LOOP:  cpu time    5.8772: real time    5.9023

 eigenvalue-minimisations  :  3104
 total energy-change (2. order) : 0.2630925E+00  (-0.1120520E+00)
 number of electron     143.9999988 magnetization 
 augmentation part      -17.6859525 magnetization 

 Broyden mixing:
  rms(total) = 0.54278E-01    rms(broyden)= 0.54278E-01
  rms(prec ) = 0.76393E-01
  weight for this iteration     100.00

 eigenvalues of (default mixing * dielectric matrix)
  average eigenvalue GAMMA=   1.4076
  2.5799  1.2153  1.2153  0.6199

 Free energy of the ion-electron system (eV)
  ---------------------------------------------------
  alpha Z        PSCENC =       170.45750602
  Ewald energy   TEWEN  =     11643.76239419
  -Hartree energ DENC   =    -18004.33655379
  -exchange      EXHF   =         0.00000000
  -V(xc)+E(xc)   XCENC  =        43.90278103
  PAW double counting   =      3832.47187520    -3538.19831872
  entropy T*S    EENTRO =         0.00000000
  eigenvalues    EBANDS =     -1506.95599933
  atomic energy  EATOM  =      7269.15145414
  Solvation  Ediel_sol  =         0.00000000
  ---------------------------------------------------
  free energy    TOTEN  =       -89.74486125 eV

  energy without entropy =      -89.74486125  energy(sigma->0) =      -89.74486125


--------------------------------------------------------------------------------------------------------




--------------------------------------- Iteration      1(  10)  ---------------------------------------


    POTLOK:  cpu time    2.5127: real time    2.5287
    SETDIJ:  cpu time    0.0097: real time    0.0097
     EDDAV:  cpu time    3.4626: real time    3.4708
 BZINTS: Fermi energy: -0.830794;144.000000 electrons
         Band energy:***********;  BLOECHL correction:  0.000000
       DOS:  cpu time    0.0023: real time    0.0023
    CHARGE:  cpu time    0.1806: real time    0.1810
    MIXING:  cpu time    0.0062: real time    0.0063
    --------------------------------------------
      LOOP:  cpu time    6.1742: real time    6.1988

 eigenvalue-minimisations  :  3600
 total energy-change (2. order) : 0.1251225E-01  (-0.2330744E-01)
 number of electron     143.9999988 magnetization 
 augmentation part      -17.6994912 magnetization 

 Broyden mixing:
  rms(total) = 0.40350E-01    rms(broyden)= 0.40350E-01
  rms(prec ) = 0.60008E-01
  weight for this iteration     100.00

 eigenvalues of (default mixing * dielectric matrix)
  average eigenvalue GAMMA=   1.5675
  2.4971  2.2923  1.1663  0.9409  0.9409

 Free energy of the ion-electron system (eV)
  ---------------------------------------------------
  alpha Z        PSCENC =       170.45750602
  Ewald energy   TEWEN  =     11643.76239419
  -Hartree energ DENC   =    -18012.51572970
  -exchange      EXHF   =         0.00000000
  -V(xc)+E(xc)   XCENC  =        43.92233210
  PAW double counting   =      3827.68025668    -3533.10399557
  entropy T*S    EENTRO =         0.00000000
  eigenvalues    EBANDS =     -1499.08656687
  atomic energy  EATOM  =      7269.15145414
  Solvation  Ediel_sol  =         0.00000000
  ---------------------------------------------------
  free energy    TOTEN  =       -89.73234900 eV

  energy without entropy =      -89.73234900  energy(sigma->0) =      -89.73234900


--------------------------------------------------------------------------------------------------------




--------------------------------------- Iteration      1(  11)  ---------------------------------------


    POTLOK:  cpu time    2.5154: real time    2.5315
    SETDIJ:  cpu time    0.0533: real time    0.0534
     EDDAV:  cpu time    3.2218: real time    3.2295
 BZINTS: Fermi energy: -0.811214;144.000000 electrons
         Band energy:***********;  BLOECHL correction:  0.000000
       DOS:  cpu time    0.0019: real time    0.0019
    CHARGE:  cpu time    0.1830: real time    0.1835
    MIXING:  cpu time    0.0069: real time    0.0070
    --------------------------------------------
      LOOP:  cpu time    5.9824: real time    6.0067

 eigenvalue-minimisations  :  3192
 total energy-change (2. order) : 0.6571049E-01  (-0.6597396E-02)
 number of electron     143.9999988 magnetization 
 augmentation part      -17.7057631 magnetization 

 Broyden mixing:
  rms(total) = 0.15500E-01    rms(broyden)= 0.15500E-01
  rms(prec ) = 0.30445E-01
  weight for this iteration     100.00

 eigenvalues of (default mixing * dielectric matrix)
  average eigenvalue GAMMA=   1.5974
  2.7664  2.7664  1.2231  0.9442  0.9421  0.9421

 Free energy of the ion-electron system (eV)
  ---------------------------------------------------
  alpha Z        PSCENC =       170.45750602
  Ewald energy   TEWEN  =     11643.76239419
  -Hartree energ DENC   =    -18028.22634885
  -exchange      EXHF   =         0.00000000
  -V(xc)+E(xc)   XCENC  =        44.11250117
  PAW double counting   =      3828.47888351    -3533.62207883
  entropy T*S    EENTRO =         0.00000000
  eigenvalues    EBANDS =     -1483.78094986
  atomic energy  EATOM  =      7269.15145414
  Solvation  Ediel_sol  =         0.00000000
  ---------------------------------------------------
  free energy    TOTEN  =       -89.66663851 eV

  energy without entropy =      -89.66663851  energy(sigma->0) =      -89.66663851


--------------------------------------------------------------------------------------------------------




--------------------------------------- Iteration      1(  12)  ---------------------------------------


    POTLOK:  cpu time    2.5109: real time    2.5267
    SETDIJ:  cpu time    0.0601: real time    0.0602
     EDDAV:  cpu time    3.3274: real time    3.3352
 BZINTS: Fermi energy: -0.740563;144.000000 electrons
         Band energy:***********;  BLOECHL correction:  0.000000
       DOS:  cpu time    0.0019: real time    0.0020
    CHARGE:  cpu time    0.1806: real time    0.1810
    MIXING:  cpu time    0.0059: real time    0.0059
    --------------------------------------------
      LOOP:  cpu time    6.0867: real time    6.1110

 eigenvalue-minimisations  :  3384
 total energy-change (2. order) :-0.4817085E-03  (-0.1412443E-02)
 number of electron     143.9999988 magnetization 
 augmentation part      -17.7009815 magnetization 

 Broyden mixing:
  rms(total) = 0.11382E-01    rms(broyden)= 0.11382E-01
  rms(prec ) = 0.19614E-01
  weight for this iteration     100.00

 eigenvalues of (default mixing * dielectric matrix)
  average eigenvalue GAMMA=   1.7127
  3.3829  2.6313  1.9693  1.1205  1.1205  0.8824  0.8824

 Free energy of the ion-electron system (eV)
  ---------------------------------------------------
  alpha Z        PSCENC =       170.45750602
  Ewald energy   TEWEN  =     11643.76239419
  -Hartree energ DENC   =    -18039.30954714
  -exchange      EXHF   =         0.00000000
  -V(xc)+E(xc)   XCENC  =        44.15529052
  PAW double counting   =      3826.02551342    -3530.99856828
  entropy T*S    EENTRO =         0.00000000
  eigenvalues    EBANDS =     -1472.91116309
  atomic energy  EATOM  =      7269.15145414
  Solvation  Ediel_sol  =         0.00000000
  ---------------------------------------------------
  free energy    TOTEN  =       -89.66712022 eV

  energy without entropy =      -89.66712022  energy(sigma->0) =      -89.66712022


--------------------------------------------------------------------------------------------------------




--------------------------------------- Iteration      1(  13)  ---------------------------------------


    POTLOK:  cpu time    2.5071: real time    2.5231
    SETDIJ:  cpu time    0.0354: real time    0.0354
     EDDAV:  cpu time    3.3902: real time    3.3983
 BZINTS: Fermi energy: -0.602193;144.000000 electrons
         Band energy:***********;  BLOECHL correction:  0.000000
       DOS:  cpu time    0.0023: real time    0.0024
    CHARGE:  cpu time    0.1771: real time    0.1775
    MIXING:  cpu time    0.0085: real time    0.0085
    --------------------------------------------
      LOOP:  cpu time    6.1206: real time    6.1452

 eigenvalue-minimisations  :  3408
 total energy-change (2. order) : 0.7702377E-03  (-0.6858739E-03)
 number of electron     143.9999988 magnetization 
 augmentation part      -17.7020020 magnetization 

 Broyden mixing:
  rms(total) = 0.57332E-02    rms(broyden)= 0.57332E-02
  rms(prec ) = 0.10069E-01
  weight for this iteration     100.00

 eigenvalues of (default mixing * dielectric matrix)
  average eigenvalue GAMMA=   1.7797
  3.9634  2.8265  2.3916  1.2141  1.2141  0.8889  0.8695  0.8695

 Free energy of the ion-electron system (eV)
  ---------------------------------------------------
  alpha Z        PSCENC =       170.45750602
  Ewald energy   TEWEN  =     11643.76239419
  -Hartree energ DENC   =    -18048.03112509
  -exchange      EXHF   =         0.00000000
  -V(xc)+E(xc)   XCENC  =        44.20117660
  PAW double counting   =      3824.60998368    -3529.67770657
  entropy T*S    EENTRO =         0.00000000
  eigenvalues    EBANDS =     -1464.14003296
  atomic energy  EATOM  =      7269.15145414
  Solvation  Ediel_sol  =         0.00000000
  ---------------------------------------------------
  free energy    TOTEN  =       -89.66634999 eV

  energy without entropy =      -89.66634999  energy(sigma->0) =      -89.66634999


--------------------------------------------------------------------------------------------------------




--------------------------------------- Iteration      1(  14)  ---------------------------------------


    POTLOK:  cpu time    2.5060: real time    2.5234
    SETDIJ:  cpu time    0.1138: real time    0.1141
     EDDAV:  cpu time    3.0681: real time    3.0753
 BZINTS: Fermi energy: -0.582386;144.000000 electrons
         Band energy:***********;  BLOECHL correction:  0.000000
       DOS:  cpu time    0.0023: real time    0.0023
    CHARGE:  cpu time    0.1826: real time    0.1831
    MIXING:  cpu time    0.0076: real time    0.0076
    --------------------------------------------
      LOOP:  cpu time    5.8804: real time    5.9057

 eigenvalue-minimisations  :  2976
 total energy-change (2. order) : 0.5616276E-02  (-0.2615232E-03)
 number of electron     143.9999988 magnetization 
 augmentation part      -17.7025326 magnetization 

 Broyden mixing:
  rms(total) = 0.46731E-02    rms(broyden)= 0.46731E-02
  rms(prec ) = 0.75616E-02
  weight for this iteration     100.00

 eigenvalues of (default mixing * dielectric matrix)
  average eigenvalue GAMMA=   1.8482
  4.5376  3.0544  1.9571  1.9571  0.8873  0.8873  1.1592  1.1592  1.0349

 Free energy of the ion-electron system (eV)
  ---------------------------------------------------
  alpha Z        PSCENC =       170.45750602
  Ewald energy   TEWEN  =     11643.76239419
  -Hartree energ DENC   =    -18051.61202656
  -exchange      EXHF   =         0.00000000
  -V(xc)+E(xc)   XCENC  =        44.21353500
  PAW double counting   =      3823.91725734    -3528.99663072
  entropy T*S    EENTRO =         0.00000000
  eigenvalues    EBANDS =     -1460.55422311
  atomic energy  EATOM  =      7269.15145414
  Solvation  Ediel_sol  =         0.00000000
  ---------------------------------------------------
  free energy    TOTEN  =       -89.66073371 eV

  energy without entropy =      -89.66073371  energy(sigma->0) =      -89.66073371


--------------------------------------------------------------------------------------------------------




--------------------------------------- Iteration      1(  15)  ---------------------------------------


    POTLOK:  cpu time    2.5179: real time    2.5344
    SETDIJ:  cpu time    0.0482: real time    0.0483
     EDDAV:  cpu time    3.0109: real time    3.0180
 BZINTS: Fermi energy: -0.570549;144.000000 electrons
         Band energy:***********;  BLOECHL correction:  0.000000
       DOS:  cpu time    0.0029: real time    0.0029
    CHARGE:  cpu time    0.1906: real time    0.1910
    MIXING:  cpu time    0.0131: real time    0.0131
    --------------------------------------------
      LOOP:  cpu time    5.7835: real time    5.8078

 eigenvalue-minimisations  :  2896
 total energy-change (2. order) : 0.4063018E-03  (-0.2524038E-03)
 number of electron     143.9999988 magnetization 
 augmentation part      -17.7037827 magnetization 

 Broyden mixing:
  rms(total) = 0.17946E-02    rms(broyden)= 0.17946E-02
  rms(prec ) = 0.35583E-02
  weight for this iteration     100.00

 eigenvalues of (default mixing * dielectric matrix)
  average eigenvalue GAMMA=   1.9321
  5.4136  3.2206  2.5817  1.7821  0.8871  0.8871  1.2652  1.2652  1.0093  1.0093

 Free energy of the ion-electron system (eV)
  ---------------------------------------------------
  alpha Z        PSCENC =       170.45750602
  Ewald energy   TEWEN  =     11643.76239419
  -Hartree energ DENC   =    -18053.64001533
  -exchange      EXHF   =         0.00000000
  -V(xc)+E(xc)   XCENC  =        44.21019903
  PAW double counting   =      3824.34684794    -3529.40291961
  entropy T*S    EENTRO =         0.00000000
  eigenvalues    EBANDS =     -1458.54579378
  atomic energy  EATOM  =      7269.15145414
  Solvation  Ediel_sol  =         0.00000000
  ---------------------------------------------------
  free energy    TOTEN  =       -89.66032741 eV

  energy without entropy =      -89.66032741  energy(sigma->0) =      -89.66032741


--------------------------------------------------------------------------------------------------------




--------------------------------------- Iteration      1(  16)  ---------------------------------------


    POTLOK:  cpu time    2.4736: real time    2.4891
    SETDIJ:  cpu time    0.1041: real time    0.1044
     EDDAV:  cpu time    3.0301: real time    3.0372
 BZINTS: Fermi energy: -0.562251;144.000000 electrons
         Band energy:***********;  BLOECHL correction:  0.000000
       DOS:  cpu time    0.0023: real time    0.0023
    CHARGE:  cpu time    0.1592: real time    0.1596
    MIXING:  cpu time    0.0060: real time    0.0060
    --------------------------------------------
      LOOP:  cpu time    5.7753: real time    5.7986

 eigenvalue-minimisations  :  3056
 total energy-change (2. order) : 0.5562659E-04  (-0.1578519E-03)
 number of electron     143.9999988 magnetization 
 augmentation part      -17.7035840 magnetization 

 Broyden mixing:
  rms(total) = 0.13301E-02    rms(broyden)= 0.13301E-02
  rms(prec ) = 0.24645E-02
  weight for this iteration     100.00

 eigenvalues of (default mixing * dielectric matrix)
  average eigenvalue GAMMA=   2.0044
  5.8278  3.5586  2.4371  2.2232  1.6433  0.8890  0.8890  1.2866  1.2866  1.0037
  1.0037

 Free energy of the ion-electron system (eV)
  ---------------------------------------------------
  alpha Z        PSCENC =       170.45750602
  Ewald energy   TEWEN  =     11643.76239419
  -Hartree energ DENC   =    -18055.19876238
  -exchange      EXHF   =         0.00000000
  -V(xc)+E(xc)   XCENC  =        44.21360160
  PAW double counting   =      3824.54732414    -3529.61683330
  entropy T*S    EENTRO =         0.00000000
  eigenvalues    EBANDS =     -1456.97695619
  atomic energy  EATOM  =      7269.15145414
  Solvation  Ediel_sol  =         0.00000000
  ---------------------------------------------------
  free energy    TOTEN  =       -89.66027178 eV

  energy without entropy =      -89.66027178  energy(sigma->0) =      -89.66027178


--------------------------------------------------------------------------------------------------------




--------------------------------------- Iteration      1(  17)  ---------------------------------------


    POTLOK:  cpu time    2.4426: real time    2.4587
    SETDIJ:  cpu time    0.1425: real time    0.1428
     EDDAV:  cpu time    2.8824: real time    2.8893
 BZINTS: Fermi energy: -0.556219;144.000000 electrons
         Band energy:***********;  BLOECHL correction:  0.000000
       DOS:  cpu time    0.0028: real time    0.0028
    CHARGE:  cpu time    0.1681: real time    0.1685
    MIXING:  cpu time    0.0067: real time    0.0067
    --------------------------------------------
      LOOP:  cpu time    5.6451: real time    5.6688

 eigenvalue-minimisations  :  2912
 total energy-change (2. order) : 0.3233084E-03  (-0.8193104E-04)
 number of electron     143.9999988 magnetization 
 augmentation part      -17.7035723 magnetization 

 Broyden mixing:
  rms(total) = 0.75527E-03    rms(broyden)= 0.75527E-03
  rms(prec ) = 0.14593E-02
  weight for this iteration     100.00

 eigenvalues of (default mixing * dielectric matrix)
  average eigenvalue GAMMA=   2.0065
  6.1906  3.7064  2.7441  2.2504  1.4861  1.4861  0.8885  0.8885  1.3314  1.0685
  1.0685  0.9686

 Free energy of the ion-electron system (eV)
  ---------------------------------------------------
  alpha Z        PSCENC =       170.45750602
  Ewald energy   TEWEN  =     11643.76239419
  -Hartree energ DENC   =    -18056.43317129
  -exchange      EXHF   =         0.00000000
  -V(xc)+E(xc)   XCENC  =        44.21792642
  PAW double counting   =      3824.55254009    -3529.61877464
  entropy T*S    EENTRO =         0.00000000
  eigenvalues    EBANDS =     -1455.74982341
  atomic energy  EATOM  =      7269.15145414
  Solvation  Ediel_sol  =         0.00000000
  ---------------------------------------------------
  free energy    TOTEN  =       -89.65994847 eV

  energy without entropy =      -89.65994847  energy(sigma->0) =      -89.65994847


--------------------------------------------------------------------------------------------------------




--------------------------------------- Iteration      1(  18)  ---------------------------------------


    POTLOK:  cpu time    2.3872: real time    2.4038
    SETDIJ:  cpu time    0.1501: real time    0.1505
     EDDAV:  cpu time    2.2237: real time    2.2290
 BZINTS: Fermi energy: -0.556354;144.000000 electrons
         Band energy:***********;  BLOECHL correction:  0.000000
       DOS:  cpu time    0.0023: real time    0.0023
    CHARGE:  cpu time    0.1290: real time    0.1293
    MIXING:  cpu time    0.0057: real time    0.0058
    --------------------------------------------
      LOOP:  cpu time    4.8981: real time    4.9206

 eigenvalue-minimisations  :  2552
 total energy-change (2. order) :-0.5744683E-03  (-0.1723005E-04)
 number of electron     143.9999988 magnetization 
 augmentation part      -17.7035921 magnetization 

 Broyden mixing:
  rms(total) = 0.52421E-03    rms(broyden)= 0.52421E-03
  rms(prec ) = 0.93951E-03
  weight for this iteration     100.00

 eigenvalues of (default mixing * dielectric matrix)
  average eigenvalue GAMMA=   2.0982
  6.6146  4.3452  2.7558  2.7558  1.9743  1.3803  1.3803  0.8882  0.8882  1.1717
  1.1717  0.9750  0.9750

 Free energy of the ion-electron system (eV)
  ---------------------------------------------------
  alpha Z        PSCENC =       170.45750602
  Ewald energy   TEWEN  =     11643.76239419
  -Hartree energ DENC   =    -18056.89855762
  -exchange      EXHF   =         0.00000000
  -V(xc)+E(xc)   XCENC  =        44.21974905
  PAW double counting   =      3824.55808474    -3529.62306387
  entropy T*S    EENTRO =         0.00000000
  eigenvalues    EBANDS =     -1455.28808960
  atomic energy  EATOM  =      7269.15145414
  Solvation  Ediel_sol  =         0.00000000
  ---------------------------------------------------
  free energy    TOTEN  =       -89.66052294 eV

  energy without entropy =      -89.66052294  energy(sigma->0) =      -89.66052294


--------------------------------------------------------------------------------------------------------




--------------------------------------- Iteration      1(  19)  ---------------------------------------


    POTLOK:  cpu time    2.4804: real time    2.4973
    SETDIJ:  cpu time    0.1251: real time    0.1254
     EDDAV:  cpu time    2.7690: real time    2.7755
 BZINTS: Fermi energy: -0.557772;144.000000 electrons
         Band energy:***********;  BLOECHL correction:  0.000000
       DOS:  cpu time    0.0023: real time    0.0023
    CHARGE:  cpu time    0.1812: real time    0.1817
    MIXING:  cpu time    0.0062: real time    0.0063
    --------------------------------------------
      LOOP:  cpu time    5.5643: real time    5.5885

 eigenvalue-minimisations  :  2624
 total energy-change (2. order) :-0.7442345E-03  (-0.1909197E-04)
 number of electron     143.9999988 magnetization 
 augmentation part      -17.7037568 magnetization 

 Broyden mixing:
  rms(total) = 0.41300E-03    rms(broyden)= 0.41300E-03
  rms(prec ) = 0.62341E-03
  weight for this iteration     100.00

 eigenvalues of (default mixing * dielectric matrix)
  average eigenvalue GAMMA=   2.1595
  6.9576  4.9785  2.8996  2.8996  1.9395  1.6369  1.6369  0.8883  0.8883  1.2743
  1.2743  1.0108  1.0108  0.9371

 Free energy of the ion-electron system (eV)
  ---------------------------------------------------
  alpha Z        PSCENC =       170.45750602
  Ewald energy   TEWEN  =     11643.76239419
  -Hartree energ DENC   =    -18057.17697554
  -exchange      EXHF   =         0.00000000
  -V(xc)+E(xc)   XCENC  =        44.21851626
  PAW double counting   =      3824.46917615    -3529.53181563
  entropy T*S    EENTRO =         0.00000000
  eigenvalues    EBANDS =     -1455.01152278
  atomic energy  EATOM  =      7269.15145414
  Solvation  Ediel_sol  =         0.00000000
  ---------------------------------------------------
  free energy    TOTEN  =       -89.66126718 eV

  energy without entropy =      -89.66126718  energy(sigma->0) =      -89.66126718


--------------------------------------------------------------------------------------------------------




--------------------------------------- Iteration      1(  20)  ---------------------------------------


    POTLOK:  cpu time    2.5233: real time    2.5396
    SETDIJ:  cpu time    0.0279: real time    0.0280
     EDDAV:  cpu time    2.8912: real time    2.8981
 BZINTS: Fermi energy: -0.560783;144.000000 electrons
         Band energy:***********;  BLOECHL correction:  0.000000
       DOS:  cpu time    0.0032: real time    0.0032
    CHARGE:  cpu time    0.2026: real time    0.2031
    MIXING:  cpu time    0.0067: real time    0.0067
    --------------------------------------------
      LOOP:  cpu time    5.6549: real time    5.6786

 eigenvalue-minimisations  :  2736
 total energy-change (2. order) :-0.2728714E-03  (-0.8084430E-05)
 number of electron     143.9999988 magnetization 
 augmentation part      -17.7038140 magnetization 

 Broyden mixing:
  rms(total) = 0.21633E-03    rms(broyden)= 0.21633E-03
  rms(prec ) = 0.33271E-03
  weight for this iteration     100.00

 eigenvalues of (default mixing * dielectric matrix)
  average eigenvalue GAMMA=   2.3032
  7.6453  6.5230  3.1201  3.1201  2.5237  1.5600  1.5600  0.8884  0.8884  1.2870
  1.2870  0.9620  0.9620  1.1106  1.1106

 Free energy of the ion-electron system (eV)
  ---------------------------------------------------
  alpha Z        PSCENC =       170.45750602
  Ewald energy   TEWEN  =     11643.76239419
  -Hartree energ DENC   =    -18057.20276554
  -exchange      EXHF   =         0.00000000
  -V(xc)+E(xc)   XCENC  =        44.21844976
  PAW double counting   =      3824.48126526    -3529.54343278
  entropy T*S    EENTRO =         0.00000000
  eigenvalues    EBANDS =     -1454.98641111
  atomic energy  EATOM  =      7269.15145414
  Solvation  Ediel_sol  =         0.00000000
  ---------------------------------------------------
  free energy    TOTEN  =       -89.66154005 eV

  energy without entropy =      -89.66154005  energy(sigma->0) =      -89.66154005


--------------------------------------------------------------------------------------------------------




--------------------------------------- Iteration      1(  21)  ---------------------------------------


    POTLOK:  cpu time    2.5040: real time    2.5200
    SETDIJ:  cpu time    0.0892: real time    0.0894
     EDDAV:  cpu time    2.5355: real time    2.5415
 BZINTS: Fermi energy: -0.564623;144.000000 electrons
         Band energy:***********;  BLOECHL correction:  0.000000
       DOS:  cpu time    0.0023: real time    0.0023
    CHARGE:  cpu time    0.1954: real time    0.1958
    MIXING:  cpu time    0.0074: real time    0.0074
    --------------------------------------------
      LOOP:  cpu time    5.3337: real time    5.3564

 eigenvalue-minimisations  :  2352
 total energy-change (2. order) :-0.1439191E-03  (-0.3928670E-05)
 number of electron     143.9999988 magnetization 
 augmentation part      -17.7038096 magnetization 

 Broyden mixing:
  rms(total) = 0.10580E-03    rms(broyden)= 0.10580E-03
  rms(prec ) = 0.12937E-03
  weight for this iteration     100.00

 eigenvalues of (default mixing * dielectric matrix)
  average eigenvalue GAMMA=   2.3397
  8.5364  6.5913  3.1967  3.1967  2.4464  1.8958  1.8958  0.8883  0.8883  1.3002
  1.3002  1.1684  1.0968  1.0968  0.9686  0.9686

 Free energy of the ion-electron system (eV)
  ---------------------------------------------------
  alpha Z        PSCENC =       170.45750602
  Ewald energy   TEWEN  =     11643.76239419
  -Hartree energ DENC   =    -18057.09479116
  -exchange      EXHF   =         0.00000000
  -V(xc)+E(xc)   XCENC  =        44.21722334
  PAW double counting   =      3824.48463200    -3529.54800371
  entropy T*S    EENTRO =         0.00000000
  eigenvalues    EBANDS =     -1455.09209879
  atomic energy  EATOM  =      7269.15145414
  Solvation  Ediel_sol  =         0.00000000
  ---------------------------------------------------
  free energy    TOTEN  =       -89.66168397 eV

  energy without entropy =      -89.66168397  energy(sigma->0) =      -89.66168397


--------------------------------------------------------------------------------------------------------




--------------------------------------- Iteration      1(  22)  ---------------------------------------


    POTLOK:  cpu time    2.5191: real time    2.5350
    SETDIJ:  cpu time    0.0147: real time    0.0147
     EDDAV:  cpu time    2.7396: real time    2.7461
 BZINTS: Fermi energy: -0.567362;144.000000 electrons
         Band energy:***********;  BLOECHL correction:  0.000000
       DOS:  cpu time    0.0023: real time    0.0023
    CHARGE:  cpu time    0.1825: real time    0.1829
    MIXING:  cpu time    0.0106: real time    0.0107
    --------------------------------------------
      LOOP:  cpu time    5.4689: real time    5.4917

 eigenvalue-minimisations  :  2560
 total energy-change (2. order) :-0.1760197E-04  (-0.3591620E-06)
 number of electron     143.9999988 magnetization 
 augmentation part      -17.7037666 magnetization 

 Broyden mixing:
  rms(total) = 0.65991E-04    rms(broyden)= 0.65990E-04
  rms(prec ) = 0.85645E-04
  weight for this iteration     100.00

 eigenvalues of (default mixing * dielectric matrix)
  average eigenvalue GAMMA=   2.3177
  8.6998  6.9710  3.2683  3.2683  2.6062  1.9123  1.9123  0.8884  0.8884  1.3713
  1.2508  1.2508  0.9546  0.9546  1.0748  1.0649  1.0649

 Free energy of the ion-electron system (eV)
  ---------------------------------------------------
  alpha Z        PSCENC =       170.45750602
  Ewald energy   TEWEN  =     11643.76239419
  -Hartree energ DENC   =    -18057.12648328
  -exchange      EXHF   =         0.00000000
  -V(xc)+E(xc)   XCENC  =        44.21725043
  PAW double counting   =      3824.46990122    -3529.53280070
  entropy T*S    EENTRO =         0.00000000
  eigenvalues    EBANDS =     -1455.06092359
  atomic energy  EATOM  =      7269.15145414
  Solvation  Ediel_sol  =         0.00000000
  ---------------------------------------------------
  free energy    TOTEN  =       -89.66170157 eV

  energy without entropy =      -89.66170157  energy(sigma->0) =      -89.66170157


--------------------------------------------------------------------------------------------------------




--------------------------------------- Iteration      1(  23)  ---------------------------------------


    POTLOK:  cpu time    2.5103: real time    2.5264
    SETDIJ:  cpu time    0.0952: real time    0.0955
     EDDAV:  cpu time    2.3330: real time    2.3386
 BZINTS: Fermi energy: -0.570382;144.000000 electrons
         Band energy:***********;  BLOECHL correction:  0.000000
       DOS:  cpu time    0.0023: real time    0.0023
    CHARGE:  cpu time    0.1771: real time    0.1775
    MIXING:  cpu time    0.0069: real time    0.0069
    --------------------------------------------
      LOOP:  cpu time    5.1248: real time    5.1472

 eigenvalue-minimisations  :  1992
 total energy-change (2. order) :-0.5205971E-05  (-0.6672940E-07)
 number of electron     143.9999988 magnetization 
 augmentation part      -17.7037658 magnetization 

 Broyden mixing:
  rms(total) = 0.32515E-04    rms(broyden)= 0.32515E-04
  rms(prec ) = 0.44369E-04
  weight for this iteration     100.00

 eigenvalues of (default mixing * dielectric matrix)
  average eigenvalue GAMMA=   2.3229
  8.8891  7.0636  3.3675  3.3675  2.6752  2.0930  1.8444  1.8444  0.8883  0.8883
  1.2596  1.2596  1.2550  1.0954  1.0954  0.9654  0.9654  0.9952

 Free energy of the ion-electron system (eV)
  ---------------------------------------------------
  alpha Z        PSCENC =       170.45750602
  Ewald energy   TEWEN  =     11643.76239419
  -Hartree energ DENC   =    -18057.09864716
  -exchange      EXHF   =         0.00000000
  -V(xc)+E(xc)   XCENC  =        44.21700150
  PAW double counting   =      3824.47154978    -3529.53467676
  entropy T*S    EENTRO =         0.00000000
  eigenvalues    EBANDS =     -1455.08828849
  atomic energy  EATOM  =      7269.15145414
  Solvation  Ediel_sol  =         0.00000000
  ---------------------------------------------------
  free energy    TOTEN  =       -89.66170677 eV

  energy without entropy =      -89.66170677  energy(sigma->0) =      -89.66170677


--------------------------------------------------------------------------------------------------------




--------------------------------------- Iteration      1(  24)  ---------------------------------------


    POTLOK:  cpu time    2.7557: real time    2.7723
    SETDIJ:  cpu time    0.0023: real time    0.0023
     EDDAV:  cpu time    2.2375: real time    2.2428
 BZINTS: Fermi energy: -0.572965;144.000000 electrons
         Band energy:***********;  BLOECHL correction:  0.000000
       DOS:  cpu time    0.0026: real time    0.0026
    CHARGE:  cpu time    0.2387: real time    0.2392
    MIXING:  cpu time    0.0083: real time    0.0084
    --------------------------------------------
      LOOP:  cpu time    5.2451: real time    5.2676

 eigenvalue-minimisations  :  1936
 total energy-change (2. order) :-0.1390596E-05  (-0.3036713E-07)
 number of electron     143.9999988 magnetization 
 augmentation part      -17.7037676 magnetization 

 Broyden mixing:
  rms(total) = 0.15877E-04    rms(broyden)= 0.15877E-04
  rms(prec ) = 0.23613E-04
  weight for this iteration     100.00

 eigenvalues of (default mixing * dielectric matrix)
  average eigenvalue GAMMA=   2.3031
  8.7877  7.1772  3.4448  3.4448  2.9086  2.1973  2.0074  2.0074  0.8883  0.8883
  1.2437  1.2437  1.2221  1.2221  1.0993  1.0993  0.9731  0.9731  0.9306

 Free energy of the ion-electron system (eV)
  ---------------------------------------------------
[...]
      7     -28.0872      2.00000
      8     -28.0868      2.00000
      9     -14.9649      2.00000
     10     -14.9646      2.00000
     11     -14.9026      2.00000
     12     -14.9025      2.00000
     13     -14.8376      2.00000
     14     -14.8375      2.00000
     15     -14.0854      2.00000
     16     -14.0849      2.00000
     17     -14.0252      2.00000
     18     -14.0158      2.00000
     19     -13.9710      2.00000
     20     -13.9696      2.00000
     21     -13.9399      2.00000
     22     -13.9371      2.00000
     23     -13.9265      2.00000
     24     -13.9242      2.00000
     25     -13.9014      2.00000
     26     -13.8949      2.00000
     27     -13.4359      2.00000
     28     -13.4277      2.00000
     29     -13.3861      2.00000
     30     -13.3782      2.00000
     31     -13.3607      2.00000
     32     -13.3586      2.00000
     33     -11.0692      2.00000
     34     -11.0584      2.00000
     35     -10.7214      2.00000
     36     -10.7070      2.00000
     37      -6.5294      2.00000
     38      -6.5140      2.00000
     39      -6.2785      2.00000
     40      -6.2676      2.00000
     41      -6.1941      2.00000
     42      -6.1909      2.00000
     43      -5.9753      2.00000
     44      -5.9620      2.00000
     45      -5.9168      2.00000
     46      -5.8731      2.00000
     47      -5.8325      2.00000
     48      -5.7213      2.00000
     49      -2.8735      2.00000
     50      -2.7855      2.00000
     51      -2.6454      2.00000
     52      -2.5967      2.00000
     53      -2.2979      2.00000
     54      -2.2181      2.00000
     55      -2.1986      2.00000
     56      -2.1710      2.00000
     57      -2.0293      2.00000
     58      -2.0063      2.00000
     59      -1.9038      2.00000
     60      -1.8208      2.00000
     61      -1.7508      2.00000
     62      -1.6709      2.00000
     63      -1.5699      2.00000
     64      -1.5137      2.00000
     65      -1.3755      2.00000
     66      -1.3097      2.00000
     67      -1.2595      2.00000
     68      -1.1343      2.00000
     69      -1.0212      2.00000
     70      -0.9515      2.00000
     71      -0.9184      2.00000
     72      -0.8579      2.00000
     73       0.1885      0.00000
     74       0.2295      0.00000
     75       0.3895      0.00000
     76       0.4347      0.00000
     77       0.5360      0.00000
     78       0.6209      0.00000
     79       0.7552      0.00000
     80       0.7692      0.00000
     81       0.8177      0.00000
     82       0.8681      0.00000
     83       1.0248      0.00000
     84       1.0558      0.00000
     85       1.1743      0.00000
     86       1.3294      0.00000
     87       1.4151      0.00000
     88       1.5354      0.00000

 k-point    15 :       0.0000    0.5000    0.4000
  band No.  band energies     occupation 
      1     -29.6499      2.00000
      2     -29.6499      2.00000
      3     -28.6788      2.00000
      4     -28.6788      2.00000
      5     -28.6743      2.00000
      6     -28.6743      2.00000
      7     -28.0870      2.00000
      8     -28.0870      2.00000
      9     -14.9643      2.00000
     10     -14.9643      2.00000
     11     -14.9033      2.00000
     12     -14.9033      2.00000
     13     -14.8396      2.00000
     14     -14.8396      2.00000
     15     -14.0844      2.00000
     16     -14.0844      2.00000
     17     -14.0220      2.00000
     18     -14.0220      2.00000
     19     -13.9726      2.00000
     20     -13.9726      2.00000
     21     -13.9425      2.00000
     22     -13.9424      2.00000
     23     -13.9242      2.00000
     24     -13.9242      2.00000
     25     -13.8978      2.00000
     26     -13.8978      2.00000
     27     -13.4315      2.00000
     28     -13.4315      2.00000
     29     -13.3826      2.00000
     30     -13.3826      2.00000
     31     -13.3589      2.00000
     32     -13.3589      2.00000
     33     -11.0579      2.00000
     34     -11.0579      2.00000
     35     -10.7048      2.00000
     36     -10.7048      2.00000
     37      -6.5512      2.00000
     38      -6.5512      2.00000
     39      -6.2512      2.00000
     40      -6.2511      2.00000
     41      -6.1892      2.00000
     42      -6.1891      2.00000
     43      -5.9448      2.00000
     44      -5.9447      2.00000
     45      -5.9059      2.00000
     46      -5.9059      2.00000
     47      -5.7711      2.00000
     48      -5.7711      2.00000
     49      -2.7827      2.00000
     50      -2.7827      2.00000
     51      -2.6406      2.00000
     52      -2.6406      2.00000
     53      -2.2541      2.00000
     54      -2.2541      2.00000
     55      -2.1962      2.00000
     56      -2.1962      2.00000
     57      -2.0236      2.00000
     58      -2.0236      2.00000
     59      -1.8106      2.00000
     60      -1.8106      2.00000
     61      -1.6059      2.00000
     62      -1.6059      2.00000
     63      -1.6006      2.00000
     64      -1.6006      2.00000
     65      -1.3585      2.00000
     66      -1.3585      2.00000
     67      -1.1998      2.00000
     68      -1.1998      2.00000
     69      -1.0100      2.00000
     70      -1.0100      2.00000
     71      -0.8931      2.00000
     72      -0.8931      2.00000
     73       0.1317      0.00000
     74       0.1317      0.00000
     75       0.3768      0.00000
     76       0.3768      0.00000
     77       0.5860      0.00000
     78       0.5860      0.00000
     79       0.7198      0.00000
     80       0.7199      0.00000
     81       0.7822      0.00000
     82       0.7823      0.00000
     83       1.0590      0.00000
     84       1.0591      0.00000
     85       1.2554      0.00000
     86       1.2555      0.00000
     87       1.3961      0.00000
     88       1.3963      0.00000


--------------------------------------------------------------------------------------------------------


 soft charge-density along one line, spin component           1
         0         1         2         3         4         5         6         7         8         9
 total charge-density along one line
 
 pseudopotential strength for first ion, spin component:           1
  4.872  -5.564  -0.000  -0.006  -0.024  -0.000  -0.004  -0.020
 -5.564  -2.760   0.000   0.001   0.004  -0.000  -0.001  -0.004
 -0.000   0.000  -6.822  -0.000  -0.000   1.883  -0.000  -0.000
 -0.006   0.001  -0.000  -6.817  -0.002  -0.000   1.894  -0.003
 -0.024   0.004  -0.000  -0.002  -6.817  -0.000  -0.003   1.893
 -0.000  -0.000   1.883  -0.000  -0.000   7.262  -0.000  -0.000
 -0.004  -0.001  -0.000   1.894  -0.003  -0.000   7.263  -0.000
 -0.020  -0.004  -0.000  -0.003   1.893  -0.000  -0.000   7.263
 -0.000   0.000  -0.012  -0.000  -0.000  -0.009  -0.000  -0.000
 -0.000   0.000  -0.001  -0.000  -0.000  -0.000  -0.000  -0.000
  0.002  -0.001   0.000  -0.004   0.006   0.000  -0.003   0.005
 -0.002   0.001  -0.000  -0.011  -0.002  -0.000  -0.008  -0.002
  0.003  -0.001   0.000  -0.001  -0.011   0.000  -0.001  -0.008
  0.000   0.000   0.001   0.000   0.000   0.000   0.000   0.000
  0.000   0.000   0.000   0.000   0.000  -0.000   0.000   0.000
 -0.000  -0.000  -0.000   0.000  -0.000  -0.000   0.000  -0.000
  0.000   0.000   0.000   0.001   0.000   0.000   0.000   0.000
 -0.000  -0.000  -0.000   0.000   0.000  -0.000   0.000   0.000
 total augmentation occupancy for first ion, spin component:           1
  2.108  -0.260   0.000   0.012   0.051   0.000  -0.005  -0.019   0.000   0.000   0.014  -0.008   0.031   0.000  -0.000  -0.008
 -0.260   0.636   0.000  -0.032  -0.134  -0.000   0.012   0.032   0.000   0.000  -0.023   0.009  -0.061  -0.000   0.000   0.035
  0.000   0.000   2.012   0.000   0.000  -0.015   0.000   0.000  -0.080   0.022   0.000   0.000   0.000   0.068  -0.043   0.000
  0.012  -0.032  -0.000   1.999   0.003   0.000  -0.006  -0.002   0.000   0.000  -0.044  -0.065  -0.014  -0.000   0.000   0.044
  0.051  -0.134   0.000   0.003   1.994  -0.000  -0.002  -0.004   0.000   0.000   0.033  -0.006  -0.050   0.000   0.000  -0.027
  0.000  -0.000  -0.015   0.000   0.000   0.008   0.000   0.000   0.022  -0.009   0.000   0.000   0.000  -0.030   0.013   0.000
 -0.005   0.012   0.000  -0.006  -0.002   0.000   0.005   0.001   0.000   0.000   0.016   0.015   0.005   0.000   0.000  -0.022
 -0.019   0.032   0.000  -0.002  -0.004   0.000   0.001   0.004  -0.000   0.000  -0.007   0.000   0.009   0.000   0.000   0.009
  0.000   0.000  -0.080   0.000   0.000   0.022   0.000   0.000   0.146  -0.014   0.000   0.000   0.000  -0.187   0.020   0.000
  0.000   0.000   0.022   0.000   0.000  -0.009  -0.000   0.000  -0.014   0.068   0.000  -0.000  -0.000   0.018  -0.085   0.000
  0.014  -0.023  -0.000  -0.044   0.033   0.000   0.016  -0.007   0.000   0.000   0.120   0.050   0.019  -0.000   0.000  -0.150
 -0.008   0.009   0.000  -0.065  -0.006   0.000   0.015   0.000   0.000   0.000   0.050   0.088   0.008   0.000   0.000  -0.070
  0.031  -0.061   0.000  -0.014  -0.050   0.000   0.005   0.009   0.000   0.000   0.019   0.008   0.092   0.000   0.000  -0.026
  0.000   0.000   0.068   0.000   0.000  -0.030   0.000   0.000  -0.187   0.018   0.000   0.000   0.000   0.267  -0.034   0.000
 -0.000   0.000  -0.043   0.000   0.000   0.013   0.000   0.000   0.020  -0.085   0.000   0.000   0.000  -0.034   0.117   0.000
 -0.008   0.035   0.000   0.044  -0.027   0.000  -0.022   0.009   0.000   0.000  -0.150  -0.070  -0.026   0.000   0.000   0.208
  0.006  -0.026   0.000   0.054  -0.000   0.000  -0.023  -0.001   0.000   0.000  -0.069  -0.113  -0.011   0.000   0.000   0.107
 -0.024   0.074   0.000   0.022   0.042   0.000  -0.008  -0.012   0.000   0.000  -0.028  -0.013  -0.124   0.000   0.000   0.044


------------------------ aborting loop because EDIFF is reached ----------------------------------------


    CHARGE:  cpu time    0.1802: real time    0.1807
    FORLOC:  cpu time    0.0098: real time    0.0098
    FORNL :  cpu time    0.6320: real time    0.6335
    STRESS:  cpu time    2.0204: real time    2.0253
    FORCOR:  cpu time    2.5394: real time    2.5454
    FORHAR:  cpu time    0.0247: real time    0.0248
    MIXING:  cpu time    0.0088: real time    0.0088
    OFIELD:  cpu time    0.0000: real time    0.0000

  FORCE on cell =-STRESS in cart. coord.  units (eV):
  Direction    XX          YY          ZZ          XY          YZ          ZX
  --------------------------------------------------------------------------------------
  Alpha Z   170.45751   170.45751   170.45751
  Ewald  -19398.64932 15791.66992 15250.72828    -0.00002     0.00000   139.72426
  Hartree-16327.17510 17402.94554 16981.32778     0.00000    -0.00000   106.70029
  E(xc)    -461.10090  -462.33695  -462.34801    -0.00000     0.00000     0.06213
  Local   34309.82391-34629.83400-33659.64436     0.00001    -0.00000  -244.15013
  n-local   336.45436   336.48808   337.40329     0.06181    -0.21194    -1.49590
  augment  -167.58278  -167.96590  -167.87625    -0.00000    -0.00000     0.30740
  Kinetic  1526.77232  1545.34545  1537.21273    -0.03948    -0.85093    -1.00187
  Fock        0.00000     0.00000     0.00000     0.00000     0.00000     0.00000
  -------------------------------------------------------------------------------------
  Total     -11.00000   -13.23035   -12.73903     0.00000     0.00000     0.14618
  in kB      -9.33449   -11.22715   -10.81022     0.00000     0.00000     0.12405
  external pressure =      -10.46 kB  Pullay stress =        0.00 kB


 VOLUME and BASIS-vectors are now :
 -----------------------------------------------------------------------------
  energy-cutoff  :      500.00
  volume of cell :     1888.05
      direct lattice vectors                 reciprocal lattice vectors
    24.009468079  0.000000000  0.000000000     0.041650236  0.000000000  0.000000000
     0.000000000  6.777849674  0.000000000     0.000000000  0.147539419  0.000000000
     0.000000000  0.000000000 11.602143288     0.000000000  0.000000000  0.086190971

  length of vectors
    24.009468079  6.777849674 11.602143288     0.041650236  0.147539419  0.086190971


 FORCES acting on ions
    electron-ion (+dipol)            ewald-force                    non-local-force                 convergence-correction
 -----------------------------------------------------------------------------------------------
   0.777E+03 0.102E-04 0.438E+02   -.772E+03 0.987E-05 -.430E+02   -.403E+01 -.318E-18 -.796E+00   -.206E-03 -.205E-08 0.993E-05
   -.777E+03 -.632E-04 -.438E+02   0.772E+03 -.128E-04 0.430E+02   0.403E+01 0.297E-18 0.796E+00   0.206E-03 0.218E-08 -.992E-05
   0.843E+02 -.608E-04 -.367E+02   -.841E+02 -.181E-04 0.355E+02   -.219E-01 -.305E-18 0.124E+01   0.582E-04 0.342E-08 0.272E-04
   -.843E+02 0.112E-04 0.367E+02   0.841E+02 0.128E-04 -.355E+02   0.219E-01 -.257E-18 -.124E+01   -.582E-04 -.319E-08 -.272E-04
   0.623E+03 -.612E-04 -.495E+02   -.621E+03 -.165E-04 0.499E+02   -.177E+01 -.254E-17 -.434E+00   -.140E-03 0.274E-08 -.145E-03
   -.623E+03 0.902E-05 0.495E+02   0.621E+03 0.144E-04 -.499E+02   0.177E+01 -.243E-17 0.434E+00   0.140E-03 -.263E-08 0.145E-03
   0.360E+03 0.116E-04 -.794E+01   -.358E+03 0.132E-04 0.726E+01   -.683E+00 0.157E-17 0.682E+00   0.511E-04 -.303E-08 0.970E-04
   -.360E+03 -.619E-04 0.794E+01   0.358E+03 -.134E-04 -.726E+01   0.683E+00 0.165E-17 -.682E+00   -.511E-04 0.287E-08 -.970E-04
   0.273E+03 0.355E+02 -.462E+02   -.273E+03 -.372E+02 0.471E+02   -.160E+00 0.175E+01 -.925E+00   0.169E-04 0.242E-04 -.518E-05
   -.273E+03 -.355E+02 0.462E+02   0.273E+03 0.372E+02 -.471E+02   0.160E+00 -.175E+01 0.925E+00   -.169E-04 -.242E-04 0.518E-05
   0.121E+03 -.316E+02 0.275E+01   -.120E+03 0.329E+02 -.159E+01   -.167E+00 -.137E+01 -.117E+01   -.218E-04 -.554E-04 -.427E-04
   -.121E+03 0.316E+02 -.275E+01   0.120E+03 -.329E+02 0.159E+01   0.167E+00 0.137E+01 0.117E+01   0.218E-04 0.554E-04 0.427E-04
   -.273E+03 0.355E+02 0.462E+02   0.273E+03 -.372E+02 -.471E+02   0.160E+00 0.175E+01 0.925E+00   -.169E-04 0.242E-04 0.518E-05
   0.273E+03 -.355E+02 -.462E+02   -.273E+03 0.372E+02 0.471E+02   -.160E+00 -.175E+01 -.925E+00   0.169E-04 -.242E-04 -.518E-05
   -.121E+03 -.316E+02 -.275E+01   0.120E+03 0.329E+02 0.159E+01   0.167E+00 -.137E+01 0.117E+01   0.218E-04 -.554E-04 0.427E-04
   0.121E+03 0.316E+02 0.275E+01   -.120E+03 -.329E+02 -.159E+01   -.167E+00 0.137E+01 -.117E+01   -.218E-04 0.554E-04 -.427E-04
   0.329E+03 -.436E-05 0.461E+02   -.330E+03 -.609E-05 -.465E+02   0.148E+01 -.147E-20 0.445E+00   0.279E-04 0.856E-09 0.400E-04
   -.329E+03 0.618E-05 -.461E+02   0.330E+03 0.630E-05 0.465E+02   -.148E+01 -.198E-19 -.445E+00   -.279E-04 -.962E-09 -.400E-04
   0.333E+02 0.918E-05 -.107E+02   -.315E+02 0.753E-05 0.999E+01   -.144E+01 -.306E-19 0.666E+00   -.428E-05 -.132E-08 0.214E-04
   -.333E+02 -.208E-05 0.107E+02   0.315E+02 -.722E-05 -.999E+01   0.144E+01 0.257E-19 -.666E+00   0.429E-05 0.122E-08 -.214E-04
   0.240E+03 0.434E-05 0.110E+02   -.239E+03 0.806E-05 -.126E+02   -.253E+00 -.201E-18 0.151E+01   -.317E-04 -.114E-08 -.165E-04
   -.240E+03 -.569E-05 -.110E+02   0.239E+03 -.812E-05 0.126E+02   0.253E+00 0.432E-18 -.151E+01   0.317E-04 0.105E-08 0.165E-04
   0.156E+03 -.629E-05 0.585E+02   -.155E+03 -.756E-05 -.604E+02   -.736E+00 0.834E-17 0.194E+01   0.538E-05 0.112E-08 0.924E-04
   -.156E+03 0.371E-05 -.585E+02   0.155E+03 0.739E-05 0.604E+02   0.736E+00 0.939E-17 -.194E+01   -.537E-05 -.116E-08 -.924E-04
 -----------------------------------------------------------------------------------------------
   0.387E-04 -.211E-03 0.553E-04   0.114E-12 0.287E-13 -.142E-13   -.222E-15 0.240E-15 -.666E-15   0.569E-07 -.274E-09 -.365E-08
 
 
 POSITION                                       TOTAL-FORCE (eV/Angst)
 -----------------------------------------------------------------------------------
      0.13670      1.69446      8.17941         0.773445      0.000000     -0.000359
      9.17277      5.08339      3.42274        -0.773445      0.000000      0.000359
      4.36803      5.08339      2.15864         0.232027      0.000000      0.000429
      4.94143      1.69446      9.44351        -0.232027      0.000000     -0.000429
      1.43529      5.08339     10.62801         0.717571      0.000000      0.000755
      7.87418      1.69446      0.97414        -0.717571      0.000000     -0.000755
      3.06944      1.69446      4.61549         0.488754      0.000000      0.000389
      6.24002      5.08339      6.98665        -0.488754      0.000000     -0.000389
      1.75027      0.48823      1.66719        -0.134813      0.000740      0.000327
      7.55920      6.28962      9.93495         0.134813     -0.000740     -0.000327
      2.75446      6.29931      7.65384         0.251668     -0.000067      0.000151
      6.55500      0.47854      3.94830        -0.251668      0.000067     -0.000151
      7.55920      3.87715      9.93495         0.134813      0.000740     -0.000327
      1.75027      2.90070      1.66719        -0.134813     -0.000740      0.000327
      6.55500      2.91038      3.94830        -0.251668     -0.000067     -0.000151
      2.75446      3.86747      7.65384         0.251668      0.000067      0.000151
      0.74693      5.08339      6.96508        -0.254215      0.000000     -0.000313
      8.56254      1.69446      4.63706         0.254215      0.000000      0.000313
      3.75780      1.69446      0.95666         0.336514      0.000000     -0.000365
      5.55166      5.08339     10.64549        -0.336514      0.000000      0.000365
      1.78112      1.69446     11.14650        -0.171178      0.000000      0.000206
      7.52835      5.08339      0.45564         0.171178      0.000000     -0.000206
      2.72362      5.08339      5.53143        -0.143867      0.000000      0.000717
      6.58585      1.69446      6.07071         0.143867      0.000000     -0.000717
 -----------------------------------------------------------------------------------
    total drift:                                0.000039     -0.000211      0.000055


--------------------------------------------------------------------------------------------------------



  FREE ENERGIE OF THE ION-ELECTRON SYSTEM (eV)
  ---------------------------------------------------
  free  energy   TOTEN  =       -89.66170837 eV

  energy  without entropy=      -89.66170837  energy(sigma->0) =      -89.66170837
 


--------------------------------------------------------------------------------------------------------


    POTLOK:  cpu time    2.5930: real time    2.5991


--------------------------------------------------------------------------------------------------------


 writing wavefunctions
     LOOP+:  cpu time14096.1438: real time14132.1717
    4ORBIT:  cpu time    0.0000: real time    0.0000
 BZINTS: Fermi energy: -0.575292;144.000000 electrons
         Band energy:***********;  BLOECHL correction:  0.000000

 total amount of memory used by VASP MPI-rank0    79352. kBytes
=======================================================================

   base      :      30000. kBytes
   nonlr-proj:       2646. kBytes
   fftplans  :       5898. kBytes
   grid      :       8824. kBytes
   one-center:         93. kBytes
   wavefun   :      31891. kBytes
 
  
  
 General timing and accounting informations for this job:
 ========================================================
  
                  Total CPU time used (sec):    14104.736
                            User time (sec):    14091.125
                          System time (sec):       13.611
                         Elapsed time (sec):    14143.950
  
                   Maximum memory used (kb):      296424.
                   Average memory used (kb):           0.
  
                          Minor page faults:       121991
                          Major page faults:          189
                 Voluntary context switches:        16181
