 vasp.5.4.4.18Apr17-6-g9f103f2a35 (build Nov 21 2017 15:30:27) complex          
  
 executed on             LinuxIFC date 2020.09.15  09:21:00
 running on   64 total cores
 distrk:  each k-point on   32 cores,    2 groups
 distr:  one band on NCORES_PER_BAND=   4 cores,    8 groups


--------------------------------------------------------------------------------------------------------


 INCAR:
 POTCAR:   PAW_PBE Ba_sv 06Sep2000                
 POTCAR:   PAW_PBE Si 05Jan2001                   

 ----------------------------------------------------------------------------- 
|                                                                             |
|           W    W    AA    RRRRR   N    N  II  N    N   GGGG   !!!           |
|           W    W   A  A   R    R  NN   N  II  NN   N  G    G  !!!           |
|           W    W  A    A  R    R  N N  N  II  N N  N  G       !!!           |
|           W WW W  AAAAAA  RRRRR   N  N N  II  N  N N  G  GGG   !            |
|           WW  WW  A    A  R   R   N   NN  II  N   NN  G    G                |
|           W    W  A    A  R    R  N    N  II  N    N   GGGG   !!!           |
|                                                                             |
|      You have enabled k-point parallelism (KPAR>1).                         |
|      This developmental code was originally  written by Paul Kent at ORNL,  |
|      and carefully double checked in Vienna.                                |
|      GW as well as linear response parallelism added by Martijn Marsman     |
|      and Georg Kresse.                                                      |
|      Carefully verify results versus KPAR=1.                                |
|      Report problems to Paul Kent and Vienna.                               |
|                                                                             |
 ----------------------------------------------------------------------------- 


 ----------------------------------------------------------------------------- 
|                                                                             |
|  ADVICE TO THIS USER RUNNING 'VASP/VAMP'   (HEAR YOUR MASTER'S VOICE ...):  |
|                                                                             |
|      You have switched on vdW-DFT.                                          |
|      This routine was written and supplied by Jiri Klimes.                  |
|      We recommed that you carefully read and cite the following             |
|      publication                                                            |
|      J. Klimes, D.R. Bowler, A. Michelides                                  |
|        J. Phys.: Cond Matt. 22 022201 (2010)                                |
|      J. Klimes, D.R. Bowler, A. Michelides                                  |
|        Phys. Rev. B. 83, 195131 (2011)                                      |
|      and references therein.                                                |
|                                                                             |
 ----------------------------------------------------------------------------- 

 POTCAR:   PAW_PBE Ba_sv 06Sep2000                
   VRHFIN =Ba: 5s5p6s                                                           
   LEXCH  = PE                                                                  
   EATOM  =   700.2255 eV,   51.4651 Ry                                         
                                                                                
   TITEL  = PAW_PBE Ba_sv 06Sep2000                                             
   LULTRA =        F    use ultrasoft PP ?                                      
   IUNSCR =        1    unscreen: 0-lin 1-nonlin 2-no                           
   RPACOR =    2.400    partial core radius                                     
   POMASS =  137.327; ZVAL   =   10.000    mass and valenz                      
   RCORE  =    2.800    outmost cutoff radius                                   
   RWIGS  =    3.740; RWIGS  =    1.979    wigner-seitz radius (au A)           
   ENMAX  =  187.210; ENMIN  =  140.408 eV                                      
   RCLOC  =    2.516    cutoff for local pot                                    
   LCOR   =        T    correct aug charges                                     
   LPAW   =        T    paw PP                                                  
   EAUG   =  351.165                                                            
   DEXC   =     .000                                                            
   RMAX   =    3.370    core radius for proj-oper                               
   RAUG   =    1.300    factor for augmentation sphere                          
   RDEP   =    2.976    radius for radial grids                                 
   QCUT   =   -3.709; QGAM   =    7.419    optimization parameters              
                                                                                
   Description                                                                  
     l     E      TYP  RCUT    TYP  RCUT                                        
     0   .000     23  2.800                                                     
     0   .000     23  2.800                                                     
     1   .000     23  2.700                                                     
     1  2.000     23  2.700                                                     
     2   .000     23  2.700                                                     
     2   .000     23  2.700                                                     
  local pseudopotential read in
  partial core-charges read in
  atomic valenz-charges read in
  non local Contribution for L=           0  read in
    real space projection operators read in
  non local Contribution for L=           0  read in
    real space projection operators read in
  non local Contribution for L=           1  read in
    real space projection operators read in
  non local Contribution for L=           1  read in
    real space projection operators read in
  non local Contribution for L=           2  read in
    real space projection operators read in
  non local Contribution for L=           2  read in
    real space projection operators read in
    PAW grid and wavefunctions read in
 
   number of l-projection  operators is LMAX  =           6
   number of lm-projection operators is LMMAX =          18
 
 POTCAR:   PAW_PBE Si 05Jan2001                   
   VRHFIN =Si: s2p2                                                             
   LEXCH  = PE                                                                  
   EATOM  =   103.0669 eV,    7.5752 Ry                                         
                                                                                
   TITEL  = PAW_PBE Si 05Jan2001                                                
   LULTRA =        F    use ultrasoft PP ?                                      
   IUNSCR =        1    unscreen: 0-lin 1-nonlin 2-no                           
   RPACOR =    1.500    partial core radius                                     
   POMASS =   28.085; ZVAL   =    4.000    mass and valenz                      
   RCORE  =    1.900    outmost cutoff radius                                   
   RWIGS  =    2.480; RWIGS  =    1.312    wigner-seitz radius (au A)           
   ENMAX  =  245.345; ENMIN  =  184.009 eV                                      
   ICORE  =        2    local potential                                         
   LCOR   =        T    correct aug charges                                     
   LPAW   =        T    paw PP                                                  
   EAUG   =  322.069                                                            
   DEXC   =    -.007                                                            
   RMAX   =    2.944    core radius for proj-oper                               
   RAUG   =    1.300    factor for augmentation sphere                          
   RDEP   =    1.993    radius for radial grids                                 
   QCUT   =   -4.246; QGAM   =    8.493    optimization parameters              
                                                                                
   Description                                                                  
     l     E      TYP  RCUT    TYP  RCUT                                        
     0   .000     23  1.900                                                     
     0   .000     23  1.900                                                     
     1   .000     23  1.900                                                     
     1   .000     23  1.900                                                     
     2   .000      7  1.900                                                     
  local pseudopotential read in
  partial core-charges read in
  atomic valenz-charges read in
  non local Contribution for L=           0  read in
    real space projection operators read in
  non local Contribution for L=           0  read in
    real space projection operators read in
  non local Contribution for L=           1  read in
    real space projection operators read in
  non local Contribution for L=           1  read in
    real space projection operators read in
    PAW grid and wavefunctions read in
 
   number of l-projection  operators is LMAX  =           4
   number of lm-projection operators is LMMAX =           8
 
 Optimization of the real space projectors (new method)

 maximal supplied QI-value         = 13.42
 optimisation between [QCUT,QGAM] = [ 11.40, 22.81] = [ 36.42,145.68] Ry 
 Optimized for a Real-space Cutoff    1.56 Angstroem

   l    n(q)    QCUT    max X(q) W(low)/X(q) W(high)/X(q)  e(spline) 
   0     11    11.404     7.198    0.14E-04    0.26E-04    0.99E-07
   0     11    11.404    15.603    0.29E-04    0.72E-04    0.44E-06
   1     10    11.404     3.746    0.20E-04    0.24E-04    0.43E-07
   1     10    11.404     4.362    0.22E-03    0.97E-04    0.22E-06
   2     10    11.404     5.782    0.83E-04    0.62E-05    0.27E-06
   2     10    11.404    65.505    0.42E-03    0.31E-04    0.12E-05
 Optimization of the real space projectors (new method)

 maximal supplied QI-value         = 19.84
 optimisation between [QCUT,QGAM] = [ 11.31, 22.82] = [ 35.82,145.81] Ry 
 Optimized for a Real-space Cutoff    1.16 Angstroem

   l    n(q)    QCUT    max X(q) W(low)/X(q) W(high)/X(q)  e(spline) 
   0      8    11.310     8.708    0.14E-04    0.11E-04    0.43E-08
   0      8    11.310   106.241    0.27E-03    0.30E-03    0.38E-07
   1      7    11.310     5.901    0.82E-05    0.48E-04    0.19E-07
   1      7    11.310    73.241    0.27E-03    0.27E-03    0.74E-07

 ----------------------------------------------------------------------------- 
|                                                                             |
|  ADVICE TO THIS USER RUNNING 'VASP/VAMP'   (HEAR YOUR MASTER'S VOICE ...):  |
|                                                                             |
|      You enforced a specific xc-type in the INCAR file,                     |
|      a different type was found on the POTCAR file                          |
|          I HOPE YOU KNOW, WHAT YOU ARE  DOING                               |
|                                                                             |
 ----------------------------------------------------------------------------- 

 PAW_PBE Ba_sv 06Sep2000                :
 energy of atom  1       EATOM= -700.2255
 kinetic energy error for atom=    0.0005 (will be added to EATOM!!)
 PAW_PBE Si 05Jan2001                   :
 energy of atom  2       EATOM= -103.0669
 kinetic energy error for atom=    0.0006 (will be added to EATOM!!)
 
 
 POSCAR: ba8 si16                                
  positions in direct lattice
  velocities in cartesian coordinates
 exchange correlation table for  LEXCH =       43
   RHO(1)=    0.500       N(1)  =     2000
   RHO(2)=  100.500       N(2)  =     4000
 


--------------------------------------------------------------------------------------------------------


 ion  position               nearest neighbor table
   1  0.006  0.250  0.705-  21 3.40  16 3.44  11 3.44  17 3.65  17 3.65   5 4.38   5 4.38   7 4.61

   2  0.378  0.750  0.295-  22 3.40  12 3.44  15 3.44  18 3.65  18 3.65   6 4.38   6 4.38   8 4.61

   3  0.182  0.750  0.187-  20 3.32   9 3.44  14 3.44  12 3.51  15 3.51  22 3.51  19 3.64  19 3.64
                            23 3.74   5 4.29   7 4.38   7 4.38
   4  0.202  0.250  0.813-  19 3.32  13 3.44  10 3.44  16 3.51  11 3.51  21 3.51  20 3.64  20 3.64
                            24 3.74   6 4.29   8 4.38   8 4.38
   5  0.060  0.750  0.917-   9 3.44  14 3.44  21 3.45  21 3.45  11 3.49  16 3.49  17 3.74   3 4.29
                             1 4.38   1 4.38
   6  0.324  0.250  0.083-  13 3.44  10 3.44  22 3.45  22 3.45  15 3.49  12 3.49  18 3.74   4 4.29
                             2 4.38   2 4.38
   7  0.128  0.250  0.398-  14 3.44   9 3.44  23 3.52  23 3.52  15 3.66  12 3.66  19 3.71  24 3.71
                            16 3.74  11 3.74   3 4.38   3 4.38   1 4.61
   8  0.256  0.750  0.602-  10 3.44  13 3.44  24 3.52  24 3.52  11 3.66  16 3.66  20 3.71  23 3.71
                            12 3.74  15 3.74   4 4.38   4 4.38   2 4.61
   9  0.073  0.072  0.145-  14 2.41  21 2.44  19 2.45   7 3.44   3 3.44   5 3.44
  10  0.311  0.928  0.855-  13 2.41  22 2.44  20 2.45   8 3.44   4 3.44   6 3.44
  11  0.115  0.929  0.659-  16 2.43  23 2.44  17 2.44   1 3.44   5 3.49   4 3.51   8 3.66   7 3.74

  12  0.269  0.071  0.341-  15 2.43  24 2.44  18 2.44   2 3.44   6 3.49   3 3.51   7 3.66   8 3.74

  13  0.311  0.572  0.855-  10 2.41  22 2.44  20 2.45   8 3.44   4 3.44   6 3.44
  14  0.073  0.428  0.145-   9 2.41  21 2.44  19 2.45   7 3.44   3 3.44   5 3.44
  15  0.269  0.429  0.341-  12 2.43  24 2.44  18 2.44   2 3.44   6 3.49   3 3.51   7 3.66   8 3.74

  16  0.115  0.571  0.659-  11 2.43  23 2.44  17 2.44   1 3.44   5 3.49   4 3.51   8 3.66   7 3.74

  17  0.031  0.750  0.600-  23 2.44  11 2.44  16 2.44   1 3.65   1 3.65   5 3.74
  18  0.352  0.250  0.400-  24 2.44  15 2.44  12 2.44   2 3.65   2 3.65   6 3.74
  19  0.157  0.250  0.084-  21 2.43  14 2.45   9 2.45   4 3.32   3 3.64   3 3.64   7 3.71
  20  0.227  0.750  0.916-  22 2.43  10 2.45  13 2.45   3 3.32   4 3.64   4 3.64   8 3.71
  21  0.074  0.250  0.962-  19 2.43  14 2.44   9 2.44   1 3.40   5 3.45   5 3.45   4 3.51
  22  0.309  0.750  0.038-  20 2.43  10 2.44  13 2.44   2 3.40   6 3.45   6 3.45   3 3.51
  23  0.113  0.750  0.476-  17 2.44  11 2.44  16 2.44   7 3.52   7 3.52   8 3.71   3 3.74
  24  0.270  0.250  0.524-  18 2.44  15 2.44  12 2.44   8 3.52   8 3.52   7 3.71   4 3.74
 
  LATTYP: Found a simple orthorhombic cell.
 ALAT       =     6.7778496742
 B/A-ratio  =     1.7117734747
 C/A-ratio  =     3.5423429602
  
  Lattice vectors:
  
 A1 = (   0.0000000000,   6.7778496742,   0.0000000000)
 A2 = (   0.0000000000,   0.0000000000, -11.6021432877)
 A3 = ( -24.0094680786,   0.0000000000,   0.0000000000)


Analysis of symmetry for initial positions (statically):
=====================================================================
 Subroutine PRICEL returns:
 Original cell was already a primitive cell.
 

 Routine SETGRP: Setting up the symmetry group for a 
 simple orthorhombic supercell.


 Subroutine GETGRP returns: Found  4 space group operations
 (whereof  1 operations were pure point group operations)
 out of a pool of  8 trial point group operations.


The static configuration has the point symmetry C_1 .
 The point group associated with its full space group is C_2h.


Analysis of symmetry for dynamics (positions and initial velocities):
=====================================================================
 Subroutine PRICEL returns:
 Original cell was already a primitive cell.
 

 Routine SETGRP: Setting up the symmetry group for a 
 simple orthorhombic supercell.


 Subroutine GETGRP returns: Found  4 space group operations
 (whereof  1 operations were pure point group operations)
 out of a pool of  8 trial point group operations.


The dynamic configuration has the point symmetry C_1 .
 The point group associated with its full space group is C_2h.


Analysis of constrained symmetry for selective dynamics:
=====================================================================
 Subroutine PRICEL returns:
 Original cell was already a primitive cell.
 

 Routine SETGRP: Setting up the symmetry group for a 
 simple orthorhombic supercell.


 Subroutine GETGRP returns: Found  4 space group operations
 (whereof  1 operations were pure point group operations)
 out of a pool of  8 trial point group operations.


The constrained configuration has the point symmetry C_1 .
 The point group associated with its full space group is C_2h.


 Subroutine INISYM returns: Found  4 space group operations
 (whereof  1 operations are pure point group operations),
 and found     1 'primitive' translations

 
 
 KPOINTS: k-density: 8.0                          

Automatic generation of k-mesh.
Space group operators:
 irot       det(A)        alpha          n_x          n_y          n_z        tau_x        tau_y        tau_z
    1     1.000000     0.000000     1.000000     0.000000     0.000000     0.000000     0.000000     0.000000
    2    -1.000000     0.000000     1.000000     0.000000     0.000000    -0.616423     0.000000     0.000000
    3     1.000000   180.000000     0.000000     1.000000     0.000000    -0.616423     0.500000     0.000000
    4    -1.000000   180.000000     0.000000     1.000000     0.000000     0.000000     0.500000     0.000000
 
 Subroutine IBZKPT returns following result:
 ===========================================
 
 Found     15 irreducible k-points:
 
 Following reciprocal coordinates:
            Coordinates               Weight
  0.000000  0.000000  0.000000      1.000000
  0.000000  0.125000  0.000000      2.000000
  0.000000  0.250000  0.000000      2.000000
  0.000000  0.375000  0.000000      2.000000
  0.000000  0.500000  0.000000      1.000000
  0.000000  0.000000  0.200000      2.000000
  0.000000  0.125000  0.200000      4.000000
  0.000000  0.250000  0.200000      4.000000
  0.000000  0.375000  0.200000      4.000000
  0.000000  0.500000  0.200000      2.000000
  0.000000  0.000000  0.400000      2.000000
  0.000000  0.125000  0.400000      4.000000
  0.000000  0.250000  0.400000      4.000000
  0.000000  0.375000  0.400000      4.000000
  0.000000  0.500000  0.400000      2.000000
 
 Following cartesian coordinates:
            Coordinates               Weight
  0.000000  0.000000  0.000000      1.000000
  0.000000  0.018442  0.000000      2.000000
  0.000000  0.036885  0.000000      2.000000
  0.000000  0.055327  0.000000      2.000000
  0.000000  0.073770  0.000000      1.000000
  0.000000  0.000000  0.017238      2.000000
  0.000000  0.018442  0.017238      4.000000
  0.000000  0.036885  0.017238      4.000000
  0.000000  0.055327  0.017238      4.000000
  0.000000  0.073770  0.017238      2.000000
  0.000000  0.000000  0.034476      2.000000
  0.000000  0.018442  0.034476      4.000000
  0.000000  0.036885  0.034476      4.000000
  0.000000  0.055327  0.034476      4.000000
  0.000000  0.073770  0.034476      2.000000
 
 TETIRR: Found    108 inequivalent tetrahedra from      240


--------------------------------------------------------------------------------------------------------




 Dimension of arrays:
   k-points           NKPTS =     15   k-points in BZ     NKDIM =     15   number of bands    NBANDS=     88
   number of dos      NEDOS =    301   number of ions     NIONS =     24
   non local maximal  LDIM  =      6   non local SUM 2l+1 LMDIM =     18
   total plane-waves  NPLWV = 358400
   max r-space proj   IRMAX =   3093   max aug-charges    IRDMAX=  12081
   dimension x,y,z NGX =   140 NGY =   40 NGZ =   64
   dimension x,y,z NGXF=   280 NGYF=   80 NGZF=  128
   support grid    NGXF=   280 NGYF=   80 NGZF=  128
   ions per type =               8  16
   NGX,Y,Z   is equivalent  to a cutoff of   9.69,  9.81,  9.17 a.u.
   NGXF,Y,Z  is equivalent  to a cutoff of  19.39, 19.62, 18.34 a.u.

 SYSTEM =  unknown system                          
 POSCAR =  ba8 si16                                

 Startparameter for this run:
   NWRITE =      2    write-flag & timer
   PREC   = normal    normal or accurate (medium, high low for compatibility)
   ISTART =      0    job   : 0-new  1-cont  2-samecut
   ICHARG =      2    charge: 1-file 2-atom 10-const
   ISPIN  =      1    spin polarized calculation?
   LNONCOLLINEAR =      F non collinear calculations
   LSORBIT =      F    spin-orbit coupling
   INIWAV =      1    electr: 0-lowe 1-rand  2-diag
   LASPH  =      T    aspherical Exc in radial PAW
   METAGGA=      F    non-selfconsistent MetaGGA calc.

 Electronic Relaxation 1
   ENCUT  =  500.0 eV  36.75 Ry    6.06 a.u.  43.77 12.36 21.15*2*pi/ulx,y,z
   ENINI  =  500.0     initial cutoff
   ENAUG  =  351.2 eV  augmentation charge cutoff
   NELM   =    100;   NELMIN=  2; NELMDL= -5     # of ELM steps 
   EDIFF  = 0.1E-05   stopping-criterion for ELM
   LREAL  =      T    real-space projection
   NLSPLINE    = F    spline interpolate recip. space projectors
   LCOMPAT=      F    compatible to vasp.4.4
   GGA_COMPAT  = T    GGA compatible to vasp.4.4-vasp.4.6
   LMAXPAW     = -100 max onsite density
   LMAXMIX     =    2 max onsite mixed and CHGCAR
   VOSKOWN=      0    Vosko Wilk Nusair interpolation
   ROPT   =   -0.00050  -0.00050
 Ionic relaxation
   EDIFFG = -.1E-02   stopping-criterion for IOM
   NSW    =      0    number of steps for IOM
   NBLOCK =      1;   KBLOCK =      1    inner block; outer block 
   IBRION =     -1    ionic relax: 0-MD 1-quasi-New 2-CG
   NFREE  =      0    steps in history (QN), initial steepest desc. (CG)
   ISIF   =      2    stress and relaxation
   IWAVPR =     10    prediction:  0-non 1-charg 2-wave 3-comb
   ISYM   =      2    0-nonsym 1-usesym 2-fastsym
   LCORR  =      T    Harris-Foulkes like correction to forces

   POTIM  = 0.3000    time-step for ionic-motion
   TEIN   =    0.0    initial temperature
   TEBEG  =    0.0;   TEEND  =   0.0 temperature during run
   SMASS  =  -3.00    Nose mass-parameter (am)
   estimated Nose-frequenzy (Omega)   =  0.10E-29 period in steps =****** mass=  -0.132E-25a.u.
   SCALEE = 1.0000    scale energy and forces
   NPACO  =    256;   APACO  = 16.0  distance and # of slots for P.C.
   PSTRESS=    0.0 pullay stress

  Mass of Ions in am
   POMASS = 137.33 28.09
  Ionic Valenz
   ZVAL   =  10.00  4.00
  Atomic Wigner-Seitz radii
   RWIGS  =  -1.00 -1.00
  virtual crystal weights 
   VCA    =   1.00  1.00
   NELECT =     144.0000    total number of electrons
   NUPDOWN=      -1.0000    fix difference up-down

 DOS related values:
   EMIN   =  10.00;   EMAX   =-10.00  energy-range for DOS
   EFERMI =   0.00
   ISMEAR =    -5;   SIGMA  =   0.01  broadening in eV -4-tet -1-fermi 0-gaus

 Electronic relaxation 2 (details)
   IALGO  =     38    algorithm
   LDIAG  =      T    sub-space diagonalisation (order eigenvalues)
   LSUBROT=      F    optimize rotation matrix (better conditioning)
   TURBO    =      0    0=normal 1=particle mesh
   IRESTART =      0    0=no restart 2=restart with 2 vectors
   NREBOOT  =      0    no. of reboots
   NMIN     =      0    reboot dimension
   EREF     =   0.00    reference energy to select bands
   IMIX   =      4    mixing-type and parameters
     AMIX     =   0.40;   BMIX     =  1.00
     AMIX_MAG =   1.60;   BMIX_MAG =  1.00
     AMIN     =   0.10
     WC   =   100.;   INIMIX=   1;  MIXPRE=   1;  MAXMIX= -45

 Intra band minimization:
   WEIMIN = 0.0000     energy-eigenvalue tresh-hold
   EBREAK =  0.28E-08  absolut break condition
   DEPER  =   0.30     relativ break condition  

   TIME   =   0.40     timestep for ELM

  volume/ion in A,a.u.               =      78.67       530.88
  Fermi-wavevector in a.u.,A,eV,Ry     =   0.694264  1.311969  6.558046  0.482003
  Thomas-Fermi vector in A             =   1.776709
 
 Write flags
   LWAVE        =      T    write WAVECAR
   LDOWNSAMPLE  =      F    k-point downsampling of WAVECAR
   LCHARG       =      T    write CHGCAR
   LVTOT        =      F    write LOCPOT, total local potential
   LVHAR        =      F    write LOCPOT, Hartree potential only
   LELF         =      F    write electronic localiz. function (ELF)
   LORBIT       =      0    0 simple, 1 ext, 2 COOP (PROOUT), +10 PAW based schemes


 Dipole corrections
   LMONO  =      F    monopole corrections only (constant potential shift)
   LDIPOL =      F    correct potential (dipole corrections)
   IDIPOL =      0    1-x, 2-y, 3-z, 4-all directions 
   EPSILON=  1.0000000 bulk dielectric constant

 Exchange correlation treatment:
   GGA     =    MK    GGA type
   LEXCH   =    43    internal setting for exchange type
   VOSKOWN=      0    Vosko Wilk Nusair interpolation
   LHFCALC =     F    Hartree Fock is set to
   LHFONE  =     F    Hartree Fock one center treatment
   AEXX    =    0.0000 exact exchange contribution

 vdW DFT:
   LUSE_VDW   =     T    switch on vdW DFT
   Zab_VDW    =******    correlation parameter
   PARAM1     =0.1234
   PARAM2     =0.7114
   PARAM3     =0.0000
   -- rVV10 --
   BPARAM     = 6.3000
   CPARAM     = 0.0093

 Linear response parameters
   LEPSILON=     F    determine dielectric tensor
   LRPA    =     F    only Hartree local field effects (RPA)
   LNABLA  =     F    use nabla operator in PAW spheres
   LVEL    =     F    velocity operator in full k-point grid
   LINTERFAST=   F  fast interpolation
   KINTER  =     0    interpolate to denser k-point grid
   CSHIFT  =0.1000    complex shift for real part using Kramers Kronig
   OMEGAMAX=  -1.0    maximum frequency
   DEG_THRESHOLD= 0.2000000E-02 threshold for treating states as degnerate
   RTIME   =   -0.100 relaxation time in fs
  (WPLASMAI=    0.000 imaginary part of plasma frequency in eV, 0.658/RTIME)
   DFIELD  = 0.0000000 0.0000000 0.0000000 field for delta impulse in time
 
 Orbital magnetization related:
   ORBITALMAG=     F  switch on orbital magnetization
   LCHIMAG   =     F  perturbation theory with respect to B field
   DQ        =  0.001000  dq finite difference perturbation B field
   LLRAUG    =     F  two centre corrections for induced B field



--------------------------------------------------------------------------------------------------------


 Static calculation
 charge density and potential will be updated during run
 non-spin polarized calculation
 Variant of blocked Davidson
 Davidson routine will perform the subspace rotation
 perform sub-space diagonalisation
    after iterative eigenvector-optimisation
 modified Broyden-mixing scheme, WC =      100.0
 initial mixing is a Kerker type mixing with AMIX =  0.4000 and BMIX =      1.0000
 Hartree-type preconditioning will be used
 using additional bands           16
 real space projection scheme for non local part
 use partial core corrections
 calculate Harris-corrections to forces 
   (improved forces if not selfconsistent)
 use gradient corrections 
 use of overlap-Matrix (Vanderbilt PP)
 Fermi weights with tetrahedron method with Bloechl corrections


--------------------------------------------------------------------------------------------------------


  energy-cutoff  :      500.00
  volume of cell :     1888.05
      direct lattice vectors                 reciprocal lattice vectors
    24.009468079  0.000000000  0.000000000     0.041650236  0.000000000  0.000000000
     0.000000000  6.777849674  0.000000000     0.000000000  0.147539419  0.000000000
     0.000000000  0.000000000 11.602143288     0.000000000  0.000000000  0.086190971

  length of vectors
    24.009468079  6.777849674 11.602143288     0.041650236  0.147539419  0.086190971


 
 k-points in units of 2pi/SCALE and weight: k-density: 8.0                          
   0.00000000  0.00000000  0.00000000       0.025
   0.00000000  0.01844243  0.00000000       0.050
   0.00000000  0.03688485  0.00000000       0.050
   0.00000000  0.05532728  0.00000000       0.050
   0.00000000  0.07376971  0.00000000       0.025
   0.00000000  0.00000000  0.01723819       0.050
   0.00000000  0.01844243  0.01723819       0.100
   0.00000000  0.03688485  0.01723819       0.100
   0.00000000  0.05532728  0.01723819       0.100
   0.00000000  0.07376971  0.01723819       0.050
   0.00000000  0.00000000  0.03447639       0.050
   0.00000000  0.01844243  0.03447639       0.100
   0.00000000  0.03688485  0.03447639       0.100
   0.00000000  0.05532728  0.03447639       0.100
   0.00000000  0.07376971  0.03447639       0.050
 
 k-points in reciprocal lattice and weights: k-density: 8.0                          
   0.00000000  0.00000000  0.00000000       0.025
   0.00000000  0.12500000  0.00000000       0.050
   0.00000000  0.25000000  0.00000000       0.050
   0.00000000  0.37500000  0.00000000       0.050
   0.00000000  0.50000000  0.00000000       0.025
   0.00000000  0.00000000  0.20000000       0.050
   0.00000000  0.12500000  0.20000000       0.100
   0.00000000  0.25000000  0.20000000       0.100
   0.00000000  0.37500000  0.20000000       0.100
   0.00000000  0.50000000  0.20000000       0.050
   0.00000000  0.00000000  0.40000000       0.050
   0.00000000  0.12500000  0.40000000       0.100
   0.00000000  0.25000000  0.40000000       0.100
   0.00000000  0.37500000  0.40000000       0.100
   0.00000000  0.50000000  0.40000000       0.050
 
 position of ions in fractional coordinates (direct lattice) 
   0.00569361  0.25000000  0.70521953
   0.37788290  0.75000002  0.29478047
   0.18192962  0.75000002  0.18651635
   0.20164689  0.25000000  0.81348363
   0.05978014  0.75000002  0.91699347
   0.32379637  0.25000000  0.08300651
   0.12784309  0.25000000  0.39836731
   0.25573342  0.75000002  0.60163273
   0.07289913  0.07203955  0.14484669
   0.31067738  0.92796044  0.85515328
   0.11472410  0.92912209  0.65921621
   0.26885241  0.07087790  0.34078379
   0.31067738  0.57203956  0.85515328
   0.07289913  0.42796044  0.14484669
   0.26885241  0.42912209  0.34078379
   0.11472410  0.57087791  0.65921621
   0.03110981  0.75000002  0.59989236
   0.35246670  0.25000000  0.40010764
   0.15651343  0.25000000  0.08412118
   0.22706310  0.75000002  0.91587880
   0.07418398  0.25000000  0.96202913
   0.30939253  0.75000002  0.03797089
   0.11343925  0.75000002  0.47643466
   0.27013726  0.25000000  0.52356526
 
 position of ions in cartesian coordinates  (Angst):
   0.13670066  1.69446242  8.18205801
   9.07276745  5.08338737  3.42008528
   4.36803341  5.08338737  2.16398941
   4.84143467  1.69446242  9.43815364
   1.43528938  5.08338737 10.63908966
   7.77417870  1.69446242  0.96305339
   3.06944466  1.69446242  4.62191460
   6.14002342  5.08338737  6.98022917
   1.75026941  0.48827327  1.68053211
   7.45919867  6.28957634  9.92161094
   2.75446463  6.29744987  7.64832089
   6.45500345  0.48039974  3.95382240
   7.45919867  3.87719817  9.92161094
   1.75026941  2.90065150  1.68053211
   6.45500345  2.90852503  3.95382240
   2.75446463  3.86932464  7.64832089
   0.74692994  5.08338737  6.96003713
   8.46253796  1.69446242  4.64210615
   3.75780416  1.69446242  0.97598597
   5.45166416  5.08338737 10.62615708
   1.78111780  1.69446242 11.16159979
   7.42835016  5.08338737  0.44054368
   2.72361612  5.08338737  5.52766316
   6.48585196  1.69446242  6.07447918
 


--------------------------------------------------------------------------------------------------------


 k-point  1 :   0.0000 0.0000 0.0000  plane waves:   47989
 k-point  2 :   0.0000 0.1250 0.0000  plane waves:   47929
 k-point  3 :   0.0000 0.2500 0.0000  plane waves:   47901
 k-point  4 :   0.0000 0.3750 0.0000  plane waves:   47910
 k-point  5 :   0.0000 0.5000 0.0000  plane waves:   47868
 k-point  6 :   0.0000 0.0000 0.2000  plane waves:   48006
 k-point  7 :   0.0000 0.1250 0.2000  plane waves:   47967
 k-point  8 :   0.0000 0.2500 0.2000  plane waves:   47907
 k-point  9 :   0.0000 0.3750 0.2000  plane waves:   47884
 k-point 10 :   0.0000 0.5000 0.2000  plane waves:   47884
 k-point 11 :   0.0000 0.0000 0.4000  plane waves:   47922
 k-point 12 :   0.0000 0.1250 0.4000  plane waves:   47954
 k-point 13 :   0.0000 0.2500 0.4000  plane waves:   47967
 k-point 14 :   0.0000 0.3750 0.4000  plane waves:   47928
 k-point 15 :   0.0000 0.5000 0.4000  plane waves:   47890

 maximum and minimum number of plane-waves per node :     12077    11868

 maximum number of plane-waves:     48006
 maximum index in each direction: 
   IXMAX=   43   IYMAX=   12   IZMAX=   21
   IXMIN=  -43   IYMIN=  -12   IZMIN=  -21


 real space projection operators:
  total allocation   :       4529.33 KBytes
  max/ min on nodes  :       1133.95       1128.67


 parallel 3D FFT for wavefunctions:
    minimum data exchange during FFTs selected (reduces bandwidth)
 parallel 3D FFT for charge:
    minimum data exchange during FFTs selected (reduces bandwidth)


 total amount of memory used by VASP MPI-rank0    79352. kBytes
=======================================================================

   base      :      30000. kBytes
   nonlr-proj:       2646. kBytes
   fftplans  :       5898. kBytes
   grid      :       8824. kBytes
   one-center:         93. kBytes
   wavefun   :      31891. kBytes
 
     INWAV:  cpu time    0.0000: real time    0.0000
 Broyden mixing: mesh for mixing (old mesh)
   NGX = 87   NGY = 25   NGZ = 43
  (NGX  =280   NGY  = 80   NGZ  =128)
  gives a total of  93525 points

 initial charge density was supplied:
 charge density of overlapping atoms calculated
 number of electron     144.0000000 magnetization 
 keeping initial charge density in first step


--------------------------------------------------------------------------------------------------------


 Maximum index for non-local projection operator          755
 Maximum index for augmentation-charges          601 (set IRDMAX)


--------------------------------------------------------------------------------------------------------


 First call to EWALD:  gamma=   0.143
 Maximum number of real-space cells 2x 5x 3
 Maximum number of reciprocal cells 5x 2x 3

    FEWALD:  cpu time    0.0017: real time    0.0017


--------------------------------------- Iteration      1(   1)  ---------------------------------------


    POTLOK:  cpu time14637.0371: real time14671.6466
    SETDIJ:  cpu time    0.0038: real time    0.0233
     EDDAV:  cpu time    2.9079: real time    3.1113
 BZINTS: Fermi energy:  6.838118;144.000000 electrons
         Band energy:-475.909318;  BLOECHL correction: -0.028541
       DOS:  cpu time    0.0119: real time    0.0241
    --------------------------------------------
      LOOP:  cpu time14639.9607: real time14674.8053

 eigenvalue-minimisations  :  2768
 total energy-change (2. order) : 0.1196656E+04  (-0.4770181E+04)
 number of electron     144.0000000 magnetization 
 augmentation part      144.0000000 magnetization 

 Free energy of the ion-electron system (eV)
  ---------------------------------------------------
  alpha Z        PSCENC =       170.45750602
  Ewald energy   TEWEN  =     11978.72073548
  -Hartree energ DENC   =    -18093.54370158
  -exchange      EXHF   =         0.00000000
  -V(xc)+E(xc)   XCENC  =        37.55696073
  PAW double counting   =      3696.57165193    -3386.34934349
  entropy T*S    EENTRO =         0.00000000
  eigenvalues    EBANDS =      -475.90931802
  atomic energy  EATOM  =      7269.15145414
  Solvation  Ediel_sol  =         0.00000000
  ---------------------------------------------------
  free energy    TOTEN  =      1196.65594522 eV

  energy without entropy =     1196.65594522  energy(sigma->0) =     1196.65594522


--------------------------------------------------------------------------------------------------------




--------------------------------------- Iteration      1(   2)  ---------------------------------------


     EDDAV:  cpu time    3.8836: real time    3.9222
 BZINTS: Fermi energy: -2.045968;144.000000 electrons
         Band energy:***********;  BLOECHL correction:  0.000000
       DOS:  cpu time    0.0026: real time    0.0026
    --------------------------------------------
      LOOP:  cpu time    3.8863: real time    3.9249

 eigenvalue-minimisations  :  3832
 total energy-change (2. order) :-0.1120137E+04  (-0.1090868E+04)
 number of electron     144.0000000 magnetization 
 augmentation part      144.0000000 magnetization 

 Free energy of the ion-electron system (eV)
  ---------------------------------------------------
  alpha Z        PSCENC =       170.45750602
  Ewald energy   TEWEN  =     11978.72073548
  -Hartree energ DENC   =    -18093.54370158
  -exchange      EXHF   =         0.00000000
  -V(xc)+E(xc)   XCENC  =        37.55696073
  PAW double counting   =      3696.57165193    -3386.34934349
  entropy T*S    EENTRO =         0.00000000
  eigenvalues    EBANDS =     -1596.04675218
  atomic energy  EATOM  =      7269.15145414
  Solvation  Ediel_sol  =         0.00000000
  ---------------------------------------------------
  free energy    TOTEN  =        76.51851105 eV

  energy without entropy =       76.51851105  energy(sigma->0) =       76.51851105


--------------------------------------------------------------------------------------------------------




--------------------------------------- Iteration      1(   3)  ---------------------------------------


     EDDAV:  cpu time    3.2540: real time    3.3197
 BZINTS: Fermi energy: -3.339961;144.000000 electrons
         Band energy:***********;  BLOECHL correction:  0.000000
       DOS:  cpu time    0.0022: real time    0.0022
    --------------------------------------------
      LOOP:  cpu time    3.2562: real time    3.3219

 eigenvalue-minimisations  :  3232
 total energy-change (2. order) :-0.1700338E+03  (-0.1693226E+03)
 number of electron     144.0000000 magnetization 
 augmentation part      144.0000000 magnetization 

 Free energy of the ion-electron system (eV)
  ---------------------------------------------------
  alpha Z        PSCENC =       170.45750602
  Ewald energy   TEWEN  =     11978.72073548
  -Hartree energ DENC   =    -18093.54370158
  -exchange      EXHF   =         0.00000000
  -V(xc)+E(xc)   XCENC  =        37.55696073
  PAW double counting   =      3696.57165193    -3386.34934349
  entropy T*S    EENTRO =         0.00000000
  eigenvalues    EBANDS =     -1766.08059622
  atomic energy  EATOM  =      7269.15145414
  Solvation  Ediel_sol  =         0.00000000
  ---------------------------------------------------
  free energy    TOTEN  =       -93.51533298 eV

  energy without entropy =      -93.51533298  energy(sigma->0) =      -93.51533298


--------------------------------------------------------------------------------------------------------




--------------------------------------- Iteration      1(   4)  ---------------------------------------


     EDDAV:  cpu time    3.6179: real time    3.6630
 BZINTS: Fermi energy: -3.405597;144.000000 electrons
         Band energy:***********;  BLOECHL correction:  0.000000
       DOS:  cpu time    0.0023: real time    0.0023
    --------------------------------------------
      LOOP:  cpu time    3.6201: real time    3.6653

 eigenvalue-minimisations  :  3752
 total energy-change (2. order) :-0.6028677E+01  (-0.6012113E+01)
 number of electron     144.0000000 magnetization 
 augmentation part      144.0000000 magnetization 

 Free energy of the ion-electron system (eV)
  ---------------------------------------------------
  alpha Z        PSCENC =       170.45750602
  Ewald energy   TEWEN  =     11978.72073548
  -Hartree energ DENC   =    -18093.54370158
  -exchange      EXHF   =         0.00000000
  -V(xc)+E(xc)   XCENC  =        37.55696073
  PAW double counting   =      3696.57165193    -3386.34934349
  entropy T*S    EENTRO =         0.00000000
  eigenvalues    EBANDS =     -1772.10927337
  atomic energy  EATOM  =      7269.15145414
  Solvation  Ediel_sol  =         0.00000000
  ---------------------------------------------------
  free energy    TOTEN  =       -99.54401014 eV

  energy without entropy =      -99.54401014  energy(sigma->0) =      -99.54401014


--------------------------------------------------------------------------------------------------------




--------------------------------------- Iteration      1(   5)  ---------------------------------------


     EDDAV:  cpu time    4.0267: real time    4.0619
 BZINTS: Fermi energy: -3.368534;144.000000 electrons
         Band energy:***********;  BLOECHL correction:  0.000000
       DOS:  cpu time    0.0024: real time    0.0024
    CHARGE:  cpu time    0.2442: real time    0.2514
    MIXING:  cpu time    0.0058: real time    0.0267
    --------------------------------------------
      LOOP:  cpu time    4.2791: real time    4.3425

 eigenvalue-minimisations  :  4184
 total energy-change (2. order) :-0.2724330E+00  (-0.2723453E+00)
 number of electron     143.9999999 magnetization 
 augmentation part      -17.6623479 magnetization 

 Broyden mixing:
  rms(total) = 0.90423E+00    rms(broyden)= 0.90422E+00
  rms(prec ) = 0.11829E+01
  weight for this iteration     100.00

 Free energy of the ion-electron system (eV)
  ---------------------------------------------------
  alpha Z        PSCENC =       170.45750602
  Ewald energy   TEWEN  =     11978.72073548
  -Hartree energ DENC   =    -18093.54370158
  -exchange      EXHF   =         0.00000000
  -V(xc)+E(xc)   XCENC  =        37.55696073
  PAW double counting   =      3696.57165193    -3386.34934349
  entropy T*S    EENTRO =         0.00000000
  eigenvalues    EBANDS =     -1772.38170639
  atomic energy  EATOM  =      7269.15145414
  Solvation  Ediel_sol  =         0.00000000
  ---------------------------------------------------
  free energy    TOTEN  =       -99.81644315 eV

  energy without entropy =      -99.81644315  energy(sigma->0) =      -99.81644315


--------------------------------------------------------------------------------------------------------




--------------------------------------- Iteration      1(   6)  ---------------------------------------


    POTLOK:  cpu time    2.7424: real time    2.7601
    SETDIJ:  cpu time    0.0022: real time    0.0022
     EDDAV:  cpu time    2.9718: real time    2.9788
 BZINTS: Fermi energy: -2.255161;144.000000 electrons
         Band energy:***********;  BLOECHL correction:  0.000000
       DOS:  cpu time    0.0030: real time    0.0030
    CHARGE:  cpu time    0.2026: real time    0.2030
    MIXING:  cpu time    0.0079: real time    0.0080
    --------------------------------------------
      LOOP:  cpu time    5.9298: real time    5.9551

 eigenvalue-minimisations  :  3008
 total energy-change (2. order) : 0.8051945E+01  (-0.2016631E+01)
 number of electron     143.9999998 magnetization 
 augmentation part      -17.5449710 magnetization 

 Broyden mixing:
  rms(total) = 0.46248E+00    rms(broyden)= 0.46248E+00
  rms(prec ) = 0.58145E+00
  weight for this iteration     100.00

 eigenvalues of (default mixing * dielectric matrix)
  average eigenvalue GAMMA=   1.5398
  1.5398

 Free energy of the ion-electron system (eV)
  ---------------------------------------------------
  alpha Z        PSCENC =       170.45750602
  Ewald energy   TEWEN  =     11978.72073548
  -Hartree energ DENC   =    -18189.34088296
  -exchange      EXHF   =         0.00000000
  -V(xc)+E(xc)   XCENC  =        40.18895850
  PAW double counting   =      3731.62312229    -3428.45767847
  entropy T*S    EENTRO =         0.00000000
  eigenvalues    EBANDS =     -1664.10771362
  atomic energy  EATOM  =      7269.15145414
  Solvation  Ediel_sol  =         0.00000000
  ---------------------------------------------------
  free energy    TOTEN  =       -91.76449861 eV

  energy without entropy =      -91.76449861  energy(sigma->0) =      -91.76449861


--------------------------------------------------------------------------------------------------------




--------------------------------------- Iteration      1(   7)  ---------------------------------------


    POTLOK:  cpu time    2.7505: real time    2.7682
    SETDIJ:  cpu time    0.0022: real time    0.0022
     EDDAV:  cpu time    3.3775: real time    3.3855
 BZINTS: Fermi energy: -1.432940;144.000000 electrons
         Band energy:***********;  BLOECHL correction:  0.000000
       DOS:  cpu time    0.0023: real time    0.0023
    CHARGE:  cpu time    0.1874: real time    0.1879
    MIXING:  cpu time    0.0061: real time    0.0063
    --------------------------------------------
      LOOP:  cpu time    6.3260: real time    6.3524

 eigenvalue-minimisations  :  3480
 total energy-change (2. order) : 0.1299353E+01  (-0.9624322E+00)
 number of electron     143.9999998 magnetization 
 augmentation part      -17.6107458 magnetization 

 Broyden mixing:
  rms(total) = 0.24501E+00    rms(broyden)= 0.24501E+00
  rms(prec ) = 0.29400E+00
  weight for this iteration     100.00

 eigenvalues of (default mixing * dielectric matrix)
  average eigenvalue GAMMA=   1.8480
  1.8480  1.8480

 Free energy of the ion-electron system (eV)
  ---------------------------------------------------
  alpha Z        PSCENC =       170.45750602
  Ewald energy   TEWEN  =     11978.72073548
  -Hartree energ DENC   =    -18267.31521742
  -exchange      EXHF   =         0.00000000
  -V(xc)+E(xc)   XCENC  =        42.38817799
  PAW double counting   =      3776.92958862    -3479.51093313
  entropy T*S    EENTRO =         0.00000000
  eigenvalues    EBANDS =     -1581.28645744
  atomic energy  EATOM  =      7269.15145414
  Solvation  Ediel_sol  =         0.00000000
  ---------------------------------------------------
  free energy    TOTEN  =       -90.46514573 eV

  energy without entropy =      -90.46514573  energy(sigma->0) =      -90.46514573


--------------------------------------------------------------------------------------------------------




--------------------------------------- Iteration      1(   8)  ---------------------------------------


    POTLOK:  cpu time    2.7627: real time    2.7809
    SETDIJ:  cpu time    0.0026: real time    0.0026
     EDDAV:  cpu time    3.0616: real time    3.0688
 BZINTS: Fermi energy: -1.289578;144.000000 electrons
         Band energy:***********;  BLOECHL correction:  0.000000
       DOS:  cpu time    0.0029: real time    0.0029
    CHARGE:  cpu time    0.1975: real time    0.1980
    MIXING:  cpu time    0.0051: real time    0.0055
    --------------------------------------------
      LOOP:  cpu time    6.0324: real time    6.0588

 eigenvalue-minimisations  :  3120
 total energy-change (2. order) : 0.2516123E+00  (-0.3516946E+00)
 number of electron     143.9999998 magnetization 
 augmentation part      -17.7256824 magnetization 

 Broyden mixing:
  rms(total) = 0.11596E+00    rms(broyden)= 0.11595E+00
  rms(prec ) = 0.18804E+00
  weight for this iteration     100.00

 eigenvalues of (default mixing * dielectric matrix)
  average eigenvalue GAMMA=   1.6799
  2.6360  1.2019  1.2019

 Free energy of the ion-electron system (eV)
  ---------------------------------------------------
  alpha Z        PSCENC =       170.45750602
  Ewald energy   TEWEN  =     11978.72073548
  -Hartree energ DENC   =    -18300.54452973
  -exchange      EXHF   =         0.00000000
  -V(xc)+E(xc)   XCENC  =        43.32417884
  PAW double counting   =      3824.99061716    -3529.40989152
  entropy T*S    EENTRO =         0.00000000
  eigenvalues    EBANDS =     -1546.90360377
  atomic energy  EATOM  =      7269.15145414
  Solvation  Ediel_sol  =         0.00000000
  ---------------------------------------------------
  free energy    TOTEN  =       -90.21353338 eV

  energy without entropy =      -90.21353338  energy(sigma->0) =      -90.21353338


--------------------------------------------------------------------------------------------------------




--------------------------------------- Iteration      1(   9)  ---------------------------------------


    POTLOK:  cpu time    2.7244: real time    2.7423
    SETDIJ:  cpu time    0.0023: real time    0.0023
     EDDAV:  cpu time    3.1924: real time    3.2000
 BZINTS: Fermi energy: -0.936247;144.000000 electrons
         Band energy:***********;  BLOECHL correction:  0.000000
       DOS:  cpu time    0.0025: real time    0.0025
    CHARGE:  cpu time    0.2003: real time    0.2008
    MIXING:  cpu time    0.0066: real time    0.0067
    --------------------------------------------
      LOOP:  cpu time    6.1286: real time    6.1546

 eigenvalue-minimisations  :  3104
 total energy-change (2. order) : 0.2652465E+00  (-0.1153549E+00)
 number of electron     143.9999998 magnetization 
 augmentation part      -17.6937034 magnetization 

 Broyden mixing:
  rms(total) = 0.55003E-01    rms(broyden)= 0.55003E-01
  rms(prec ) = 0.76813E-01
  weight for this iteration     100.00

 eigenvalues of (default mixing * dielectric matrix)
  average eigenvalue GAMMA=   1.4055
  2.5736  1.2116  1.2116  0.6254

 Free energy of the ion-electron system (eV)
  ---------------------------------------------------
  alpha Z        PSCENC =       170.45750602
  Ewald energy   TEWEN  =     11978.72073548
  -Hartree energ DENC   =    -18341.02157200
  -exchange      EXHF   =         0.00000000
  -V(xc)+E(xc)   XCENC  =        44.21877524
  PAW double counting   =      3836.10514005    -3541.87519107
  entropy T*S    EENTRO =         0.00000000
  eigenvalues    EBANDS =     -1505.70513475
  atomic energy  EATOM  =      7269.15145414
  Solvation  Ediel_sol  =         0.00000000
  ---------------------------------------------------
  free energy    TOTEN  =       -89.94828689 eV

  energy without entropy =      -89.94828689  energy(sigma->0) =      -89.94828689


--------------------------------------------------------------------------------------------------------




--------------------------------------- Iteration      1(  10)  ---------------------------------------


    POTLOK:  cpu time    2.7206: real time    2.7375
    SETDIJ:  cpu time    0.0024: real time    0.0024
     EDDAV:  cpu time    3.4750: real time    3.4833
 BZINTS: Fermi energy: -0.811580;144.000000 electrons
         Band energy:***********;  BLOECHL correction:  0.000000
       DOS:  cpu time    0.0023: real time    0.0023
    CHARGE:  cpu time    0.2080: real time    0.2085
    MIXING:  cpu time    0.0073: real time    0.0074
    --------------------------------------------
      LOOP:  cpu time    6.4156: real time    6.4413

 eigenvalue-minimisations  :  3576
 total energy-change (2. order) : 0.1198883E-01  (-0.2293249E-01)
 number of electron     143.9999998 magnetization 
 augmentation part      -17.7084006 magnetization 

 Broyden mixing:
  rms(total) = 0.40247E-01    rms(broyden)= 0.40247E-01
  rms(prec ) = 0.60062E-01
  weight for this iteration     100.00

 eigenvalues of (default mixing * dielectric matrix)
  average eigenvalue GAMMA=   1.5609
  2.4894  2.2743  1.1600  0.9404  0.9404

 Free energy of the ion-electron system (eV)
  ---------------------------------------------------
  alpha Z        PSCENC =       170.45750602
  Ewald energy   TEWEN  =     11978.72073548
  -Hartree energ DENC   =    -18348.68082033
  -exchange      EXHF   =         0.00000000
  -V(xc)+E(xc)   XCENC  =        44.22548504
  PAW double counting   =      3831.24111032    -3536.68825923
  entropy T*S    EENTRO =         0.00000000
  eigenvalues    EBANDS =     -1498.36350951
  atomic energy  EATOM  =      7269.15145414
  Solvation  Ediel_sol  =         0.00000000
  ---------------------------------------------------
  free energy    TOTEN  =       -89.93629805 eV

  energy without entropy =      -89.93629805  energy(sigma->0) =      -89.93629805


--------------------------------------------------------------------------------------------------------




--------------------------------------- Iteration      1(  11)  ---------------------------------------


    POTLOK:  cpu time    2.7548: real time    2.7718
    SETDIJ:  cpu time    0.0023: real time    0.0023
     EDDAV:  cpu time    3.1730: real time    3.1805
 BZINTS: Fermi energy: -0.794098;144.000000 electrons
         Band energy:***********;  BLOECHL correction:  0.000000
       DOS:  cpu time    0.0020: real time    0.0020
    CHARGE:  cpu time    0.1960: real time    0.1964
    MIXING:  cpu time    0.0067: real time    0.0067
    --------------------------------------------
      LOOP:  cpu time    6.1347: real time    6.1597

 eigenvalue-minimisations  :  3200
 total energy-change (2. order) : 0.6779047E-01  (-0.6452468E-02)
 number of electron     143.9999998 magnetization 
 augmentation part      -17.7135305 magnetization 

 Broyden mixing:
  rms(total) = 0.15742E-01    rms(broyden)= 0.15742E-01
  rms(prec ) = 0.30921E-01
  weight for this iteration     100.00

 eigenvalues of (default mixing * dielectric matrix)
  average eigenvalue GAMMA=   1.5942
  2.7505  2.7505  1.2516  0.9160  0.9483  0.9483

 Free energy of the ion-electron system (eV)
  ---------------------------------------------------
  alpha Z        PSCENC =       170.45750602
  Ewald energy   TEWEN  =     11978.72073548
  -Hartree energ DENC   =    -18364.48054222
  -exchange      EXHF   =         0.00000000
  -V(xc)+E(xc)   XCENC  =        44.42008854
  PAW double counting   =      3831.97288278    -3537.14492080
  entropy T*S    EENTRO =         0.00000000
  eigenvalues    EBANDS =     -1482.96571153
  atomic energy  EATOM  =      7269.15145414
  Solvation  Ediel_sol  =         0.00000000
  ---------------------------------------------------
  free energy    TOTEN  =       -89.86850758 eV

  energy without entropy =      -89.86850758  energy(sigma->0) =      -89.86850758


--------------------------------------------------------------------------------------------------------




--------------------------------------- Iteration      1(  12)  ---------------------------------------


    POTLOK:  cpu time    2.7366: real time    2.7545
    SETDIJ:  cpu time    0.0029: real time    0.0029
     EDDAV:  cpu time    3.2169: real time    3.2245
 BZINTS: Fermi energy: -0.724933;144.000000 electrons
         Band energy:***********;  BLOECHL correction:  0.000000
       DOS:  cpu time    0.0022: real time    0.0022
    CHARGE:  cpu time    0.1941: real time    0.1946
    MIXING:  cpu time    0.0057: real time    0.0057
    --------------------------------------------
      LOOP:  cpu time    6.1585: real time    6.1845

 eigenvalue-minimisations  :  3376
 total energy-change (2. order) :-0.3256890E-03  (-0.1425071E-02)
 number of electron     143.9999998 magnetization 
 augmentation part      -17.7085582 magnetization 

 Broyden mixing:
  rms(total) = 0.11410E-01    rms(broyden)= 0.11410E-01
  rms(prec ) = 0.19699E-01
  weight for this iteration     100.00

 eigenvalues of (default mixing * dielectric matrix)
  average eigenvalue GAMMA=   1.7159
  3.3928  2.6303  1.9845  1.1188  1.1188  0.8832  0.8832

 Free energy of the ion-electron system (eV)
  ---------------------------------------------------
  alpha Z        PSCENC =       170.45750602
  Ewald energy   TEWEN  =     11978.72073548
  -Hartree energ DENC   =    -18375.84094458
  -exchange      EXHF   =         0.00000000
  -V(xc)+E(xc)   XCENC  =        44.46702201
  PAW double counting   =      3829.47451681    -3534.48024259
  entropy T*S    EENTRO =         0.00000000
  eigenvalues    EBANDS =     -1471.81888058
  atomic energy  EATOM  =      7269.15145414
  Solvation  Ediel_sol  =         0.00000000
  ---------------------------------------------------
  free energy    TOTEN  =       -89.86883327 eV

  energy without entropy =      -89.86883327  energy(sigma->0) =      -89.86883327


--------------------------------------------------------------------------------------------------------




--------------------------------------- Iteration      1(  13)  ---------------------------------------


    POTLOK:  cpu time    2.7085: real time    2.7257
    SETDIJ:  cpu time    0.0022: real time    0.0022
     EDDAV:  cpu time    3.3959: real time    3.4039
 BZINTS: Fermi energy: -0.591794;144.000000 electrons
         Band energy:***********;  BLOECHL correction:  0.000000
       DOS:  cpu time    0.0023: real time    0.0023
    CHARGE:  cpu time    0.1962: real time    0.1966
    MIXING:  cpu time    0.0068: real time    0.0068
    --------------------------------------------
      LOOP:  cpu time    6.3117: real time    6.3375

 eigenvalue-minimisations  :  3504
 total energy-change (2. order) :-0.4150209E-03  (-0.6873270E-03)
 number of electron     143.9999998 magnetization 
 augmentation part      -17.7098453 magnetization 

 Broyden mixing:
  rms(total) = 0.56777E-02    rms(broyden)= 0.56777E-02
  rms(prec ) = 0.98822E-02
  weight for this iteration     100.00

 eigenvalues of (default mixing * dielectric matrix)
  average eigenvalue GAMMA=   1.7774
  3.9578  2.8335  2.3620  1.2176  1.2176  0.8891  0.8709  0.8709

 Free energy of the ion-electron system (eV)
  ---------------------------------------------------
  alpha Z        PSCENC =       170.45750602
  Ewald energy   TEWEN  =     11978.72073548
  -Hartree energ DENC   =    -18384.71010347
  -exchange      EXHF   =         0.00000000
  -V(xc)+E(xc)   XCENC  =        44.51019473
  PAW double counting   =      3828.02696001    -3533.12383527
  entropy T*S    EENTRO =         0.00000000
  eigenvalues    EBANDS =     -1462.90215993
  atomic energy  EATOM  =      7269.15145414
  Solvation  Ediel_sol  =         0.00000000
  ---------------------------------------------------
  free energy    TOTEN  =       -89.86924829 eV

  energy without entropy =      -89.86924829  energy(sigma->0) =      -89.86924829


--------------------------------------------------------------------------------------------------------




--------------------------------------- Iteration      1(  14)  ---------------------------------------


    POTLOK:  cpu time    2.7777: real time    2.7956
    SETDIJ:  cpu time    0.0020: real time    0.0020
     EDDAV:  cpu time    2.7482: real time    2.7547
 BZINTS: Fermi energy: -0.574062;144.000000 electrons
         Band energy:***********;  BLOECHL correction:  0.000000
       DOS:  cpu time    0.0032: real time    0.0032
    CHARGE:  cpu time    0.1430: real time    0.1433
    MIXING:  cpu time    0.0072: real time    0.0072
    --------------------------------------------
      LOOP:  cpu time    5.6813: real time    5.7061

 eigenvalue-minimisations  :  2944
 total energy-change (2. order) : 0.6422493E-02  (-0.2587509E-03)
 number of electron     143.9999998 magnetization 
 augmentation part      -17.7100751 magnetization 

 Broyden mixing:
  rms(total) = 0.46021E-02    rms(broyden)= 0.46021E-02
  rms(prec ) = 0.74536E-02
  weight for this iteration     100.00

 eigenvalues of (default mixing * dielectric matrix)
  average eigenvalue GAMMA=   1.8581
  4.5382  3.0689  2.0042  2.0042  0.8880  0.8880  1.1483  1.1483  1.0352

 Free energy of the ion-electron system (eV)
  ---------------------------------------------------
  alpha Z        PSCENC =       170.45750602
  Ewald energy   TEWEN  =     11978.72073548
  -Hartree energ DENC   =    -18388.27019126
  -exchange      EXHF   =         0.00000000
  -V(xc)+E(xc)   XCENC  =        44.52364934
  PAW double counting   =      3827.35522898    -3532.46203917
  entropy T*S    EENTRO =         0.00000000
  eigenvalues    EBANDS =     -1459.33916933
  atomic energy  EATOM  =      7269.15145414
  Solvation  Ediel_sol  =         0.00000000
  ---------------------------------------------------
  free energy    TOTEN  =       -89.86282580 eV

  energy without entropy =      -89.86282580  energy(sigma->0) =      -89.86282580


--------------------------------------------------------------------------------------------------------




--------------------------------------- Iteration      1(  15)  ---------------------------------------


    POTLOK:  cpu time    2.5131: real time    2.5298
    SETDIJ:  cpu time    0.0020: real time    0.0020
     EDDAV:  cpu time    2.6924: real time    2.6988
 BZINTS: Fermi energy: -0.564474;144.000000 electrons
         Band energy:***********;  BLOECHL correction:  0.000000
       DOS:  cpu time    0.0025: real time    0.0025
    CHARGE:  cpu time    0.1434: real time    0.1437
    MIXING:  cpu time    0.0092: real time    0.0093
    --------------------------------------------
      LOOP:  cpu time    5.3625: real time    5.3860

 eigenvalue-minimisations  :  2896
 total energy-change (2. order) : 0.3940620E-03  (-0.2484245E-03)
 number of electron     143.9999998 magnetization 
 augmentation part      -17.7112744 magnetization 

 Broyden mixing:
  rms(total) = 0.17389E-02    rms(broyden)= 0.17389E-02
  rms(prec ) = 0.34410E-02
  weight for this iteration     100.00

 eigenvalues of (default mixing * dielectric matrix)
  average eigenvalue GAMMA=   1.9327
  5.4200  3.2307  2.5731  1.7855  0.8883  0.8883  1.2711  1.2711  0.9997  0.9997

 Free energy of the ion-electron system (eV)
  ---------------------------------------------------
  alpha Z        PSCENC =       170.45750602
  Ewald energy   TEWEN  =     11978.72073548
  -Hartree energ DENC   =    -18390.32030027
  -exchange      EXHF   =         0.00000000
  -V(xc)+E(xc)   XCENC  =        44.52091086
  PAW double counting   =      3827.80277630    -3532.88935201
  entropy T*S    EENTRO =         0.00000000
  eigenvalues    EBANDS =     -1457.30616226
  atomic energy  EATOM  =      7269.15145414
  Solvation  Ediel_sol  =         0.00000000
  ---------------------------------------------------
  free energy    TOTEN  =       -89.86243174 eV

  energy without entropy =      -89.86243174  energy(sigma->0) =      -89.86243174


--------------------------------------------------------------------------------------------------------




--------------------------------------- Iteration      1(  16)  ---------------------------------------


    POTLOK:  cpu time    2.5340: real time    2.5475
    SETDIJ:  cpu time    0.0047: real time    0.0047
     EDDAV:  cpu time    2.9954: real time    3.0026
 BZINTS: Fermi energy: -0.556359;144.000000 electrons
         Band energy:***********;  BLOECHL correction:  0.000000
       DOS:  cpu time    0.0023: real time    0.0023
    CHARGE:  cpu time    0.1828: real time    0.1832
    MIXING:  cpu time    0.0060: real time    0.0060
    --------------------------------------------
      LOOP:  cpu time    5.7252: real time    5.7463

 eigenvalue-minimisations  :  3048
 total energy-change (2. order) : 0.1743878E-04  (-0.1577649E-03)
 number of electron     143.9999998 magnetization 
 augmentation part      -17.7111344 magnetization 

 Broyden mixing:
  rms(total) = 0.13102E-02    rms(broyden)= 0.13102E-02
  rms(prec ) = 0.24258E-02
  weight for this iteration     100.00

 eigenvalues of (default mixing * dielectric matrix)
  average eigenvalue GAMMA=   2.0087
  5.8378  3.5289  2.3623  2.3623  1.6484  0.8900  0.8900  1.2866  1.2866  1.0014
  1.0014

 Free energy of the ion-electron system (eV)
  ---------------------------------------------------
  alpha Z        PSCENC =       170.45750602
  Ewald energy   TEWEN  =     11978.72073548
  -Hartree energ DENC   =    -18391.79641462
  -exchange      EXHF   =         0.00000000
  -V(xc)+E(xc)   XCENC  =        44.52382393
  PAW double counting   =      3827.97217376    -3533.07138333
  entropy T*S    EENTRO =         0.00000000
  eigenvalues    EBANDS =     -1455.82030969
  atomic energy  EATOM  =      7269.15145414
  Solvation  Ediel_sol  =         0.00000000
  ---------------------------------------------------
  free energy    TOTEN  =       -89.86241430 eV

  energy without entropy =      -89.86241430  energy(sigma->0) =      -89.86241430


--------------------------------------------------------------------------------------------------------




--------------------------------------- Iteration      1(  17)  ---------------------------------------


    POTLOK:  cpu time    2.6280: real time    2.6444
    SETDIJ:  cpu time    0.0022: real time    0.0022
     EDDAV:  cpu time    2.5862: real time    2.5923
 BZINTS: Fermi energy: -0.547836;144.000000 electrons
         Band energy:***********;  BLOECHL correction:  0.000000
       DOS:  cpu time    0.0028: real time    0.0028
    CHARGE:  cpu time    0.1549: real time    0.1553
    MIXING:  cpu time    0.0085: real time    0.0086
    --------------------------------------------
      LOOP:  cpu time    5.3826: real time    5.4055

 eigenvalue-minimisations  :  2856
 total energy-change (2. order) : 0.2426879E-03  (-0.7563926E-04)
 number of electron     143.9999998 magnetization 
 augmentation part      -17.7111286 magnetization 

 Broyden mixing:
  rms(total) = 0.73067E-03    rms(broyden)= 0.73067E-03
  rms(prec ) = 0.14198E-02
  weight for this iteration     100.00

 eigenvalues of (default mixing * dielectric matrix)
  average eigenvalue GAMMA=   1.9986
  6.1715  3.6983  2.7270  2.2218  1.4850  1.4850  0.8896  0.8896  1.3514  1.0509
  1.0509  0.9623

 Free energy of the ion-electron system (eV)
  ---------------------------------------------------
  alpha Z        PSCENC =       170.45750602
  Ewald energy   TEWEN  =     11978.72073548
  -Hartree energ DENC   =    -18393.08481938
  -exchange      EXHF   =         0.00000000
  -V(xc)+E(xc)   XCENC  =        44.52864951
  PAW double counting   =      3827.96988387    -3533.06572132
  entropy T*S    EENTRO =         0.00000000
  eigenvalues    EBANDS =     -1454.53985994
  atomic energy  EATOM  =      7269.15145414
  Solvation  Ediel_sol  =         0.00000000
  ---------------------------------------------------
  free energy    TOTEN  =       -89.86217161 eV

  energy without entropy =      -89.86217161  energy(sigma->0) =      -89.86217161


--------------------------------------------------------------------------------------------------------




--------------------------------------- Iteration      1(  18)  ---------------------------------------


    POTLOK:  cpu time    2.7125: real time    2.7328
    SETDIJ:  cpu time    0.0018: real time    0.0018
     EDDAV:  cpu time    2.3716: real time    2.3773
 BZINTS: Fermi energy: -0.549277;144.000000 electrons
         Band energy:***********;  BLOECHL correction:  0.000000
       DOS:  cpu time    0.0024: real time    0.0024
    CHARGE:  cpu time    0.1486: real time    0.1489
    MIXING:  cpu time    0.0083: real time    0.0083
    --------------------------------------------
      LOOP:  cpu time    5.2452: real time    5.2715

 eigenvalue-minimisations  :  2552
 total energy-change (2. order) :-0.4744830E-03  (-0.1473219E-04)
 number of electron     143.9999998 magnetization 
 augmentation part      -17.7111640 magnetization 

 Broyden mixing:
  rms(total) = 0.51413E-03    rms(broyden)= 0.51413E-03
  rms(prec ) = 0.95181E-03
  weight for this iteration     100.00

 eigenvalues of (default mixing * dielectric matrix)
  average eigenvalue GAMMA=   2.0938
  6.5937  4.2904  2.7630  2.7630  1.9690  1.3935  1.3935  0.8892  0.8892  1.1611
  1.1611  0.9760  0.9760

 Free energy of the ion-electron system (eV)
  ---------------------------------------------------
  alpha Z        PSCENC =       170.45750602
  Ewald energy   TEWEN  =     11978.72073548
  -Hartree energ DENC   =    -18393.42683321
  -exchange      EXHF   =         0.00000000
  -V(xc)+E(xc)   XCENC  =        44.52983740
  PAW double counting   =      3827.99616126    -3533.09162885
  entropy T*S    EENTRO =         0.00000000
  eigenvalues    EBANDS =     -1454.19987834
  atomic energy  EATOM  =      7269.15145414
  Solvation  Ediel_sol  =         0.00000000
  ---------------------------------------------------
  free energy    TOTEN  =       -89.86264610 eV

  energy without entropy =      -89.86264610  energy(sigma->0) =      -89.86264610


--------------------------------------------------------------------------------------------------------




--------------------------------------- Iteration      1(  19)  ---------------------------------------


    POTLOK:  cpu time    2.4852: real time    2.5028
    SETDIJ:  cpu time    0.0511: real time    0.0512
     EDDAV:  cpu time    2.7212: real time    2.7276
 BZINTS: Fermi energy: -0.550745;144.000000 electrons
         Band energy:***********;  BLOECHL correction:  0.000000
       DOS:  cpu time    0.0023: real time    0.0023
    CHARGE:  cpu time    0.1951: real time    0.1956
    MIXING:  cpu time    0.0080: real time    0.0080
    --------------------------------------------
      LOOP:  cpu time    5.4628: real time    5.4875

 eigenvalue-minimisations  :  2632
 total energy-change (2. order) :-0.7025994E-03  (-0.1716643E-04)
 number of electron     143.9999998 magnetization 
 augmentation part      -17.7113170 magnetization 

 Broyden mixing:
  rms(total) = 0.40253E-03    rms(broyden)= 0.40253E-03
  rms(prec ) = 0.61334E-03
  weight for this iteration     100.00

 eigenvalues of (default mixing * dielectric matrix)
  average eigenvalue GAMMA=   2.1361
  6.8448  4.8655  2.8812  2.8812  1.8765  1.6291  1.6291  0.8894  0.8894  1.2844
  1.2844  1.0102  1.0102  0.9298

 Free energy of the ion-electron system (eV)
  ---------------------------------------------------
  alpha Z        PSCENC =       170.45750602
  Ewald energy   TEWEN  =     11978.72073548
  -Hartree energ DENC   =    -18393.80395459
  -exchange      EXHF   =         0.00000000
  -V(xc)+E(xc)   XCENC  =        44.52915713
  PAW double counting   =      3827.90591753    -3532.99827870
  entropy T*S    EENTRO =         0.00000000
  eigenvalues    EBANDS =     -1453.82588571
  atomic energy  EATOM  =      7269.15145414
  Solvation  Ediel_sol  =         0.00000000
  ---------------------------------------------------
  free energy    TOTEN  =       -89.86334870 eV

  energy without entropy =      -89.86334870  energy(sigma->0) =      -89.86334870


--------------------------------------------------------------------------------------------------------




--------------------------------------- Iteration      1(  20)  ---------------------------------------


    POTLOK:  cpu time    2.7245: real time    2.7417
    SETDIJ:  cpu time    0.0023: real time    0.0023
     EDDAV:  cpu time    2.7658: real time    2.7723
 BZINTS: Fermi energy: -0.555157;144.000000 electrons
         Band energy:***********;  BLOECHL correction:  0.000000
       DOS:  cpu time    0.0028: real time    0.0028
    CHARGE:  cpu time    0.1968: real time    0.1972
    MIXING:  cpu time    0.0085: real time    0.0085
    --------------------------------------------
      LOOP:  cpu time    5.7005: real time    5.7248

 eigenvalue-minimisations  :  2680
 total energy-change (2. order) :-0.2436862E-03  (-0.7152662E-05)
 number of electron     143.9999998 magnetization 
 augmentation part      -17.7113771 magnetization 

 Broyden mixing:
  rms(total) = 0.22198E-03    rms(broyden)= 0.22198E-03
  rms(prec ) = 0.34474E-03
  weight for this iteration     100.00

 eigenvalues of (default mixing * dielectric matrix)
  average eigenvalue GAMMA=   2.2954
  7.5293  6.5183  3.1352  3.1352  2.5083  1.5542  1.5542  0.8894  0.8894  1.2982
  1.2982  0.9626  0.9626  1.0979  1.0979

 Free energy of the ion-electron system (eV)
  ---------------------------------------------------
  alpha Z        PSCENC =       170.45750602
  Ewald energy   TEWEN  =     11978.72073548
  -Hartree energ DENC   =    -18393.83036976
  -exchange      EXHF   =         0.00000000
  -V(xc)+E(xc)   XCENC  =        44.52907637
  PAW double counting   =      3827.91938346    -3533.01142926
  entropy T*S    EENTRO =         0.00000000
  eigenvalues    EBANDS =     -1453.79994884
  atomic energy  EATOM  =      7269.15145414
  Solvation  Ediel_sol  =         0.00000000
  ---------------------------------------------------
  free energy    TOTEN  =       -89.86359238 eV

  energy without entropy =      -89.86359238  energy(sigma->0) =      -89.86359238


--------------------------------------------------------------------------------------------------------




--------------------------------------- Iteration      1(  21)  ---------------------------------------


    POTLOK:  cpu time    2.6941: real time    2.7121
    SETDIJ:  cpu time    0.0024: real time    0.0024
     EDDAV:  cpu time    2.6118: real time    2.6180
 BZINTS: Fermi energy: -0.560417;144.000000 electrons
         Band energy:***********;  BLOECHL correction:  0.000000
       DOS:  cpu time    0.0024: real time    0.0024
    CHARGE:  cpu time    0.2025: real time    0.2030
    MIXING:  cpu time    0.0082: real time    0.0083
    --------------------------------------------
      LOOP:  cpu time    5.5214: real time    5.5462

 eigenvalue-minimisations  :  2424
 total energy-change (2. order) :-0.1565049E-03  (-0.4580252E-05)
 number of electron     143.9999998 magnetization 
 augmentation part      -17.7113709 magnetization 

 Broyden mixing:
  rms(total) = 0.10614E-03    rms(broyden)= 0.10614E-03
  rms(prec ) = 0.13005E-03
  weight for this iteration     100.00

 eigenvalues of (default mixing * dielectric matrix)
  average eigenvalue GAMMA=   2.3318
  8.3302  6.6610  3.1937  3.1937  2.4594  1.8905  1.8905  0.8894  0.8894  1.3083
  1.3083  1.1771  1.0839  1.0839  0.9747  0.9747

 Free energy of the ion-electron system (eV)
  ---------------------------------------------------
  alpha Z        PSCENC =       170.45750602
  Ewald energy   TEWEN  =     11978.72073548
  -Hartree energ DENC   =    -18393.72453843
  -exchange      EXHF   =         0.00000000
  -V(xc)+E(xc)   XCENC  =        44.52782651
  PAW double counting   =      3827.91950245    -3533.01278297
  entropy T*S    EENTRO =         0.00000000
  eigenvalues    EBANDS =     -1453.90345209
  atomic energy  EATOM  =      7269.15145414
  Solvation  Ediel_sol  =         0.00000000
  ---------------------------------------------------
  free energy    TOTEN  =       -89.86374889 eV

  energy without entropy =      -89.86374889  energy(sigma->0) =      -89.86374889


--------------------------------------------------------------------------------------------------------




--------------------------------------- Iteration      1(  22)  ---------------------------------------


    POTLOK:  cpu time    2.7172: real time    2.7343
    SETDIJ:  cpu time    0.0023: real time    0.0023
     EDDAV:  cpu time    2.6274: real time    2.6336
 BZINTS: Fermi energy: -0.564365;144.000000 electrons
         Band energy:***********;  BLOECHL correction:  0.000000
       DOS:  cpu time    0.0023: real time    0.0023
    CHARGE:  cpu time    0.2023: real time    0.2028
    MIXING:  cpu time    0.0073: real time    0.0073
    --------------------------------------------
      LOOP:  cpu time    5.5589: real time    5.5827

 eigenvalue-minimisations  :  2528
 total energy-change (2. order) :-0.1977461E-04  (-0.3847712E-06)
 number of electron     143.9999998 magnetization 
 augmentation part      -17.7113280 magnetization 

 Broyden mixing:
  rms(total) = 0.68110E-04    rms(broyden)= 0.68109E-04
  rms(prec ) = 0.88107E-04
  weight for this iteration     100.00

 eigenvalues of (default mixing * dielectric matrix)
  average eigenvalue GAMMA=   2.3204
  8.6683  6.9991  3.2855  3.2855  2.6102  1.8835  1.8835  0.8894  0.8894  1.3826
  1.2444  1.2444  0.9573  0.9573  1.1009  1.0825  1.0825

 Free energy of the ion-electron system (eV)
  ---------------------------------------------------
  alpha Z        PSCENC =       170.45750602
  Ewald energy   TEWEN  =     11978.72073548
  -Hartree energ DENC   =    -18393.76195902
  -exchange      EXHF   =         0.00000000
  -V(xc)+E(xc)   XCENC  =        44.52790580
  PAW double counting   =      3827.90544305    -3532.99831518
  entropy T*S    EENTRO =         0.00000000
  eigenvalues    EBANDS =     -1453.86653896
  atomic energy  EATOM  =      7269.15145414
  Solvation  Ediel_sol  =         0.00000000
  ---------------------------------------------------
  free energy    TOTEN  =       -89.86376866 eV

  energy without entropy =      -89.86376866  energy(sigma->0) =      -89.86376866


--------------------------------------------------------------------------------------------------------




--------------------------------------- Iteration      1(  23)  ---------------------------------------


    POTLOK:  cpu time    2.7016: real time    2.7205
    SETDIJ:  cpu time    0.0028: real time    0.0028
     EDDAV:  cpu time    2.2633: real time    2.2687
 BZINTS: Fermi energy: -0.568565;144.000000 electrons
         Band energy:***********;  BLOECHL correction:  0.000000
       DOS:  cpu time    0.0028: real time    0.0028
    CHARGE:  cpu time    0.2053: real time    0.2058
    MIXING:  cpu time    0.0075: real time    0.0076
    --------------------------------------------
      LOOP:  cpu time    5.1834: real time    5.2082

 eigenvalue-minimisations  :  2016
 total energy-change (2. order) :-0.7161002E-05  (-0.9075998E-07)
 number of electron     143.9999998 magnetization 
 augmentation part      -17.7113272 magnetization 

 Broyden mixing:
  rms(total) = 0.29437E-04    rms(broyden)= 0.29437E-04
  rms(prec ) = 0.40282E-04
  weight for this iteration     100.00

 eigenvalues of (default mixing * dielectric matrix)
  average eigenvalue GAMMA=   2.3212
  8.8458  7.0950  3.3564  3.3564  2.6971  2.1201  1.8156  1.8156  0.8894  0.8894
  1.2644  1.2644  1.2511  1.0851  1.0851  0.9746  0.9746  1.0025

 Free energy of the ion-electron system (eV)
  ---------------------------------------------------
  alpha Z        PSCENC =       170.45750602
  Ewald energy   TEWEN  =     11978.72073548
  -Hartree energ DENC   =    -18393.72928581
  -exchange      EXHF   =         0.00000000
  -V(xc)+E(xc)   XCENC  =        44.52760566
  PAW double counting   =      3827.90703712    -3533.00013296
  entropy T*S    EENTRO =         0.00000000
  eigenvalues    EBANDS =     -1453.89869548
  atomic energy  EATOM  =      7269.15145414
  Solvation  Ediel_sol  =         0.00000000
  ---------------------------------------------------
  free energy    TOTEN  =       -89.86377582 eV

  energy without entropy =      -89.86377582  energy(sigma->0) =      -89.86377582


--------------------------------------------------------------------------------------------------------




--------------------------------------- Iteration      1(  24)  ---------------------------------------


    POTLOK:  cpu time    2.7034: real time    2.7213
    SETDIJ:  cpu time    0.0018: real time    0.0018
     EDDAV:  cpu time    2.2339: real time    2.2392
 BZINTS: Fermi energy: -0.572227;144.000000 electrons
         Band energy:***********;  BLOECHL correction:  0.000000
       DOS:  cpu time    0.0025: real time    0.0025
    CHARGE:  cpu time    0.1981: real time    0.1986
    MIXING:  cpu time    0.0085: real time    0.0085
    --------------------------------------------
      LOOP:  cpu time    5.1483: real time    5.1720

 eigenvalue-minimisations  :  1968
 total energy-change (2. order) :-0.1487423E-05  (-0.2913717E-07)
 number of electron     143.9999998 magnetization 
 augmentation part      -17.7113299 magnetization 

 Broyden mixing:
  rms(total) = 0.15549E-04    rms(broyden)= 0.15549E-04
  rms(prec ) = 0.22786E-04
  weight for this iteration     100.00

 eigenvalues of (default mixing * dielectric matrix)
  average eigenvalue GAMMA=   2.3061
  8.7681  7.2202  3.4838  3.4838  2.8923  2.1819  1.9974  1.9974  0.8894  0.8894
  1.2406  1.2406  1.2186  1.2186  1.1035  1.1035  0.9718  0.9718  0.9425

 Free energy of the ion-electron system (eV)
  ---------------------------------------------------
[...]
      7     -28.0089      2.00000
      8     -28.0085      2.00000
      9     -14.9800      2.00000
     10     -14.9798      2.00000
     11     -14.9180      2.00000
     12     -14.9180      2.00000
     13     -14.8538      2.00000
     14     -14.8538      2.00000
     15     -14.0750      2.00000
     16     -14.0742      2.00000
     17     -13.9729      2.00000
     18     -13.9623      2.00000
     19     -13.9344      2.00000
     20     -13.9303      2.00000
     21     -13.9177      2.00000
     22     -13.9155      2.00000
     23     -13.9068      2.00000
     24     -13.9041      2.00000
     25     -13.8424      2.00000
     26     -13.8340      2.00000
     27     -13.3714      2.00000
     28     -13.3625      2.00000
     29     -13.3248      2.00000
     30     -13.3171      2.00000
     31     -13.2951      2.00000
     32     -13.2937      2.00000
     33     -11.0925      2.00000
     34     -11.0800      2.00000
     35     -10.7187      2.00000
     36     -10.7034      2.00000
     37      -6.5499      2.00000
     38      -6.5324      2.00000
     39      -6.2958      2.00000
     40      -6.2877      2.00000
     41      -6.2163      2.00000
     42      -6.2080      2.00000
     43      -5.9783      2.00000
     44      -5.9649      2.00000
     45      -5.9194      2.00000
     46      -5.8725      2.00000
     47      -5.8286      2.00000
     48      -5.7167      2.00000
     49      -2.8967      2.00000
     50      -2.8054      2.00000
     51      -2.6560      2.00000
     52      -2.6020      2.00000
     53      -2.3259      2.00000
     54      -2.2382      2.00000
     55      -2.2163      2.00000
     56      -2.1918      2.00000
     57      -2.0337      2.00000
     58      -2.0094      2.00000
     59      -1.9191      2.00000
     60      -1.8350      2.00000
     61      -1.7522      2.00000
     62      -1.6849      2.00000
     63      -1.5870      2.00000
     64      -1.5164      2.00000
     65      -1.3857      2.00000
     66      -1.3164      2.00000
     67      -1.2632      2.00000
     68      -1.1454      2.00000
     69      -1.0245      2.00000
     70      -0.9327      2.00000
     71      -0.9199      2.00000
     72      -0.8497      2.00000
     73       0.1801      0.00000
     74       0.2223      0.00000
     75       0.3830      0.00000
     76       0.4281      0.00000
     77       0.5215      0.00000
     78       0.6220      0.00000
     79       0.7505      0.00000
     80       0.7626      0.00000
     81       0.8058      0.00000
     82       0.8664      0.00000
     83       1.0258      0.00000
     84       1.0585      0.00000
     85       1.1759      0.00000
     86       1.3445      0.00000
     87       1.4202      0.00000
     88       1.5470      0.00000

 k-point    15 :       0.0000    0.5000    0.4000
  band No.  band energies     occupation 
      1     -29.6669      2.00000
      2     -29.6669      2.00000
      3     -28.6730      2.00000
      4     -28.6730      2.00000
      5     -28.6003      2.00000
      6     -28.6003      2.00000
      7     -28.0087      2.00000
      8     -28.0087      2.00000
      9     -14.9794      2.00000
     10     -14.9794      2.00000
     11     -14.9187      2.00000
     12     -14.9187      2.00000
     13     -14.8558      2.00000
     14     -14.8558      2.00000
     15     -14.0739      2.00000
     16     -14.0738      2.00000
     17     -13.9696      2.00000
     18     -13.9696      2.00000
     19     -13.9357      2.00000
     20     -13.9357      2.00000
     21     -13.9157      2.00000
     22     -13.9157      2.00000
     23     -13.9081      2.00000
     24     -13.9081      2.00000
     25     -13.8376      2.00000
     26     -13.8376      2.00000
     27     -13.3668      2.00000
     28     -13.3668      2.00000
     29     -13.3210      2.00000
     30     -13.3210      2.00000
     31     -13.2939      2.00000
     32     -13.2939      2.00000
     33     -11.0804      2.00000
     34     -11.0804      2.00000
     35     -10.7016      2.00000
     36     -10.7016      2.00000
     37      -6.5705      2.00000
     38      -6.5704      2.00000
     39      -6.2676      2.00000
     40      -6.2675      2.00000
     41      -6.2096      2.00000
     42      -6.2096      2.00000
     43      -5.9477      2.00000
     44      -5.9477      2.00000
     45      -5.9070      2.00000
     46      -5.9069      2.00000
     47      -5.7683      2.00000
     48      -5.7683      2.00000
     49      -2.8057      2.00000
     50      -2.8057      2.00000
     51      -2.6480      2.00000
     52      -2.6480      2.00000
     53      -2.2793      2.00000
     54      -2.2793      2.00000
     55      -2.2156      2.00000
     56      -2.2156      2.00000
     57      -2.0244      2.00000
     58      -2.0244      2.00000
     59      -1.8254      2.00000
     60      -1.8253      2.00000
     61      -1.6229      2.00000
     62      -1.6229      2.00000
     63      -1.5987      2.00000
     64      -1.5987      2.00000
     65      -1.3683      2.00000
     66      -1.3683      2.00000
     67      -1.2038      2.00000
     68      -1.2038      2.00000
     69      -1.0141      2.00000
     70      -1.0141      2.00000
     71      -0.8849      2.00000
     72      -0.8848      2.00000
     73       0.1201      0.00000
     74       0.1201      0.00000
     75       0.3713      0.00000
     76       0.3713      0.00000
     77       0.5708      0.00000
     78       0.5708      0.00000
     79       0.7274      0.00000
     80       0.7274      0.00000
     81       0.7725      0.00000
     82       0.7725      0.00000
     83       1.0616      0.00000
     84       1.0617      0.00000
     85       1.2634      0.00000
     86       1.2635      0.00000
     87       1.4013      0.00000
     88       1.4014      0.00000


--------------------------------------------------------------------------------------------------------


 soft charge-density along one line, spin component           1
         0         1         2         3         4         5         6         7         8         9
 total charge-density along one line
 
 pseudopotential strength for first ion, spin component:           1
  4.880  -5.567  -0.000  -0.006  -0.024  -0.000  -0.004  -0.020
 -5.567  -2.760   0.000   0.001   0.004  -0.000  -0.001  -0.004
 -0.000   0.000  -6.820  -0.000  -0.000   1.885  -0.000  -0.000
 -0.006   0.001  -0.000  -6.815  -0.001  -0.000   1.896  -0.003
 -0.024   0.004  -0.000  -0.001  -6.815  -0.000  -0.003   1.895
 -0.000  -0.000   1.885  -0.000  -0.000   7.262  -0.000  -0.000
 -0.004  -0.001  -0.000   1.896  -0.003  -0.000   7.263  -0.000
 -0.020  -0.004  -0.000  -0.003   1.895  -0.000  -0.000   7.263
 -0.000   0.000  -0.012  -0.000  -0.000  -0.009  -0.000  -0.000
 -0.000   0.000  -0.001  -0.000  -0.000  -0.000  -0.000  -0.000
  0.002  -0.001   0.000  -0.004   0.006   0.000  -0.003   0.005
 -0.002   0.001  -0.000  -0.011  -0.002  -0.000  -0.008  -0.002
  0.003  -0.001   0.000  -0.001  -0.011   0.000  -0.001  -0.008
  0.000   0.000   0.001   0.000   0.000   0.000   0.000   0.000
  0.000   0.000   0.000   0.000   0.000  -0.000   0.000   0.000
 -0.000  -0.000  -0.000   0.000  -0.000  -0.000   0.000  -0.000
  0.000   0.000   0.000   0.001   0.000   0.000   0.000   0.000
 -0.000  -0.000  -0.000   0.000   0.000  -0.000   0.000   0.000
 total augmentation occupancy for first ion, spin component:           1
  2.108  -0.260   0.000   0.012   0.051   0.000  -0.005  -0.019  -0.000   0.000   0.014  -0.008   0.031   0.000  -0.000  -0.009
 -0.260   0.634   0.000  -0.032  -0.133   0.000   0.012   0.032   0.000  -0.000  -0.023   0.008  -0.059   0.000   0.000   0.036
  0.000   0.000   2.012   0.000   0.000  -0.015   0.000   0.000  -0.080   0.022   0.000   0.000   0.000   0.068  -0.043  -0.000
  0.012  -0.032  -0.000   1.999   0.003   0.000  -0.006  -0.002   0.000   0.000  -0.044  -0.065  -0.014  -0.000   0.000   0.043
  0.051  -0.133   0.000   0.003   1.995   0.000  -0.002  -0.004  -0.000   0.000   0.033  -0.006  -0.050  -0.000   0.000  -0.027
  0.000   0.000  -0.015  -0.000   0.000   0.008  -0.000   0.000   0.022  -0.009   0.000   0.000   0.000  -0.030   0.014  -0.000
 -0.005   0.012   0.000  -0.006  -0.002   0.000   0.005   0.000  -0.000   0.000   0.015   0.015   0.005   0.000  -0.000  -0.022
 -0.019   0.032   0.000  -0.002  -0.004   0.000   0.000   0.004   0.000   0.000  -0.007   0.000   0.009   0.000   0.000   0.009
  0.000   0.000  -0.080  -0.000   0.000   0.022   0.000   0.000   0.145  -0.014   0.000   0.000   0.000  -0.185   0.020   0.000
  0.000   0.000   0.022   0.000   0.000  -0.009   0.000   0.000  -0.014   0.068  -0.000   0.000   0.000   0.018  -0.085   0.000
  0.014  -0.023   0.000  -0.044   0.033   0.000   0.015  -0.007   0.000   0.000   0.120   0.049   0.019   0.000   0.000  -0.149
 -0.008   0.008   0.000  -0.065  -0.006   0.000   0.015   0.000   0.000   0.000   0.049   0.087   0.008   0.000  -0.000  -0.069
  0.031  -0.059  -0.000  -0.014  -0.050   0.000   0.005   0.009   0.000   0.000   0.019   0.008   0.093   0.000   0.000  -0.026
  0.000   0.000   0.068   0.000   0.000  -0.030   0.000   0.000  -0.185   0.018   0.000   0.000   0.000   0.265  -0.034  -0.000
 -0.000   0.000  -0.043   0.000   0.000   0.014  -0.000   0.000   0.020  -0.085   0.000   0.000   0.000  -0.034   0.116   0.000
 -0.009   0.036  -0.000   0.043  -0.027  -0.000  -0.022   0.009   0.000   0.000  -0.149  -0.069  -0.026   0.000   0.000   0.205
  0.006  -0.024   0.000   0.054  -0.001   0.000  -0.022  -0.001   0.000   0.000  -0.067  -0.111  -0.011   0.000   0.000   0.105
 -0.023   0.072   0.000   0.022   0.042   0.000  -0.008  -0.012   0.000   0.000  -0.027  -0.013  -0.123   0.000   0.000   0.042


------------------------ aborting loop because EDIFF is reached ----------------------------------------


    CHARGE:  cpu time    0.1964: real time    0.1969
    FORLOC:  cpu time    0.0116: real time    0.0117
    FORNL :  cpu time    0.6272: real time    0.6287
    STRESS:  cpu time    1.8779: real time    1.8824
    FORCOR:  cpu time    2.7620: real time    2.7685
    FORHAR:  cpu time    0.0262: real time    0.0263
    MIXING:  cpu time    0.0099: real time    0.0099
    OFIELD:  cpu time    0.0001: real time    0.0001

  FORCE on cell =-STRESS in cart. coord.  units (eV):
  Direction    XX          YY          ZZ          XY          YZ          ZX
  --------------------------------------------------------------------------------------
  Alpha Z   170.45751   170.45751   170.45751
  Ewald  -19747.09606 16131.27526 15594.52791    -0.00002     0.00000   138.68715
  Hartree-16668.85293 17740.52025 17322.06419     0.00000    -0.00000   105.06697
  E(xc)    -461.36299  -462.63646  -462.63935    -0.00000     0.00000     0.07509
  Local   34999.15303-35307.02592-34344.08190     0.00001    -0.00000  -241.17939
  n-local   336.61523   336.73331   337.38807     0.06209    -0.20832    -1.67758
  augment  -167.64901  -167.99460  -167.87123    -0.00000    -0.00000     0.34227
  Kinetic  1529.11343  1546.18283  1538.16740    -0.02811    -0.84913    -1.20515
  Fock        0.00000     0.00000     0.00000     0.00000     0.00000     0.00000
  -------------------------------------------------------------------------------------
  Total      -9.62181   -12.48783   -11.98741     0.00000     0.00000     0.10936
  in kB      -8.16497   -10.59705   -10.17240     0.00000     0.00000     0.09281
  external pressure =       -9.64 kB  Pullay stress =        0.00 kB


 VOLUME and BASIS-vectors are now :
 -----------------------------------------------------------------------------
  energy-cutoff  :      500.00
  volume of cell :     1888.05
      direct lattice vectors                 reciprocal lattice vectors
    24.009468079  0.000000000  0.000000000     0.041650236  0.000000000  0.000000000
     0.000000000  6.777849674  0.000000000     0.000000000  0.147539419  0.000000000
     0.000000000  0.000000000 11.602143288     0.000000000  0.000000000  0.086190971

  length of vectors
    24.009468079  6.777849674 11.602143288     0.041650236  0.147539419  0.086190971


 FORCES acting on ions
    electron-ion (+dipol)            ewald-force                    non-local-force                 convergence-correction
 -----------------------------------------------------------------------------------------------
   0.784E+03 0.102E-04 0.434E+02   -.779E+03 0.985E-05 -.426E+02   -.401E+01 -.186E-18 -.798E+00   -.238E-03 -.212E-08 0.125E-04
   -.784E+03 -.633E-04 -.434E+02   0.779E+03 -.127E-04 0.426E+02   0.401E+01 0.288E-19 0.798E+00   0.238E-03 0.228E-08 -.125E-04
   0.810E+02 -.603E-04 -.352E+02   -.807E+02 -.186E-04 0.340E+02   -.149E+00 -.297E-18 0.121E+01   0.452E-04 0.357E-08 0.503E-04
   -.810E+02 0.115E-04 0.352E+02   0.807E+02 0.131E-04 -.340E+02   0.149E+00 -.297E-18 -.121E+01   -.452E-04 -.332E-08 -.503E-04
   0.630E+03 -.612E-04 -.498E+02   -.628E+03 -.166E-04 0.503E+02   -.184E+01 -.685E-18 -.495E+00   -.171E-03 0.286E-08 -.133E-03
   -.630E+03 0.903E-05 0.498E+02   0.628E+03 0.145E-04 -.503E+02   0.184E+01 0.498E-18 0.495E+00   0.171E-03 -.274E-08 0.133E-03
   0.365E+03 0.120E-04 -.678E+01   -.364E+03 0.134E-04 0.607E+01   -.887E+00 0.143E-17 0.710E+00   0.560E-04 -.316E-08 0.103E-03
   -.365E+03 -.616E-04 0.678E+01   0.364E+03 -.135E-04 -.607E+01   0.887E+00 0.160E-17 -.710E+00   -.560E-04 0.301E-08 -.103E-03
   0.275E+03 0.357E+02 -.460E+02   -.275E+03 -.374E+02 0.470E+02   -.179E+00 0.174E+01 -.936E+00   0.103E-04 0.111E-04 0.233E-05
   -.275E+03 -.357E+02 0.460E+02   0.275E+03 0.374E+02 -.470E+02   0.179E+00 -.174E+01 0.936E+00   -.103E-04 -.111E-04 -.234E-05
   0.124E+03 -.313E+02 0.272E+01   -.123E+03 0.327E+02 -.158E+01   -.346E+00 -.137E+01 -.114E+01   -.137E-04 -.384E-04 -.427E-04
   -.124E+03 0.313E+02 -.272E+01   0.123E+03 -.327E+02 0.158E+01   0.346E+00 0.137E+01 0.114E+01   0.137E-04 0.384E-04 0.427E-04
   -.275E+03 0.357E+02 0.460E+02   0.275E+03 -.374E+02 -.470E+02   0.179E+00 0.174E+01 0.936E+00   -.103E-04 0.111E-04 -.234E-05
   0.275E+03 -.357E+02 -.460E+02   -.275E+03 0.374E+02 0.470E+02   -.179E+00 -.174E+01 -.936E+00   0.103E-04 -.111E-04 0.233E-05
   -.124E+03 -.313E+02 -.272E+01   0.123E+03 0.327E+02 0.158E+01   0.346E+00 -.137E+01 0.114E+01   0.137E-04 -.384E-04 0.427E-04
   0.124E+03 0.313E+02 0.272E+01   -.123E+03 -.327E+02 -.158E+01   -.346E+00 0.137E+01 -.114E+01   -.137E-04 0.384E-04 -.427E-04
   0.332E+03 -.439E-05 0.459E+02   -.333E+03 -.609E-05 -.463E+02   0.147E+01 0.499E-19 0.455E+00   0.495E-05 0.892E-09 0.347E-04
   -.332E+03 0.617E-05 -.459E+02   0.333E+03 0.631E-05 0.463E+02   -.147E+01 -.189E-18 -.455E+00   -.495E-05 -.998E-09 -.347E-04
   0.329E+02 0.968E-05 -.107E+02   -.312E+02 0.763E-05 0.999E+01   -.139E+01 -.694E-19 0.680E+00   0.639E-05 -.137E-08 0.250E-04
   -.329E+02 -.162E-05 0.107E+02   0.312E+02 -.731E-05 -.999E+01   0.139E+01 -.800E-19 -.680E+00   -.639E-05 0.127E-08 -.250E-04
   0.243E+03 0.438E-05 0.997E+01   -.243E+03 0.809E-05 -.115E+02   -.445E+00 0.531E-18 0.151E+01   -.435E-04 -.119E-08 -.290E-04
   -.243E+03 -.572E-05 -.997E+01   0.243E+03 -.814E-05 0.115E+02   0.445E+00 -.149E-18 -.151E+01   0.435E-04 0.109E-08 0.290E-04
   0.159E+03 -.634E-05 0.594E+02   -.158E+03 -.765E-05 -.613E+02   -.827E+00 0.317E-17 0.191E+01   0.145E-04 0.117E-08 0.712E-04
   -.159E+03 0.371E-05 -.594E+02   0.158E+03 0.746E-05 0.613E+02   0.827E+00 -.205E-17 -.191E+01   -.145E-04 -.121E-08 -.712E-04
 -----------------------------------------------------------------------------------------------
   0.465E-04 -.209E-03 0.554E-04   0.341E-12 0.220E-13 0.213E-13   0.000E+00 0.445E-15 -.222E-15   0.103E-07 -.224E-09 -.399E-08
 
 
 POSITION                                       TOTAL-FORCE (eV/Angst)
 -----------------------------------------------------------------------------------
      0.13670      1.69446      8.18206         0.766649      0.000000      0.000566
      9.07277      5.08339      3.42009        -0.766649      0.000000     -0.000566
      4.36803      5.08339      2.16399         0.092012      0.000000     -0.000193
      4.84143      1.69446      9.43815        -0.092012     -0.000000      0.000193
      1.43529      5.08339     10.63909         0.735209      0.000000      0.000327
      7.77418      1.69446      0.96305        -0.735209     -0.000000     -0.000327
      3.06944      1.69446      4.62191         0.437731      0.000000      0.000217
      6.14002      5.08339      6.98023        -0.437731     -0.000000     -0.000217
      1.75027      0.48827      1.68053        -0.138913     -0.000393     -0.000003
      7.45920      6.28958      9.92161         0.138913      0.000393      0.000003
      2.75446      6.29745      7.64832         0.180544     -0.000127      0.000110
      6.45500      0.48040      3.95382        -0.180544      0.000127     -0.000110
      7.45920      3.87720      9.92161         0.138913     -0.000393      0.000003
      1.75027      2.90065      1.68053        -0.138913      0.000393     -0.000003
      6.45500      2.90853      3.95382        -0.180544     -0.000127     -0.000110
      2.75446      3.86932      7.64832         0.180544      0.000127      0.000110
      0.74693      5.08339      6.96004        -0.244947      0.000000      0.000225
      8.46254      1.69446      4.64211         0.244947     -0.000000     -0.000225
      3.75780      1.69446      0.97599         0.317603      0.000000      0.000226
      5.45166      5.08339     10.62616        -0.317603     -0.000000     -0.000226
      1.78112      1.69446     11.16160        -0.201715      0.000000      0.000167
      7.42835      5.08339      0.44054         0.201715      0.000000     -0.000167
      2.72362      5.08339      5.52766        -0.184657     -0.000000      0.000115
      6.48585      1.69446      6.07448         0.184657      0.000000     -0.000115
 -----------------------------------------------------------------------------------
    total drift:                                0.000047     -0.000209      0.000055


--------------------------------------------------------------------------------------------------------



  FREE ENERGIE OF THE ION-ELECTRON SYSTEM (eV)
  ---------------------------------------------------
  free  energy   TOTEN  =       -89.86377755 eV

  energy  without entropy=      -89.86377755  energy(sigma->0) =      -89.86377755
 


--------------------------------------------------------------------------------------------------------


    POTLOK:  cpu time    2.6996: real time    2.7060


--------------------------------------------------------------------------------------------------------


 writing wavefunctions
     LOOP+:  cpu time14784.1872: real time14821.9119
    4ORBIT:  cpu time    0.0000: real time    0.0000
 BZINTS: Fermi energy: -0.575626;144.000000 electrons
         Band energy:***********;  BLOECHL correction:  0.000000

 total amount of memory used by VASP MPI-rank0    79352. kBytes
=======================================================================

   base      :      30000. kBytes
   nonlr-proj:       2646. kBytes
   fftplans  :       5898. kBytes
   grid      :       8824. kBytes
   one-center:         93. kBytes
   wavefun   :      31891. kBytes
 
  
  
 General timing and accounting informations for this job:
 ========================================================
  
                  Total CPU time used (sec):    14793.084
                            User time (sec):    14754.416
                          System time (sec):       38.668
                         Elapsed time (sec):    14834.178
  
                   Maximum memory used (kb):      306368.
                   Average memory used (kb):           0.
  
                          Minor page faults:       102503
                          Major page faults:          192
                 Voluntary context switches:        14521
