 vasp.5.4.4.18Apr17-6-g9f103f2a35 (build Nov 21 2017 15:30:27) complex          
  
 executed on             LinuxIFC date 2020.09.15  12:25:34
 running on   64 total cores
 distrk:  each k-point on   32 cores,    2 groups
 distr:  one band on NCORES_PER_BAND=   4 cores,    8 groups


--------------------------------------------------------------------------------------------------------


 INCAR:
 POTCAR:   PAW_PBE Ba_sv 06Sep2000                
 POTCAR:   PAW_PBE Si 05Jan2001                   

 ----------------------------------------------------------------------------- 
|                                                                             |
|           W    W    AA    RRRRR   N    N  II  N    N   GGGG   !!!           |
|           W    W   A  A   R    R  NN   N  II  NN   N  G    G  !!!           |
|           W    W  A    A  R    R  N N  N  II  N N  N  G       !!!           |
|           W WW W  AAAAAA  RRRRR   N  N N  II  N  N N  G  GGG   !            |
|           WW  WW  A    A  R   R   N   NN  II  N   NN  G    G                |
|           W    W  A    A  R    R  N    N  II  N    N   GGGG   !!!           |
|                                                                             |
|      You have enabled k-point parallelism (KPAR>1).                         |
|      This developmental code was originally  written by Paul Kent at ORNL,  |
|      and carefully double checked in Vienna.                                |
|      GW as well as linear response parallelism added by Martijn Marsman     |
|      and Georg Kresse.                                                      |
|      Carefully verify results versus KPAR=1.                                |
|      Report problems to Paul Kent and Vienna.                               |
|                                                                             |
 ----------------------------------------------------------------------------- 


 ----------------------------------------------------------------------------- 
|                                                                             |
|  ADVICE TO THIS USER RUNNING 'VASP/VAMP'   (HEAR YOUR MASTER'S VOICE ...):  |
|                                                                             |
|      You have switched on vdW-DFT.                                          |
|      This routine was written and supplied by Jiri Klimes.                  |
|      We recommed that you carefully read and cite the following             |
|      publication                                                            |
|      J. Klimes, D.R. Bowler, A. Michelides                                  |
|        J. Phys.: Cond Matt. 22 022201 (2010)                                |
|      J. Klimes, D.R. Bowler, A. Michelides                                  |
|        Phys. Rev. B. 83, 195131 (2011)                                      |
|      and references therein.                                                |
|                                                                             |
 ----------------------------------------------------------------------------- 

 POTCAR:   PAW_PBE Ba_sv 06Sep2000                
   VRHFIN =Ba: 5s5p6s                                                           
   LEXCH  = PE                                                                  
   EATOM  =   700.2255 eV,   51.4651 Ry                                         
                                                                                
   TITEL  = PAW_PBE Ba_sv 06Sep2000                                             
   LULTRA =        F    use ultrasoft PP ?                                      
   IUNSCR =        1    unscreen: 0-lin 1-nonlin 2-no                           
   RPACOR =    2.400    partial core radius                                     
   POMASS =  137.327; ZVAL   =   10.000    mass and valenz                      
   RCORE  =    2.800    outmost cutoff radius                                   
   RWIGS  =    3.740; RWIGS  =    1.979    wigner-seitz radius (au A)           
   ENMAX  =  187.210; ENMIN  =  140.408 eV                                      
   RCLOC  =    2.516    cutoff for local pot                                    
   LCOR   =        T    correct aug charges                                     
   LPAW   =        T    paw PP                                                  
   EAUG   =  351.165                                                            
   DEXC   =     .000                                                            
   RMAX   =    3.370    core radius for proj-oper                               
   RAUG   =    1.300    factor for augmentation sphere                          
   RDEP   =    2.976    radius for radial grids                                 
   QCUT   =   -3.709; QGAM   =    7.419    optimization parameters              
                                                                                
   Description                                                                  
     l     E      TYP  RCUT    TYP  RCUT                                        
     0   .000     23  2.800                                                     
     0   .000     23  2.800                                                     
     1   .000     23  2.700                                                     
     1  2.000     23  2.700                                                     
     2   .000     23  2.700                                                     
     2   .000     23  2.700                                                     
  local pseudopotential read in
  partial core-charges read in
  atomic valenz-charges read in
  non local Contribution for L=           0  read in
    real space projection operators read in
  non local Contribution for L=           0  read in
    real space projection operators read in
  non local Contribution for L=           1  read in
    real space projection operators read in
  non local Contribution for L=           1  read in
    real space projection operators read in
  non local Contribution for L=           2  read in
    real space projection operators read in
  non local Contribution for L=           2  read in
    real space projection operators read in
    PAW grid and wavefunctions read in
 
   number of l-projection  operators is LMAX  =           6
   number of lm-projection operators is LMMAX =          18
 
 POTCAR:   PAW_PBE Si 05Jan2001                   
   VRHFIN =Si: s2p2                                                             
   LEXCH  = PE                                                                  
   EATOM  =   103.0669 eV,    7.5752 Ry                                         
                                                                                
   TITEL  = PAW_PBE Si 05Jan2001                                                
   LULTRA =        F    use ultrasoft PP ?                                      
   IUNSCR =        1    unscreen: 0-lin 1-nonlin 2-no                           
   RPACOR =    1.500    partial core radius                                     
   POMASS =   28.085; ZVAL   =    4.000    mass and valenz                      
   RCORE  =    1.900    outmost cutoff radius                                   
   RWIGS  =    2.480; RWIGS  =    1.312    wigner-seitz radius (au A)           
   ENMAX  =  245.345; ENMIN  =  184.009 eV                                      
   ICORE  =        2    local potential                                         
   LCOR   =        T    correct aug charges                                     
   LPAW   =        T    paw PP                                                  
   EAUG   =  322.069                                                            
   DEXC   =    -.007                                                            
   RMAX   =    2.944    core radius for proj-oper                               
   RAUG   =    1.300    factor for augmentation sphere                          
   RDEP   =    1.993    radius for radial grids                                 
   QCUT   =   -4.246; QGAM   =    8.493    optimization parameters              
                                                                                
   Description                                                                  
     l     E      TYP  RCUT    TYP  RCUT                                        
     0   .000     23  1.900                                                     
     0   .000     23  1.900                                                     
     1   .000     23  1.900                                                     
     1   .000     23  1.900                                                     
     2   .000      7  1.900                                                     
  local pseudopotential read in
  partial core-charges read in
  atomic valenz-charges read in
  non local Contribution for L=           0  read in
    real space projection operators read in
  non local Contribution for L=           0  read in
    real space projection operators read in
  non local Contribution for L=           1  read in
    real space projection operators read in
  non local Contribution for L=           1  read in
    real space projection operators read in
    PAW grid and wavefunctions read in
 
   number of l-projection  operators is LMAX  =           4
   number of lm-projection operators is LMMAX =           8
 
 Optimization of the real space projectors (new method)

 maximal supplied QI-value         = 13.42
 optimisation between [QCUT,QGAM] = [ 11.40, 22.81] = [ 36.42,145.68] Ry 
 Optimized for a Real-space Cutoff    1.56 Angstroem

   l    n(q)    QCUT    max X(q) W(low)/X(q) W(high)/X(q)  e(spline) 
   0     11    11.404     7.198    0.14E-04    0.26E-04    0.99E-07
   0     11    11.404    15.603    0.29E-04    0.72E-04    0.44E-06
   1     10    11.404     3.746    0.20E-04    0.24E-04    0.43E-07
   1     10    11.404     4.362    0.22E-03    0.97E-04    0.22E-06
   2     10    11.404     5.782    0.83E-04    0.62E-05    0.27E-06
   2     10    11.404    65.505    0.42E-03    0.31E-04    0.12E-05
 Optimization of the real space projectors (new method)

 maximal supplied QI-value         = 19.84
 optimisation between [QCUT,QGAM] = [ 11.31, 22.82] = [ 35.82,145.81] Ry 
 Optimized for a Real-space Cutoff    1.16 Angstroem

   l    n(q)    QCUT    max X(q) W(low)/X(q) W(high)/X(q)  e(spline) 
   0      8    11.310     8.708    0.14E-04    0.11E-04    0.43E-08
   0      8    11.310   106.241    0.27E-03    0.30E-03    0.38E-07
   1      7    11.310     5.901    0.82E-05    0.48E-04    0.19E-07
   1      7    11.310    73.241    0.27E-03    0.27E-03    0.74E-07

 ----------------------------------------------------------------------------- 
|                                                                             |
|  ADVICE TO THIS USER RUNNING 'VASP/VAMP'   (HEAR YOUR MASTER'S VOICE ...):  |
|                                                                             |
|      You enforced a specific xc-type in the INCAR file,                     |
|      a different type was found on the POTCAR file                          |
|          I HOPE YOU KNOW, WHAT YOU ARE  DOING                               |
|                                                                             |
 ----------------------------------------------------------------------------- 

 PAW_PBE Ba_sv 06Sep2000                :
 energy of atom  1       EATOM= -700.2255
 kinetic energy error for atom=    0.0005 (will be added to EATOM!!)
 PAW_PBE Si 05Jan2001                   :
 energy of atom  2       EATOM= -103.0669
 kinetic energy error for atom=    0.0006 (will be added to EATOM!!)
 
 
 POSCAR: ba8 si16                                
  positions in direct lattice
  velocities in cartesian coordinates
 exchange correlation table for  LEXCH =       43
   RHO(1)=    0.500       N(1)  =     2000
   RHO(2)=  100.500       N(2)  =     4000
 


--------------------------------------------------------------------------------------------------------


 ion  position               nearest neighbor table
   1  0.006  0.250  0.704-  21 3.39  16 3.44  11 3.44  17 3.65  17 3.65   5 4.38   5 4.38   7 4.61

   2  0.388  0.750  0.296-  22 3.39  12 3.44  15 3.44  18 3.65  18 3.65   6 4.38   6 4.38   8 4.61

   3  0.182  0.750  0.185-  20 3.36   9 3.44  14 3.44  19 3.65  19 3.65  12 3.66  15 3.66  22 3.71
                            23 3.76   5 4.30   7 4.38   7 4.38
   4  0.212  0.250  0.815-  19 3.36  13 3.44  10 3.44  20 3.65  20 3.65  16 3.66  11 3.66  21 3.71
                            24 3.76   6 4.30   8 4.38   8 4.38
   5  0.060  0.750  0.915-   9 3.44  14 3.44  21 3.45  21 3.45  11 3.46  16 3.46  17 3.71   3 4.30
                             1 4.38   1 4.38
   6  0.334  0.250  0.085-  13 3.44  10 3.44  22 3.45  22 3.45  15 3.46  12 3.46  18 3.71   4 4.30
                             2 4.38   2 4.38
   7  0.128  0.250  0.397-  14 3.45   9 3.45  23 3.53  23 3.53  19 3.74  16 3.76  11 3.76  15 3.89
                            12 3.89   3 4.38   3 4.38   1 4.61
   8  0.266  0.750  0.603-  10 3.45  13 3.45  24 3.53  24 3.53  20 3.74  12 3.76  15 3.76  11 3.89
                            16 3.89   4 4.38   4 4.38   2 4.61
   9  0.073  0.072  0.142-  14 2.41  21 2.44  19 2.45   5 3.44   3 3.44   7 3.45
  10  0.321  0.928  0.858-  13 2.41  22 2.44  20 2.45   6 3.44   4 3.44   8 3.45
  11  0.115  0.930  0.660-  16 2.44  17 2.45  23 2.45   1 3.44   5 3.46   4 3.66   7 3.76   8 3.89

  12  0.279  0.070  0.340-  15 2.44  18 2.45  24 2.45   2 3.44   6 3.46   3 3.66   8 3.76   7 3.89

  13  0.321  0.572  0.858-  10 2.41  22 2.44  20 2.45   6 3.44   4 3.44   8 3.45
  14  0.073  0.428  0.142-   9 2.41  21 2.44  19 2.45   5 3.44   3 3.44   7 3.45
  15  0.279  0.430  0.340-  12 2.44  18 2.45  24 2.45   2 3.44   6 3.46   3 3.66   8 3.76   7 3.89

  16  0.115  0.570  0.660-  11 2.44  17 2.45  23 2.45   1 3.44   5 3.46   4 3.66   7 3.76   8 3.89

  17  0.031  0.750  0.600-  23 2.44  11 2.45  16 2.45   1 3.65   1 3.65   5 3.71
  18  0.363  0.250  0.400-  24 2.44  15 2.45  12 2.45   2 3.65   2 3.65   6 3.71
  19  0.157  0.250  0.080-  21 2.42  14 2.45   9 2.45   4 3.36   3 3.65   3 3.65   7 3.74
  20  0.237  0.750  0.920-  22 2.42  10 2.45  13 2.45   3 3.36   4 3.65   4 3.65   8 3.74
  21  0.074  0.250  0.959-  19 2.42  14 2.44   9 2.44   1 3.39   5 3.45   5 3.45   4 3.71
  22  0.320  0.750  0.041-  20 2.42  10 2.44  13 2.44   2 3.39   6 3.45   6 3.45   3 3.71
  23  0.113  0.750  0.477-  17 2.44  11 2.45  16 2.45   7 3.53   7 3.53   3 3.76
  24  0.281  0.250  0.523-  18 2.44  15 2.45  12 2.45   8 3.53   8 3.53   4 3.76
 
  LATTYP: Found a simple orthorhombic cell.
 ALAT       =     6.7778496742
 B/A-ratio  =     1.7117734747
 C/A-ratio  =     3.5423429602
  
  Lattice vectors:
  
 A1 = (   0.0000000000,   6.7778496742,   0.0000000000)
 A2 = (   0.0000000000,   0.0000000000, -11.6021432877)
 A3 = ( -24.0094680786,   0.0000000000,   0.0000000000)


Analysis of symmetry for initial positions (statically):
=====================================================================
 Subroutine PRICEL returns:
 Original cell was already a primitive cell.
 

 Routine SETGRP: Setting up the symmetry group for a 
 simple orthorhombic supercell.


 Subroutine GETGRP returns: Found  4 space group operations
 (whereof  1 operations were pure point group operations)
 out of a pool of  8 trial point group operations.


The static configuration has the point symmetry C_1 .
 The point group associated with its full space group is C_2h.


Analysis of symmetry for dynamics (positions and initial velocities):
=====================================================================
 Subroutine PRICEL returns:
 Original cell was already a primitive cell.
 

 Routine SETGRP: Setting up the symmetry group for a 
 simple orthorhombic supercell.


 Subroutine GETGRP returns: Found  4 space group operations
 (whereof  1 operations were pure point group operations)
 out of a pool of  8 trial point group operations.


The dynamic configuration has the point symmetry C_1 .
 The point group associated with its full space group is C_2h.


Analysis of constrained symmetry for selective dynamics:
=====================================================================
 Subroutine PRICEL returns:
 Original cell was already a primitive cell.
 

 Routine SETGRP: Setting up the symmetry group for a 
 simple orthorhombic supercell.


 Subroutine GETGRP returns: Found  4 space group operations
 (whereof  1 operations were pure point group operations)
 out of a pool of  8 trial point group operations.


The constrained configuration has the point symmetry C_1 .
 The point group associated with its full space group is C_2h.


 Subroutine INISYM returns: Found  4 space group operations
 (whereof  1 operations are pure point group operations),
 and found     1 'primitive' translations

 
 
 KPOINTS: k-density: 8.0                          

Automatic generation of k-mesh.
Space group operators:
 irot       det(A)        alpha          n_x          n_y          n_z        tau_x        tau_y        tau_z
    1     1.000000     0.000000     1.000000     0.000000     0.000000     0.000000     0.000000     0.000000
    2    -1.000000     0.000000     1.000000     0.000000     0.000000    -0.606011     0.000000     0.000000
    3     1.000000   180.000000     0.000000     1.000000     0.000000    -0.606011     0.500000     0.000000
    4    -1.000000   180.000000     0.000000     1.000000     0.000000     0.000000     0.500000     0.000000
 
 Subroutine IBZKPT returns following result:
 ===========================================
 
 Found     15 irreducible k-points:
 
 Following reciprocal coordinates:
            Coordinates               Weight
  0.000000  0.000000  0.000000      1.000000
  0.000000  0.125000  0.000000      2.000000
  0.000000  0.250000  0.000000      2.000000
  0.000000  0.375000  0.000000      2.000000
  0.000000  0.500000  0.000000      1.000000
  0.000000  0.000000  0.200000      2.000000
  0.000000  0.125000  0.200000      4.000000
  0.000000  0.250000  0.200000      4.000000
  0.000000  0.375000  0.200000      4.000000
  0.000000  0.500000  0.200000      2.000000
  0.000000  0.000000  0.400000      2.000000
  0.000000  0.125000  0.400000      4.000000
  0.000000  0.250000  0.400000      4.000000
  0.000000  0.375000  0.400000      4.000000
  0.000000  0.500000  0.400000      2.000000
 
 Following cartesian coordinates:
            Coordinates               Weight
  0.000000  0.000000  0.000000      1.000000
  0.000000  0.018442  0.000000      2.000000
  0.000000  0.036885  0.000000      2.000000
  0.000000  0.055327  0.000000      2.000000
  0.000000  0.073770  0.000000      1.000000
  0.000000  0.000000  0.017238      2.000000
  0.000000  0.018442  0.017238      4.000000
  0.000000  0.036885  0.017238      4.000000
  0.000000  0.055327  0.017238      4.000000
  0.000000  0.073770  0.017238      2.000000
  0.000000  0.000000  0.034476      2.000000
  0.000000  0.018442  0.034476      4.000000
  0.000000  0.036885  0.034476      4.000000
  0.000000  0.055327  0.034476      4.000000
  0.000000  0.073770  0.034476      2.000000
 
 TETIRR: Found    108 inequivalent tetrahedra from      240


--------------------------------------------------------------------------------------------------------




 Dimension of arrays:
   k-points           NKPTS =     15   k-points in BZ     NKDIM =     15   number of bands    NBANDS=     88
   number of dos      NEDOS =    301   number of ions     NIONS =     24
   non local maximal  LDIM  =      6   non local SUM 2l+1 LMDIM =     18
   total plane-waves  NPLWV = 358400
   max r-space proj   IRMAX =   3093   max aug-charges    IRDMAX=  12081
   dimension x,y,z NGX =   140 NGY =   40 NGZ =   64
   dimension x,y,z NGXF=   280 NGYF=   80 NGZF=  128
   support grid    NGXF=   280 NGYF=   80 NGZF=  128
   ions per type =               8  16
   NGX,Y,Z   is equivalent  to a cutoff of   9.69,  9.81,  9.17 a.u.
   NGXF,Y,Z  is equivalent  to a cutoff of  19.39, 19.62, 18.34 a.u.

 SYSTEM =  unknown system                          
 POSCAR =  ba8 si16                                

 Startparameter for this run:
   NWRITE =      2    write-flag & timer
   PREC   = normal    normal or accurate (medium, high low for compatibility)
   ISTART =      0    job   : 0-new  1-cont  2-samecut
   ICHARG =      2    charge: 1-file 2-atom 10-const
   ISPIN  =      1    spin polarized calculation?
   LNONCOLLINEAR =      F non collinear calculations
   LSORBIT =      F    spin-orbit coupling
   INIWAV =      1    electr: 0-lowe 1-rand  2-diag
   LASPH  =      T    aspherical Exc in radial PAW
   METAGGA=      F    non-selfconsistent MetaGGA calc.

 Electronic Relaxation 1
   ENCUT  =  500.0 eV  36.75 Ry    6.06 a.u.  43.77 12.36 21.15*2*pi/ulx,y,z
   ENINI  =  500.0     initial cutoff
   ENAUG  =  351.2 eV  augmentation charge cutoff
   NELM   =    100;   NELMIN=  2; NELMDL= -5     # of ELM steps 
   EDIFF  = 0.1E-05   stopping-criterion for ELM
   LREAL  =      T    real-space projection
   NLSPLINE    = F    spline interpolate recip. space projectors
   LCOMPAT=      F    compatible to vasp.4.4
   GGA_COMPAT  = T    GGA compatible to vasp.4.4-vasp.4.6
   LMAXPAW     = -100 max onsite density
   LMAXMIX     =    2 max onsite mixed and CHGCAR
   VOSKOWN=      0    Vosko Wilk Nusair interpolation
   ROPT   =   -0.00050  -0.00050
 Ionic relaxation
   EDIFFG = -.1E-02   stopping-criterion for IOM
   NSW    =      0    number of steps for IOM
   NBLOCK =      1;   KBLOCK =      1    inner block; outer block 
   IBRION =     -1    ionic relax: 0-MD 1-quasi-New 2-CG
   NFREE  =      0    steps in history (QN), initial steepest desc. (CG)
   ISIF   =      2    stress and relaxation
   IWAVPR =     10    prediction:  0-non 1-charg 2-wave 3-comb
   ISYM   =      2    0-nonsym 1-usesym 2-fastsym
   LCORR  =      T    Harris-Foulkes like correction to forces

   POTIM  = 0.3000    time-step for ionic-motion
   TEIN   =    0.0    initial temperature
   TEBEG  =    0.0;   TEEND  =   0.0 temperature during run
   SMASS  =  -3.00    Nose mass-parameter (am)
   estimated Nose-frequenzy (Omega)   =  0.10E-29 period in steps =****** mass=  -0.132E-25a.u.
   SCALEE = 1.0000    scale energy and forces
   NPACO  =    256;   APACO  = 16.0  distance and # of slots for P.C.
   PSTRESS=    0.0 pullay stress

  Mass of Ions in am
   POMASS = 137.33 28.09
  Ionic Valenz
   ZVAL   =  10.00  4.00
  Atomic Wigner-Seitz radii
   RWIGS  =  -1.00 -1.00
  virtual crystal weights 
   VCA    =   1.00  1.00
   NELECT =     144.0000    total number of electrons
   NUPDOWN=      -1.0000    fix difference up-down

 DOS related values:
   EMIN   =  10.00;   EMAX   =-10.00  energy-range for DOS
   EFERMI =   0.00
   ISMEAR =    -5;   SIGMA  =   0.01  broadening in eV -4-tet -1-fermi 0-gaus

 Electronic relaxation 2 (details)
   IALGO  =     38    algorithm
   LDIAG  =      T    sub-space diagonalisation (order eigenvalues)
   LSUBROT=      F    optimize rotation matrix (better conditioning)
   TURBO    =      0    0=normal 1=particle mesh
   IRESTART =      0    0=no restart 2=restart with 2 vectors
   NREBOOT  =      0    no. of reboots
   NMIN     =      0    reboot dimension
   EREF     =   0.00    reference energy to select bands
   IMIX   =      4    mixing-type and parameters
     AMIX     =   0.40;   BMIX     =  1.00
     AMIX_MAG =   1.60;   BMIX_MAG =  1.00
     AMIN     =   0.10
     WC   =   100.;   INIMIX=   1;  MIXPRE=   1;  MAXMIX= -45

 Intra band minimization:
   WEIMIN = 0.0000     energy-eigenvalue tresh-hold
   EBREAK =  0.28E-08  absolut break condition
   DEPER  =   0.30     relativ break condition  

   TIME   =   0.40     timestep for ELM

  volume/ion in A,a.u.               =      78.67       530.88
  Fermi-wavevector in a.u.,A,eV,Ry     =   0.694264  1.311969  6.558046  0.482003
  Thomas-Fermi vector in A             =   1.776709
 
 Write flags
   LWAVE        =      T    write WAVECAR
   LDOWNSAMPLE  =      F    k-point downsampling of WAVECAR
   LCHARG       =      T    write CHGCAR
   LVTOT        =      F    write LOCPOT, total local potential
   LVHAR        =      F    write LOCPOT, Hartree potential only
   LELF         =      F    write electronic localiz. function (ELF)
   LORBIT       =      0    0 simple, 1 ext, 2 COOP (PROOUT), +10 PAW based schemes


 Dipole corrections
   LMONO  =      F    monopole corrections only (constant potential shift)
   LDIPOL =      F    correct potential (dipole corrections)
   IDIPOL =      0    1-x, 2-y, 3-z, 4-all directions 
   EPSILON=  1.0000000 bulk dielectric constant

 Exchange correlation treatment:
   GGA     =    MK    GGA type
   LEXCH   =    43    internal setting for exchange type
   VOSKOWN=      0    Vosko Wilk Nusair interpolation
   LHFCALC =     F    Hartree Fock is set to
   LHFONE  =     F    Hartree Fock one center treatment
   AEXX    =    0.0000 exact exchange contribution

 vdW DFT:
   LUSE_VDW   =     T    switch on vdW DFT
   Zab_VDW    =******    correlation parameter
   PARAM1     =0.1234
   PARAM2     =0.7114
   PARAM3     =0.0000
   -- rVV10 --
   BPARAM     = 6.3000
   CPARAM     = 0.0093

 Linear response parameters
   LEPSILON=     F    determine dielectric tensor
   LRPA    =     F    only Hartree local field effects (RPA)
   LNABLA  =     F    use nabla operator in PAW spheres
   LVEL    =     F    velocity operator in full k-point grid
   LINTERFAST=   F  fast interpolation
   KINTER  =     0    interpolate to denser k-point grid
   CSHIFT  =0.1000    complex shift for real part using Kramers Kronig
   OMEGAMAX=  -1.0    maximum frequency
   DEG_THRESHOLD= 0.2000000E-02 threshold for treating states as degnerate
   RTIME   =   -0.100 relaxation time in fs
  (WPLASMAI=    0.000 imaginary part of plasma frequency in eV, 0.658/RTIME)
   DFIELD  = 0.0000000 0.0000000 0.0000000 field for delta impulse in time
 
 Orbital magnetization related:
   ORBITALMAG=     F  switch on orbital magnetization
   LCHIMAG   =     F  perturbation theory with respect to B field
   DQ        =  0.001000  dq finite difference perturbation B field
   LLRAUG    =     F  two centre corrections for induced B field



--------------------------------------------------------------------------------------------------------


 Static calculation
 charge density and potential will be updated during run
 non-spin polarized calculation
 Variant of blocked Davidson
 Davidson routine will perform the subspace rotation
 perform sub-space diagonalisation
    after iterative eigenvector-optimisation
 modified Broyden-mixing scheme, WC =      100.0
 initial mixing is a Kerker type mixing with AMIX =  0.4000 and BMIX =      1.0000
 Hartree-type preconditioning will be used
 using additional bands           16
 real space projection scheme for non local part
 use partial core corrections
 calculate Harris-corrections to forces 
   (improved forces if not selfconsistent)
 use gradient corrections 
 use of overlap-Matrix (Vanderbilt PP)
 Fermi weights with tetrahedron method with Bloechl corrections


--------------------------------------------------------------------------------------------------------


  energy-cutoff  :      500.00
  volume of cell :     1888.05
      direct lattice vectors                 reciprocal lattice vectors
    24.009468079  0.000000000  0.000000000     0.041650236  0.000000000  0.000000000
     0.000000000  6.777849674  0.000000000     0.000000000  0.147539419  0.000000000
     0.000000000  0.000000000 11.602143288     0.000000000  0.000000000  0.086190971

  length of vectors
    24.009468079  6.777849674 11.602143288     0.041650236  0.147539419  0.086190971


 
 k-points in units of 2pi/SCALE and weight: k-density: 8.0                          
   0.00000000  0.00000000  0.00000000       0.025
   0.00000000  0.01844243  0.00000000       0.050
   0.00000000  0.03688485  0.00000000       0.050
   0.00000000  0.05532728  0.00000000       0.050
   0.00000000  0.07376971  0.00000000       0.025
   0.00000000  0.00000000  0.01723819       0.050
   0.00000000  0.01844243  0.01723819       0.100
   0.00000000  0.03688485  0.01723819       0.100
   0.00000000  0.05532728  0.01723819       0.100
   0.00000000  0.07376971  0.01723819       0.050
   0.00000000  0.00000000  0.03447639       0.050
   0.00000000  0.01844243  0.03447639       0.100
   0.00000000  0.03688485  0.03447639       0.100
   0.00000000  0.05532728  0.03447639       0.100
   0.00000000  0.07376971  0.03447639       0.050
 
 k-points in reciprocal lattice and weights: k-density: 8.0                          
   0.00000000  0.00000000  0.00000000       0.025
   0.00000000  0.12500000  0.00000000       0.050
   0.00000000  0.25000000  0.00000000       0.050
   0.00000000  0.37500000  0.00000000       0.050
   0.00000000  0.50000000  0.00000000       0.025
   0.00000000  0.00000000  0.20000000       0.050
   0.00000000  0.12500000  0.20000000       0.100
   0.00000000  0.25000000  0.20000000       0.100
   0.00000000  0.37500000  0.20000000       0.100
   0.00000000  0.50000000  0.20000000       0.050
   0.00000000  0.00000000  0.40000000       0.050
   0.00000000  0.12500000  0.40000000       0.100
   0.00000000  0.25000000  0.40000000       0.100
   0.00000000  0.37500000  0.40000000       0.100
   0.00000000  0.50000000  0.40000000       0.050
 
 position of ions in fractional coordinates (direct lattice) 
   0.00569361  0.25000000  0.70376867
   0.38829546  0.75000002  0.29623133
   0.18192962  0.75000002  0.18506402
   0.21205945  0.25000000  0.81493596
   0.05978014  0.75000002  0.91451088
   0.33420893  0.25000000  0.08548910
   0.12784309  0.25000000  0.39687037
   0.26614598  0.75000002  0.60312967
   0.07289913  0.07204576  0.14247741
   0.32108994  0.92795423  0.85752257
   0.11472410  0.92976369  0.65972175
   0.27926497  0.07023630  0.34027826
   0.32108994  0.57204577  0.85752257
   0.07289913  0.42795423  0.14247741
   0.27926497  0.42976369  0.34027826
   0.11472410  0.57023631  0.65972175
   0.03110981  0.75000002  0.59990642
   0.36287926  0.25000000  0.40009358
   0.15651343  0.25000000  0.08035588
   0.23747566  0.75000002  0.91964410
   0.07418398  0.25000000  0.95932608
   0.31980509  0.75000002  0.04067393
   0.11343925  0.75000002  0.47662709
   0.28054982  0.25000000  0.52337283
 
 position of ions in cartesian coordinates  (Angst):
   0.13670066  1.69446242  8.16522492
   9.32276745  5.08338737  3.43691836
   4.36803341  5.08338737  2.14713928
   5.09143467  1.69446242  9.45500377
   1.43528938  5.08338737 10.61028631
   8.02417870  1.69446242  0.99185674
   3.06944466  1.69446242  4.60454694
   6.39002342  5.08338737  6.99759683
   1.75026941  0.48831533  1.65304335
   7.70919867  6.28953429  9.94909970
   2.75446463  6.30179850  7.65418622
   6.70500345  0.47605111  3.94795707
   7.70919867  3.87724022  9.94909970
   1.75026941  2.90060945  1.65304335
   6.70500345  2.91287367  3.94795707
   2.75446463  3.86497601  7.65418622
   0.74692994  5.08338737  6.96020022
   8.71253796  1.69446242  4.64194307
   3.75780416  1.69446242  0.93230043
   5.70166416  5.08338737 10.66984262
   1.78111780  1.69446242 11.13023867
   7.67835016  5.08338737  0.47190480
   2.72361612  5.08338737  5.52989578
   6.73585196  1.69446242  6.07224655
 


--------------------------------------------------------------------------------------------------------


 k-point  1 :   0.0000 0.0000 0.0000  plane waves:   47989
 k-point  2 :   0.0000 0.1250 0.0000  plane waves:   47929
 k-point  3 :   0.0000 0.2500 0.0000  plane waves:   47901
 k-point  4 :   0.0000 0.3750 0.0000  plane waves:   47910
 k-point  5 :   0.0000 0.5000 0.0000  plane waves:   47868
 k-point  6 :   0.0000 0.0000 0.2000  plane waves:   48006
 k-point  7 :   0.0000 0.1250 0.2000  plane waves:   47967
 k-point  8 :   0.0000 0.2500 0.2000  plane waves:   47907
 k-point  9 :   0.0000 0.3750 0.2000  plane waves:   47884
 k-point 10 :   0.0000 0.5000 0.2000  plane waves:   47884
 k-point 11 :   0.0000 0.0000 0.4000  plane waves:   47922
 k-point 12 :   0.0000 0.1250 0.4000  plane waves:   47954
 k-point 13 :   0.0000 0.2500 0.4000  plane waves:   47967
 k-point 14 :   0.0000 0.3750 0.4000  plane waves:   47928
 k-point 15 :   0.0000 0.5000 0.4000  plane waves:   47890

 maximum and minimum number of plane-waves per node :     12077    11868

 maximum number of plane-waves:     48006
 maximum index in each direction: 
   IXMAX=   43   IYMAX=   12   IZMAX=   21
   IXMIN=  -43   IYMIN=  -12   IZMIN=  -21


 real space projection operators:
  total allocation   :       4538.48 KBytes
  max/ min on nodes  :       1137.34       1130.98


 parallel 3D FFT for wavefunctions:
    minimum data exchange during FFTs selected (reduces bandwidth)
 parallel 3D FFT for charge:
    minimum data exchange during FFTs selected (reduces bandwidth)


 total amount of memory used by VASP MPI-rank0    79351. kBytes
=======================================================================

   base      :      30000. kBytes
   nonlr-proj:       2645. kBytes
   fftplans  :       5898. kBytes
   grid      :       8824. kBytes
   one-center:         93. kBytes
   wavefun   :      31891. kBytes
 
     INWAV:  cpu time    0.0000: real time    0.0000
 Broyden mixing: mesh for mixing (old mesh)
   NGX = 87   NGY = 25   NGZ = 43
  (NGX  =280   NGY  = 80   NGZ  =128)
  gives a total of  93525 points

 initial charge density was supplied:
 charge density of overlapping atoms calculated
 number of electron     144.0000000 magnetization 
 keeping initial charge density in first step


--------------------------------------------------------------------------------------------------------


 Maximum index for non-local projection operator          744
 Maximum index for augmentation-charges          603 (set IRDMAX)


--------------------------------------------------------------------------------------------------------


 First call to EWALD:  gamma=   0.143
 Maximum number of real-space cells 2x 5x 3
 Maximum number of reciprocal cells 5x 2x 3

    FEWALD:  cpu time    0.0062: real time    0.0062


--------------------------------------- Iteration      1(   1)  ---------------------------------------


    POTLOK:  cpu time13458.3100: real time13490.1310
    SETDIJ:  cpu time 1130.8910: real time 1133.5551
     EDDAV:  cpu time    2.8300: real time    3.1959
 BZINTS: Fermi energy:  6.778536;144.000000 electrons
         Band energy:-475.735251;  BLOECHL correction: -0.036658
       DOS:  cpu time    0.0109: real time    0.0110
    --------------------------------------------
      LOOP:  cpu time14592.0420: real time14626.8930

 eigenvalue-minimisations  :  2768
 total energy-change (2. order) : 0.1187929E+04  (-0.4764773E+04)
 number of electron     144.0000000 magnetization 
 augmentation part      144.0000000 magnetization 

 Free energy of the ion-electron system (eV)
  ---------------------------------------------------
  alpha Z        PSCENC =       170.45750602
  Ewald energy   TEWEN  =     11144.57092595
  -Hartree energ DENC   =    -17267.41872387
  -exchange      EXHF   =         0.00000000
  -V(xc)+E(xc)   XCENC  =        36.68068044
  PAW double counting   =      3696.57165193    -3386.34934349
  entropy T*S    EENTRO =         0.00000000
  eigenvalues    EBANDS =      -475.73525055
  atomic energy  EATOM  =      7269.15145414
  Solvation  Ediel_sol  =         0.00000000
  ---------------------------------------------------
  free energy    TOTEN  =      1187.92890056 eV

  energy without entropy =     1187.92890056  energy(sigma->0) =     1187.92890056


--------------------------------------------------------------------------------------------------------




--------------------------------------- Iteration      1(   2)  ---------------------------------------


     EDDAV:  cpu time    3.8596: real time    3.9672
 BZINTS: Fermi energy: -1.879140;144.000000 electrons
         Band energy:***********;  BLOECHL correction:  0.000000
       DOS:  cpu time    0.0027: real time    0.0027
    --------------------------------------------
      LOOP:  cpu time    3.8623: real time    3.9700

 eigenvalue-minimisations  :  3880
 total energy-change (2. order) :-0.1113227E+04  (-0.1085460E+04)
 number of electron     144.0000000 magnetization 
 augmentation part      144.0000000 magnetization 

 Free energy of the ion-electron system (eV)
  ---------------------------------------------------
  alpha Z        PSCENC =       170.45750602
  Ewald energy   TEWEN  =     11144.57092595
  -Hartree energ DENC   =    -17267.41872387
  -exchange      EXHF   =         0.00000000
  -V(xc)+E(xc)   XCENC  =        36.68068044
  PAW double counting   =      3696.57165193    -3386.34934349
  entropy T*S    EENTRO =         0.00000000
  eigenvalues    EBANDS =     -1588.96267929
  atomic energy  EATOM  =      7269.15145414
  Solvation  Ediel_sol  =         0.00000000
  ---------------------------------------------------
  free energy    TOTEN  =        74.70147182 eV

  energy without entropy =       74.70147182  energy(sigma->0) =       74.70147182


--------------------------------------------------------------------------------------------------------




--------------------------------------- Iteration      1(   3)  ---------------------------------------


     EDDAV:  cpu time    3.1819: real time    3.2265
 BZINTS: Fermi energy: -3.290323;144.000000 electrons
         Band energy:***********;  BLOECHL correction:  0.000000
       DOS:  cpu time    0.0021: real time    0.0021
    --------------------------------------------
      LOOP:  cpu time    3.1840: real time    3.2287

 eigenvalue-minimisations  :  3216
 total energy-change (2. order) :-0.1676999E+03  (-0.1670428E+03)
 number of electron     144.0000000 magnetization 
 augmentation part      144.0000000 magnetization 

 Free energy of the ion-electron system (eV)
  ---------------------------------------------------
  alpha Z        PSCENC =       170.45750602
  Ewald energy   TEWEN  =     11144.57092595
  -Hartree energ DENC   =    -17267.41872387
  -exchange      EXHF   =         0.00000000
  -V(xc)+E(xc)   XCENC  =        36.68068044
  PAW double counting   =      3696.57165193    -3386.34934349
  entropy T*S    EENTRO =         0.00000000
  eigenvalues    EBANDS =     -1756.66257767
  atomic energy  EATOM  =      7269.15145414
  Solvation  Ediel_sol  =         0.00000000
  ---------------------------------------------------
  free energy    TOTEN  =       -92.99842656 eV

  energy without entropy =      -92.99842656  energy(sigma->0) =      -92.99842656


--------------------------------------------------------------------------------------------------------




--------------------------------------- Iteration      1(   4)  ---------------------------------------


     EDDAV:  cpu time    3.5793: real time    3.5988
 BZINTS: Fermi energy: -3.305510;144.000000 electrons
         Band energy:***********;  BLOECHL correction:  0.000000
       DOS:  cpu time    0.0025: real time    0.0025
    --------------------------------------------
      LOOP:  cpu time    3.5818: real time    3.6013

 eigenvalue-minimisations  :  3736
 total energy-change (2. order) :-0.5949795E+01  (-0.5933121E+01)
 number of electron     144.0000000 magnetization 
 augmentation part      144.0000000 magnetization 

 Free energy of the ion-electron system (eV)
  ---------------------------------------------------
  alpha Z        PSCENC =       170.45750602
  Ewald energy   TEWEN  =     11144.57092595
  -Hartree energ DENC   =    -17267.41872387
  -exchange      EXHF   =         0.00000000
  -V(xc)+E(xc)   XCENC  =        36.68068044
  PAW double counting   =      3696.57165193    -3386.34934349
  entropy T*S    EENTRO =         0.00000000
  eigenvalues    EBANDS =     -1762.61237225
  atomic energy  EATOM  =      7269.15145414
  Solvation  Ediel_sol  =         0.00000000
  ---------------------------------------------------
  free energy    TOTEN  =       -98.94822113 eV

  energy without entropy =      -98.94822113  energy(sigma->0) =      -98.94822113


--------------------------------------------------------------------------------------------------------




--------------------------------------- Iteration      1(   5)  ---------------------------------------


     EDDAV:  cpu time    3.8082: real time    3.8287
 BZINTS: Fermi energy: -3.355194;144.000000 electrons
         Band energy:***********;  BLOECHL correction:  0.000000
       DOS:  cpu time    0.0022: real time    0.0022
    CHARGE:  cpu time    0.1784: real time    0.2010
    MIXING:  cpu time    0.0057: real time    0.0302
    --------------------------------------------
      LOOP:  cpu time    3.9945: real time    4.0621

 eigenvalue-minimisations  :  4160
 total energy-change (2. order) :-0.2725702E+00  (-0.2724858E+00)
 number of electron     143.9999999 magnetization 
 augmentation part      -17.6442389 magnetization 

 Broyden mixing:
  rms(total) = 0.91315E+00    rms(broyden)= 0.91314E+00
  rms(prec ) = 0.11817E+01
  weight for this iteration     100.00

 Free energy of the ion-electron system (eV)
  ---------------------------------------------------
  alpha Z        PSCENC =       170.45750602
  Ewald energy   TEWEN  =     11144.57092595
  -Hartree energ DENC   =    -17267.41872387
  -exchange      EXHF   =         0.00000000
  -V(xc)+E(xc)   XCENC  =        36.68068044
  PAW double counting   =      3696.57165193    -3386.34934349
  entropy T*S    EENTRO =         0.00000000
  eigenvalues    EBANDS =     -1762.88494246
  atomic energy  EATOM  =      7269.15145414
  Solvation  Ediel_sol  =         0.00000000
  ---------------------------------------------------
  free energy    TOTEN  =       -99.22079135 eV

  energy without entropy =      -99.22079135  energy(sigma->0) =      -99.22079135


--------------------------------------------------------------------------------------------------------




--------------------------------------- Iteration      1(   6)  ---------------------------------------


    POTLOK:  cpu time    2.4738: real time    2.4932
    SETDIJ:  cpu time    0.5800: real time    0.5814
     EDDAV:  cpu time    2.9658: real time    2.9729
 BZINTS: Fermi energy: -2.292228;144.000000 electrons
         Band energy:***********;  BLOECHL correction:  0.000000
       DOS:  cpu time    0.0021: real time    0.0021
    CHARGE:  cpu time    0.1683: real time    0.1687
    MIXING:  cpu time    0.0073: real time    0.0074
    --------------------------------------------
      LOOP:  cpu time    6.1974: real time    6.2256

 eigenvalue-minimisations  :  3024
 total energy-change (2. order) : 0.8089265E+01  (-0.2038437E+01)
 number of electron     143.9999999 magnetization 
 augmentation part      -17.5227976 magnetization 

 Broyden mixing:
  rms(total) = 0.46401E+00    rms(broyden)= 0.46401E+00
  rms(prec ) = 0.57971E+00
  weight for this iteration     100.00

 eigenvalues of (default mixing * dielectric matrix)
  average eigenvalue GAMMA=   1.5443
  1.5443

 Free energy of the ion-electron system (eV)
  ---------------------------------------------------
  alpha Z        PSCENC =       170.45750602
  Ewald energy   TEWEN  =     11144.57092595
  -Hartree energ DENC   =    -17357.15376101
  -exchange      EXHF   =         0.00000000
  -V(xc)+E(xc)   XCENC  =        39.41838735
  PAW double counting   =      3727.80781997    -3424.64159983
  entropy T*S    EENTRO =         0.00000000
  eigenvalues    EBANDS =     -1660.74225871
  atomic energy  EATOM  =      7269.15145414
  Solvation  Ediel_sol  =         0.00000000
  ---------------------------------------------------
  free energy    TOTEN  =       -91.13152613 eV

  energy without entropy =      -91.13152613  energy(sigma->0) =      -91.13152613


--------------------------------------------------------------------------------------------------------




--------------------------------------- Iteration      1(   7)  ---------------------------------------


    POTLOK:  cpu time    2.4668: real time    2.4863
    SETDIJ:  cpu time    0.4128: real time    0.4138
     EDDAV:  cpu time    3.3008: real time    3.3085
 BZINTS: Fermi energy: -1.427367;144.000000 electrons
         Band energy:***********;  BLOECHL correction:  0.000000
       DOS:  cpu time    0.0024: real time    0.0024
    CHARGE:  cpu time    0.2044: real time    0.2048
    MIXING:  cpu time    0.0091: real time    0.0091
    --------------------------------------------
      LOOP:  cpu time    6.3962: real time    6.4250

 eigenvalue-minimisations  :  3480
 total energy-change (2. order) : 0.1252945E+01  (-0.9844404E+00)
 number of electron     143.9999999 magnetization 
 augmentation part      -17.5918857 magnetization 

 Broyden mixing:
  rms(total) = 0.24520E+00    rms(broyden)= 0.24520E+00
  rms(prec ) = 0.29357E+00
  weight for this iteration     100.00

 eigenvalues of (default mixing * dielectric matrix)
  average eigenvalue GAMMA=   1.8619
  1.8619  1.8619

 Free energy of the ion-electron system (eV)
  ---------------------------------------------------
  alpha Z        PSCENC =       170.45750602
  Ewald energy   TEWEN  =     11144.57092595
  -Hartree energ DENC   =    -17431.89080849
  -exchange      EXHF   =         0.00000000
  -V(xc)+E(xc)   XCENC  =        41.65213348
  PAW double counting   =      3769.63648361    -3472.18370956
  entropy T*S    EENTRO =         0.00000000
  eigenvalues    EBANDS =     -1581.27256585
  atomic energy  EATOM  =      7269.15145414
  Solvation  Ediel_sol  =         0.00000000
  ---------------------------------------------------
  free energy    TOTEN  =       -89.87858069 eV

  energy without entropy =      -89.87858069  energy(sigma->0) =      -89.87858069


--------------------------------------------------------------------------------------------------------




--------------------------------------- Iteration      1(   8)  ---------------------------------------


    POTLOK:  cpu time    2.4529: real time    2.4707
    SETDIJ:  cpu time    0.1208: real time    0.1211
     EDDAV:  cpu time    3.0458: real time    3.0531
 BZINTS: Fermi energy: -1.298111;144.000000 electrons
         Band energy:***********;  BLOECHL correction:  0.000000
       DOS:  cpu time    0.0031: real time    0.0031
    CHARGE:  cpu time    0.1684: real time    0.1688
    MIXING:  cpu time    0.0060: real time    0.0061
    --------------------------------------------
      LOOP:  cpu time    5.7971: real time    5.8228

 eigenvalue-minimisations  :  3120
 total energy-change (2. order) : 0.2412207E+00  (-0.3530793E+00)
 number of electron     143.9999999 magnetization 
 augmentation part      -17.7120324 magnetization 

 Broyden mixing:
  rms(total) = 0.11609E+00    rms(broyden)= 0.11608E+00
  rms(prec ) = 0.18468E+00
  weight for this iteration     100.00

 eigenvalues of (default mixing * dielectric matrix)
  average eigenvalue GAMMA=   1.6853
  2.6417  1.2071  1.2071

 Free energy of the ion-electron system (eV)
  ---------------------------------------------------
  alpha Z        PSCENC =       170.45750602
  Ewald energy   TEWEN  =     11144.57092595
  -Hartree energ DENC   =    -17464.58329611
  -exchange      EXHF   =         0.00000000
  -V(xc)+E(xc)   XCENC  =        42.57190824
  PAW double counting   =      3817.60685878    -3521.95899932
  entropy T*S    EENTRO =         0.00000000
  eigenvalues    EBANDS =     -1547.45371768
  atomic energy  EATOM  =      7269.15145414
  Solvation  Ediel_sol  =         0.00000000
  ---------------------------------------------------
  free energy    TOTEN  =       -89.63735997 eV

  energy without entropy =      -89.63735997  energy(sigma->0) =      -89.63735997


--------------------------------------------------------------------------------------------------------




--------------------------------------- Iteration      1(   9)  ---------------------------------------


    POTLOK:  cpu time    2.4689: real time    2.4863
    SETDIJ:  cpu time    0.7158: real time    0.7175
     EDDAV:  cpu time    3.0157: real time    3.0229
 BZINTS: Fermi energy: -0.981726;144.000000 electrons
         Band energy:***********;  BLOECHL correction:  0.000000
       DOS:  cpu time    0.0021: real time    0.0021
    CHARGE:  cpu time    0.1723: real time    0.1727
    MIXING:  cpu time    0.0062: real time    0.0063
    --------------------------------------------
      LOOP:  cpu time    6.3810: real time    6.4078

 eigenvalue-minimisations  :  3104
 total energy-change (2. order) : 0.2622297E+00  (-0.1085122E+00)
 number of electron     143.9999999 magnetization 
 augmentation part      -17.6772210 magnetization 

 Broyden mixing:
  rms(total) = 0.53527E-01    rms(broyden)= 0.53526E-01
  rms(prec ) = 0.76120E-01
  weight for this iteration     100.00

 eigenvalues of (default mixing * dielectric matrix)
  average eigenvalue GAMMA=   1.4095
  2.5867  1.2187  1.2187  0.6137

 Free energy of the ion-electron system (eV)
  ---------------------------------------------------
  alpha Z        PSCENC =       170.45750602
  Ewald energy   TEWEN  =     11144.57092595
  -Hartree energ DENC   =    -17502.64069979
  -exchange      EXHF   =         0.00000000
  -V(xc)+E(xc)   XCENC  =        43.47591202
  PAW double counting   =      3827.94520175    -3533.61427996
  entropy T*S    EENTRO =         0.00000000
  eigenvalues    EBANDS =     -1508.72115045
  atomic energy  EATOM  =      7269.15145414
  Solvation  Ediel_sol  =         0.00000000
  ---------------------------------------------------
  free energy    TOTEN  =       -89.37513032 eV

  energy without entropy =      -89.37513032  energy(sigma->0) =      -89.37513032


--------------------------------------------------------------------------------------------------------




--------------------------------------- Iteration      1(  10)  ---------------------------------------


    POTLOK:  cpu time    2.4472: real time    2.4651
    SETDIJ:  cpu time    0.0467: real time    0.0468
     EDDAV:  cpu time    3.3487: real time    3.3569
 BZINTS: Fermi energy: -0.853332;144.000000 electrons
         Band energy:***********;  BLOECHL correction:  0.000000
       DOS:  cpu time    0.0024: real time    0.0024
    CHARGE:  cpu time    0.1651: real time    0.1655
    MIXING:  cpu time    0.0055: real time    0.0056
    --------------------------------------------
      LOOP:  cpu time    6.0157: real time    6.0423

 eigenvalue-minimisations  :  3592
 total energy-change (2. order) : 0.1326244E-01  (-0.2400306E-01)
 number of electron     143.9999999 magnetization 
 augmentation part      -17.6894044 magnetization 

 Broyden mixing:
  rms(total) = 0.40445E-01    rms(broyden)= 0.40445E-01
  rms(prec ) = 0.59876E-01
  weight for this iteration     100.00

 eigenvalues of (default mixing * dielectric matrix)
  average eigenvalue GAMMA=   1.5773
  2.4167  2.4167  1.1641  0.9444  0.9444

 Free energy of the ion-electron system (eV)
  ---------------------------------------------------
  alpha Z        PSCENC =       170.45750602
  Ewald energy   TEWEN  =     11144.57092595
  -Hartree energ DENC   =    -17511.45308584
  -exchange      EXHF   =         0.00000000
  -V(xc)+E(xc)   XCENC  =        43.51261022
  PAW double counting   =      3823.23616199    -3528.62937178
  entropy T*S    EENTRO =         0.00000000
  eigenvalues    EBANDS =     -1500.20806858
  atomic energy  EATOM  =      7269.15145414
  Solvation  Ediel_sol  =         0.00000000
  ---------------------------------------------------
  free energy    TOTEN  =       -89.36186788 eV

  energy without entropy =      -89.36186788  energy(sigma->0) =      -89.36186788


--------------------------------------------------------------------------------------------------------




--------------------------------------- Iteration      1(  11)  ---------------------------------------


    POTLOK:  cpu time    2.4627: real time    2.4799
    SETDIJ:  cpu time    0.8366: real time    0.8385
     EDDAV:  cpu time    3.0843: real time    3.0916
 BZINTS: Fermi energy: -0.835249;144.000000 electrons
         Band energy:***********;  BLOECHL correction:  0.000000
       DOS:  cpu time    0.0028: real time    0.0028
    CHARGE:  cpu time    0.1773: real time    0.1777
    MIXING:  cpu time    0.0063: real time    0.0064
    --------------------------------------------
      LOOP:  cpu time    6.5700: real time    6.5970

 eigenvalue-minimisations  :  3200
 total energy-change (2. order) : 0.6250339E-01  (-0.6824911E-02)
 number of electron     143.9999999 magnetization 
 augmentation part      -17.6971768 magnetization 

 Broyden mixing:
  rms(total) = 0.15134E-01    rms(broyden)= 0.15133E-01
  rms(prec ) = 0.29860E-01
  weight for this iteration     100.00

 eigenvalues of (default mixing * dielectric matrix)
  average eigenvalue GAMMA=   1.6011
  2.7865  2.7865  1.1679  0.9970  0.9344  0.9344

 Free energy of the ion-electron system (eV)
  ---------------------------------------------------
  alpha Z        PSCENC =       170.45750602
  Ewald energy   TEWEN  =     11144.57092595
  -Hartree energ DENC   =    -17527.04436906
  -exchange      EXHF   =         0.00000000
  -V(xc)+E(xc)   XCENC  =        43.69461882
  PAW double counting   =      3824.08874712    -3529.18848263
  entropy T*S    EENTRO =         0.00000000
  eigenvalues    EBANDS =     -1485.02976485
  atomic energy  EATOM  =      7269.15145414
  Solvation  Ediel_sol  =         0.00000000
  ---------------------------------------------------
  free energy    TOTEN  =       -89.29936448 eV

  energy without entropy =      -89.29936448  energy(sigma->0) =      -89.29936448


--------------------------------------------------------------------------------------------------------




--------------------------------------- Iteration      1(  12)  ---------------------------------------


    POTLOK:  cpu time    2.4693: real time    2.4872
    SETDIJ:  cpu time    0.7030: real time    0.7047
     EDDAV:  cpu time    3.2646: real time    3.2723
 BZINTS: Fermi energy: -0.770367;144.000000 electrons
         Band energy:***********;  BLOECHL correction:  0.000000
       DOS:  cpu time    0.0027: real time    0.0027
    CHARGE:  cpu time    0.1683: real time    0.1687
    MIXING:  cpu time    0.0078: real time    0.0079
    --------------------------------------------
      LOOP:  cpu time    6.6157: real time    6.6435

 eigenvalue-minimisations  :  3400
 total energy-change (2. order) :-0.1242837E-03  (-0.1377523E-02)
 number of electron     143.9999999 magnetization 
 augmentation part      -17.6927719 magnetization 

 Broyden mixing:
  rms(total) = 0.11340E-01    rms(broyden)= 0.11340E-01
  rms(prec ) = 0.19455E-01
  weight for this iteration     100.00

 eigenvalues of (default mixing * dielectric matrix)
  average eigenvalue GAMMA=   1.7106
  3.3723  2.6242  1.9747  1.1185  1.1185  0.8829  0.8829

 Free energy of the ion-electron system (eV)
  ---------------------------------------------------
  alpha Z        PSCENC =       170.45750602
  Ewald energy   TEWEN  =     11144.57092595
  -Hartree energ DENC   =    -17537.77991137
  -exchange      EXHF   =         0.00000000
  -V(xc)+E(xc)   XCENC  =        43.73474743
  PAW double counting   =      3821.75721200    -3526.68868249
  entropy T*S    EENTRO =         0.00000000
  eigenvalues    EBANDS =     -1474.50274045
  atomic energy  EATOM  =      7269.15145414
  Solvation  Ediel_sol  =         0.00000000
  ---------------------------------------------------
  free energy    TOTEN  =       -89.29948877 eV

  energy without entropy =      -89.29948877  energy(sigma->0) =      -89.29948877


--------------------------------------------------------------------------------------------------------




--------------------------------------- Iteration      1(  13)  ---------------------------------------


    POTLOK:  cpu time    2.4747: real time    2.4918
    SETDIJ:  cpu time    0.6659: real time    0.6674
     EDDAV:  cpu time    3.2032: real time    3.2108
 BZINTS: Fermi energy: -0.638879;144.000000 electrons
         Band energy:***********;  BLOECHL correction:  0.000000
       DOS:  cpu time    0.0023: real time    0.0024
    CHARGE:  cpu time    0.1698: real time    0.1702
    MIXING:  cpu time    0.0075: real time    0.0075
    --------------------------------------------
      LOOP:  cpu time    6.5234: real time    6.5501

 eigenvalue-minimisations  :  3376
 total energy-change (2. order) : 0.2166739E-02  (-0.7139089E-03)
 number of electron     143.9999999 magnetization 
 augmentation part      -17.6934474 magnetization 

 Broyden mixing:
  rms(total) = 0.58669E-02    rms(broyden)= 0.58669E-02
  rms(prec ) = 0.10431E-01
  weight for this iteration     100.00

 eigenvalues of (default mixing * dielectric matrix)
  average eigenvalue GAMMA=   1.7820
  3.9649  2.8358  2.4087  1.2094  1.2094  0.8904  0.8688  0.8688

 Free energy of the ion-electron system (eV)
  ---------------------------------------------------
  alpha Z        PSCENC =       170.45750602
  Ewald energy   TEWEN  =     11144.57092595
  -Hartree energ DENC   =    -17546.34487814
  -exchange      EXHF   =         0.00000000
  -V(xc)+E(xc)   XCENC  =        43.78490827
  PAW double counting   =      3820.36122597    -3525.39220201
  entropy T*S    EENTRO =         0.00000000
  eigenvalues    EBANDS =     -1465.88626223
  atomic energy  EATOM  =      7269.15145414
  Solvation  Ediel_sol  =         0.00000000
  ---------------------------------------------------
  free energy    TOTEN  =       -89.29732203 eV

  energy without entropy =      -89.29732203  energy(sigma->0) =      -89.29732203


--------------------------------------------------------------------------------------------------------




--------------------------------------- Iteration      1(  14)  ---------------------------------------


    POTLOK:  cpu time    2.4366: real time    2.4534
    SETDIJ:  cpu time    0.1219: real time    0.1221
     EDDAV:  cpu time    2.8808: real time    2.8877
 BZINTS: Fermi energy: -0.619195;144.000000 electrons
         Band energy:***********;  BLOECHL correction:  0.000000
       DOS:  cpu time    0.0022: real time    0.0022
    CHARGE:  cpu time    0.1593: real time    0.1597
    MIXING:  cpu time    0.0065: real time    0.0066
    --------------------------------------------
      LOOP:  cpu time    5.6073: real time    5.6316

 eigenvalue-minimisations  :  2952
 total energy-change (2. order) : 0.4510934E-02  (-0.2608931E-03)
 number of electron     143.9999999 magnetization 
 augmentation part      -17.6943105 magnetization 

 Broyden mixing:
  rms(total) = 0.46420E-02    rms(broyden)= 0.46420E-02
  rms(prec ) = 0.75469E-02
  weight for this iteration     100.00

 eigenvalues of (default mixing * dielectric matrix)
  average eigenvalue GAMMA=   1.8408
  4.5540  3.0296  2.1105  1.7068  0.8874  0.8874  1.1750  1.1750  1.0414

 Free energy of the ion-electron system (eV)
  ---------------------------------------------------
  alpha Z        PSCENC =       170.45750602
  Ewald energy   TEWEN  =     11144.57092595
  -Hartree energ DENC   =    -17549.82588225
  -exchange      EXHF   =         0.00000000
  -V(xc)+E(xc)   XCENC  =        43.79414877
  PAW double counting   =      3819.67070960    -3524.71137579
  entropy T*S    EENTRO =         0.00000000
  eigenvalues    EBANDS =     -1462.40029754
  atomic energy  EATOM  =      7269.15145414
  Solvation  Ediel_sol  =         0.00000000
  ---------------------------------------------------
  free energy    TOTEN  =       -89.29281110 eV

  energy without entropy =      -89.29281110  energy(sigma->0) =      -89.29281110


--------------------------------------------------------------------------------------------------------




--------------------------------------- Iteration      1(  15)  ---------------------------------------


    POTLOK:  cpu time    2.4490: real time    2.4664
    SETDIJ:  cpu time    0.2941: real time    0.2948
     EDDAV:  cpu time    2.7989: real time    2.8055
 BZINTS: Fermi energy: -0.604189;144.000000 electrons
         Band energy:***********;  BLOECHL correction:  0.000000
       DOS:  cpu time    0.0025: real time    0.0025
    CHARGE:  cpu time    0.1722: real time    0.1726
    MIXING:  cpu time    0.0076: real time    0.0077
    --------------------------------------------
      LOOP:  cpu time    5.7244: real time    5.7496

 eigenvalue-minimisations  :  2864
 total energy-change (2. order) : 0.1529622E-03  (-0.2644621E-03)
 number of electron     143.9999999 magnetization 
 augmentation part      -17.6955771 magnetization 

 Broyden mixing:
  rms(total) = 0.18552E-02    rms(broyden)= 0.18552E-02
  rms(prec ) = 0.36987E-02
  weight for this iteration     100.00

 eigenvalues of (default mixing * dielectric matrix)
  average eigenvalue GAMMA=   1.9320
  5.3991  3.2199  2.5812  1.7790  0.8866  0.8866  1.2638  1.2638  1.0198  1.0198

 Free energy of the ion-electron system (eV)
  ---------------------------------------------------
  alpha Z        PSCENC =       170.45750602
  Ewald energy   TEWEN  =     11144.57092595
  -Hartree energ DENC   =    -17551.91675751
  -exchange      EXHF   =         0.00000000
  -V(xc)+E(xc)   XCENC  =        43.79087128
  PAW double counting   =      3820.08449908    -3525.10122904
  entropy T*S    EENTRO =         0.00000000
  eigenvalues    EBANDS =     -1460.32992805
  atomic energy  EATOM  =      7269.15145414
  Solvation  Ediel_sol  =         0.00000000
  ---------------------------------------------------
  free energy    TOTEN  =       -89.29265813 eV

  energy without entropy =      -89.29265813  energy(sigma->0) =      -89.29265813


--------------------------------------------------------------------------------------------------------




--------------------------------------- Iteration      1(  16)  ---------------------------------------


    POTLOK:  cpu time    2.4524: real time    2.4689
    SETDIJ:  cpu time    0.6362: real time    0.6379
     EDDAV:  cpu time    2.9981: real time    3.0052
 BZINTS: Fermi energy: -0.593115;144.000000 electrons
         Band energy:***********;  BLOECHL correction:  0.000000
       DOS:  cpu time    0.0023: real time    0.0023
    CHARGE:  cpu time    0.1725: real time    0.1730
    MIXING:  cpu time    0.0072: real time    0.0072
    --------------------------------------------
      LOOP:  cpu time    6.2687: real time    6.2946

 eigenvalue-minimisations  :  3072
 total energy-change (2. order) : 0.3147135E-03  (-0.1650134E-03)
 number of electron     143.9999999 magnetization 
 augmentation part      -17.6953521 magnetization 

 Broyden mixing:
  rms(total) = 0.13636E-02    rms(broyden)= 0.13636E-02
  rms(prec ) = 0.25225E-02
  weight for this iteration     100.00

 eigenvalues of (default mixing * dielectric matrix)
  average eigenvalue GAMMA=   2.0006
  5.8133  3.5818  2.5079  2.1629  0.8887  0.8887  1.5463  1.3003  1.3003  0.9931
  1.0238

 Free energy of the ion-electron system (eV)
  ---------------------------------------------------
  alpha Z        PSCENC =       170.45750602
  Ewald energy   TEWEN  =     11144.57092595
  -Hartree energ DENC   =    -17553.55778797
  -exchange      EXHF   =         0.00000000
  -V(xc)+E(xc)   XCENC  =        43.79436778
  PAW double counting   =      3820.31278016    -3525.34285754
  entropy T*S    EENTRO =         0.00000000
  eigenvalues    EBANDS =     -1458.67873197
  atomic energy  EATOM  =      7269.15145414
  Solvation  Ediel_sol  =         0.00000000
  ---------------------------------------------------
  free energy    TOTEN  =       -89.29234342 eV

  energy without entropy =      -89.29234342  energy(sigma->0) =      -89.29234342


--------------------------------------------------------------------------------------------------------




--------------------------------------- Iteration      1(  17)  ---------------------------------------


    POTLOK:  cpu time    2.4675: real time    2.4838
    SETDIJ:  cpu time    0.1147: real time    0.1149
     EDDAV:  cpu time    2.8587: real time    2.8655
 BZINTS: Fermi energy: -0.585110;144.000000 electrons
         Band energy:***********;  BLOECHL correction:  0.000000
       DOS:  cpu time    0.0026: real time    0.0026
    CHARGE:  cpu time    0.1771: real time    0.1775
    MIXING:  cpu time    0.0090: real time    0.0091
    --------------------------------------------
      LOOP:  cpu time    5.6296: real time    5.6534

 eigenvalue-minimisations  :  2912
 total energy-change (2. order) : 0.4063334E-03  (-0.8806352E-04)
 number of electron     143.9999999 magnetization 
 augmentation part      -17.6952993 magnetization 

 Broyden mixing:
  rms(total) = 0.79955E-03    rms(broyden)= 0.79955E-03
  rms(prec ) = 0.15175E-02
  weight for this iteration     100.00

 eigenvalues of (default mixing * dielectric matrix)
  average eigenvalue GAMMA=   2.0256
  6.2484  3.7471  2.7715  2.2979  1.4890  1.4890  0.8879  0.8879  0.9709  1.2341
  1.1417  1.1417

 Free energy of the ion-electron system (eV)
  ---------------------------------------------------
  alpha Z        PSCENC =       170.45750602
  Ewald energy   TEWEN  =     11144.57092595
  -Hartree energ DENC   =    -17554.73190769
  -exchange      EXHF   =         0.00000000
  -V(xc)+E(xc)   XCENC  =        43.79854198
  PAW double counting   =      3820.33056267    -3525.35702450
  entropy T*S    EENTRO =         0.00000000
  eigenvalues    EBANDS =     -1457.51199566
  atomic energy  EATOM  =      7269.15145414
  Solvation  Ediel_sol  =         0.00000000
  ---------------------------------------------------
  free energy    TOTEN  =       -89.29193709 eV

  energy without entropy =      -89.29193709  energy(sigma->0) =      -89.29193709


--------------------------------------------------------------------------------------------------------




--------------------------------------- Iteration      1(  18)  ---------------------------------------


    POTLOK:  cpu time    2.4446: real time    2.4614
    SETDIJ:  cpu time    0.6314: real time    0.6329
     EDDAV:  cpu time    2.7185: real time    2.7250
 BZINTS: Fermi energy: -0.582698;144.000000 electrons
         Band energy:***********;  BLOECHL correction:  0.000000
       DOS:  cpu time    0.0023: real time    0.0023
    CHARGE:  cpu time    0.1721: real time    0.1725
    MIXING:  cpu time    0.0079: real time    0.0079
    --------------------------------------------
      LOOP:  cpu time    5.9768: real time    6.0021

 eigenvalue-minimisations  :  2656
 total energy-change (2. order) :-0.7961445E-03  (-0.2420994E-04)
 number of electron     143.9999999 magnetization 
 augmentation part      -17.6953049 magnetization 

 Broyden mixing:
  rms(total) = 0.54009E-03    rms(broyden)= 0.54009E-03
  rms(prec ) = 0.91377E-03
  weight for this iteration     100.00

 eigenvalues of (default mixing * dielectric matrix)
  average eigenvalue GAMMA=   2.1120
  6.6818  4.4127  2.7665  2.7665  1.9893  0.8877  0.8877  1.3668  1.3668  1.1932
  1.1932  0.9716  0.9716

 Free energy of the ion-electron system (eV)
  ---------------------------------------------------
  alpha Z        PSCENC =       170.45750602
  Ewald energy   TEWEN  =     11144.57092595
  -Hartree energ DENC   =    -17555.34260572
  -exchange      EXHF   =         0.00000000
  -V(xc)+E(xc)   XCENC  =        43.80073945
  PAW double counting   =      3820.29231902    -3525.31694282
  entropy T*S    EENTRO =         0.00000000
  eigenvalues    EBANDS =     -1456.90612928
  atomic energy  EATOM  =      7269.15145414
  Solvation  Ediel_sol  =         0.00000000
  ---------------------------------------------------
  free energy    TOTEN  =       -89.29273323 eV

  energy without entropy =      -89.29273323  energy(sigma->0) =      -89.29273323


--------------------------------------------------------------------------------------------------------




--------------------------------------- Iteration      1(  19)  ---------------------------------------


    POTLOK:  cpu time    2.4619: real time    2.4786
    SETDIJ:  cpu time    0.6947: real time    0.6963
     EDDAV:  cpu time    2.6428: real time    2.6516
 BZINTS: Fermi energy: -0.583544;144.000000 electrons
         Band energy:***********;  BLOECHL correction:  0.000000
       DOS:  cpu time    0.0023: real time    0.0023
    CHARGE:  cpu time    0.2044: real time    0.2049
    MIXING:  cpu time    0.0075: real time    0.0075
    --------------------------------------------
      LOOP:  cpu time    6.0136: real time    6.0412

 eigenvalue-minimisations  :  2616
 total energy-change (2. order) :-0.7004705E-03  (-0.2097780E-04)
 number of electron     143.9999999 magnetization 
 augmentation part      -17.6954906 magnetization 

 Broyden mixing:
  rms(total) = 0.42778E-03    rms(broyden)= 0.42778E-03
  rms(prec ) = 0.63830E-03
  weight for this iteration     100.00

 eigenvalues of (default mixing * dielectric matrix)
  average eigenvalue GAMMA=   2.2086
  7.1577  5.2493  2.9234  2.9234  2.0522  1.6725  1.6725  0.8878  0.8878  1.2621
  1.2621  1.0118  1.0118  0.9461

 Free energy of the ion-electron system (eV)
  ---------------------------------------------------
  alpha Z        PSCENC =       170.45750602
  Ewald energy   TEWEN  =     11144.57092595
  -Hartree energ DENC   =    -17555.47360856
  -exchange      EXHF   =         0.00000000
  -V(xc)+E(xc)   XCENC  =        43.79906730
  PAW double counting   =      3820.21251177    -3525.23553341
  entropy T*S    EENTRO =         0.00000000
  eigenvalues    EBANDS =     -1456.77575691
  atomic energy  EATOM  =      7269.15145414
  Solvation  Ediel_sol  =         0.00000000
  ---------------------------------------------------
  free energy    TOTEN  =       -89.29343370 eV

  energy without entropy =      -89.29343370  energy(sigma->0) =      -89.29343370


--------------------------------------------------------------------------------------------------------




--------------------------------------- Iteration      1(  20)  ---------------------------------------


    POTLOK:  cpu time    2.4599: real time    2.4777
    SETDIJ:  cpu time    0.1037: real time    0.1040
     EDDAV:  cpu time    2.7191: real time    2.7255
 BZINTS: Fermi energy: -0.584687;144.000000 electrons
         Band energy:***********;  BLOECHL correction:  0.000000
       DOS:  cpu time    0.0026: real time    0.0026
    CHARGE:  cpu time    0.1671: real time    0.1675
    MIXING:  cpu time    0.0098: real time    0.0098
    --------------------------------------------
      LOOP:  cpu time    5.4622: real time    5.4872

 eigenvalue-minimisations  :  2720
 total energy-change (2. order) :-0.2869906E-03  (-0.8784377E-05)
 number of electron     143.9999999 magnetization 
 augmentation part      -17.6955582 magnetization 

 Broyden mixing:
  rms(total) = 0.19876E-03    rms(broyden)= 0.19876E-03
  rms(prec ) = 0.30096E-03
  weight for this iteration     100.00

 eigenvalues of (default mixing * dielectric matrix)
  average eigenvalue GAMMA=   2.3186
  7.8873  6.4635  3.1123  3.1123  2.5252  0.8878  0.8878  1.5578  1.5578  1.2930
  1.2930  0.9623  0.9623  1.1384  1.1384

 Free energy of the ion-electron system (eV)
  ---------------------------------------------------
  alpha Z        PSCENC =       170.45750602
  Ewald energy   TEWEN  =     11144.57092595
  -Hartree energ DENC   =    -17555.48571767
  -exchange      EXHF   =         0.00000000
  -V(xc)+E(xc)   XCENC  =        43.79879685
  PAW double counting   =      3820.22752379    -3525.24998034
  entropy T*S    EENTRO =         0.00000000
  eigenvalues    EBANDS =     -1456.76422942
  atomic energy  EATOM  =      7269.15145414
  Solvation  Ediel_sol  =         0.00000000
  ---------------------------------------------------
  free energy    TOTEN  =       -89.29372069 eV

  energy without entropy =      -89.29372069  energy(sigma->0) =      -89.29372069


--------------------------------------------------------------------------------------------------------




--------------------------------------- Iteration      1(  21)  ---------------------------------------


    POTLOK:  cpu time    2.4576: real time    2.4751
    SETDIJ:  cpu time    0.1084: real time    0.1087
     EDDAV:  cpu time    2.5069: real time    2.5129
 BZINTS: Fermi energy: -0.586471;144.000000 electrons
         Band energy:***********;  BLOECHL correction:  0.000000
       DOS:  cpu time    0.0029: real time    0.0029
    CHARGE:  cpu time    0.1745: real time    0.1749
    MIXING:  cpu time    0.0067: real time    0.0067
    --------------------------------------------
      LOOP:  cpu time    5.2569: real time    5.2812

 eigenvalue-minimisations  :  2400
 total energy-change (2. order) :-0.1128756E-03  (-0.2868708E-05)
 number of electron     143.9999999 magnetization 
 augmentation part      -17.6955443 magnetization 

 Broyden mixing:
  rms(total) = 0.10374E-03    rms(broyden)= 0.10374E-03
  rms(prec ) = 0.12790E-03
  weight for this iteration     100.00

 eigenvalues of (default mixing * dielectric matrix)
  average eigenvalue GAMMA=   2.3485
  8.6931  6.5781  3.1967  3.1967  2.4361  1.8957  1.8957  0.8878  0.8878  1.2949
  1.2949  1.2094  1.0944  1.0944  0.9602  0.9602

 Free energy of the ion-electron system (eV)
  ---------------------------------------------------
  alpha Z        PSCENC =       170.45750602
  Ewald energy   TEWEN  =     11144.57092595
  -Hartree energ DENC   =    -17555.38801006
  -exchange      EXHF   =         0.00000000
  -V(xc)+E(xc)   XCENC  =        43.79774789
  PAW double counting   =      3820.23389348    -3525.25730379
  entropy T*S    EENTRO =         0.00000000
  eigenvalues    EBANDS =     -1456.86004720
  atomic energy  EATOM  =      7269.15145414
  Solvation  Ediel_sol  =         0.00000000
  ---------------------------------------------------
  free energy    TOTEN  =       -89.29383357 eV

  energy without entropy =      -89.29383357  energy(sigma->0) =      -89.29383357


--------------------------------------------------------------------------------------------------------




--------------------------------------- Iteration      1(  22)  ---------------------------------------


    POTLOK:  cpu time    2.4516: real time    2.4697
    SETDIJ:  cpu time    0.4313: real time    0.4323
     EDDAV:  cpu time    2.4987: real time    2.5046
 BZINTS: Fermi energy: -0.587327;144.000000 electrons
         Band energy:***********;  BLOECHL correction:  0.000000
       DOS:  cpu time    0.0023: real time    0.0023
    CHARGE:  cpu time    0.1751: real time    0.1755
    MIXING:  cpu time    0.0101: real time    0.0101
    --------------------------------------------
      LOOP:  cpu time    5.5691: real time    5.5946

 eigenvalue-minimisations  :  2440
 total energy-change (2. order) :-0.1784069E-04  (-0.2597164E-06)
 number of electron     143.9999999 magnetization 
 augmentation part      -17.6955087 magnetization 

 Broyden mixing:
  rms(total) = 0.62020E-04    rms(broyden)= 0.62019E-04
  rms(prec ) = 0.80570E-04
  weight for this iteration     100.00

 eigenvalues of (default mixing * dielectric matrix)
  average eigenvalue GAMMA=   2.3227
  8.8161  6.9115  3.2590  3.2590  2.6026  1.9172  1.9172  0.8879  0.8879  1.4285
  1.2456  1.2456  0.9562  0.9562  1.0628  1.0662  1.0662

 Free energy of the ion-electron system (eV)
  ---------------------------------------------------
  alpha Z        PSCENC =       170.45750602
  Ewald energy   TEWEN  =     11144.57092595
  -Hartree energ DENC   =    -17555.40262995
  -exchange      EXHF   =         0.00000000
  -V(xc)+E(xc)   XCENC  =        43.79763862
  PAW double counting   =      3820.21960156    -3525.24261286
  entropy T*S    EENTRO =         0.00000000
  eigenvalues    EBANDS =     -1456.84573488
  atomic energy  EATOM  =      7269.15145414
  Solvation  Ediel_sol  =         0.00000000
  ---------------------------------------------------
  free energy    TOTEN  =       -89.29385141 eV

  energy without entropy =      -89.29385141  energy(sigma->0) =      -89.29385141


--------------------------------------------------------------------------------------------------------




--------------------------------------- Iteration      1(  23)  ---------------------------------------


    POTLOK:  cpu time    2.4805: real time    2.4969
    SETDIJ:  cpu time    0.6519: real time    0.6534
     EDDAV:  cpu time    2.1418: real time    2.1469
 BZINTS: Fermi energy: -0.588326;144.000000 electrons
         Band energy:***********;  BLOECHL correction:  0.000000
       DOS:  cpu time    0.0023: real time    0.0024
    CHARGE:  cpu time    0.1748: real time    0.1752
    MIXING:  cpu time    0.0088: real time    0.0088
    --------------------------------------------
      LOOP:  cpu time    5.4601: real time    5.4836

 eigenvalue-minimisations  :  1952
 total energy-change (2. order) :-0.4849054E-05  (-0.5493819E-07)
 number of electron     143.9999999 magnetization 
 augmentation part      -17.6955069 magnetization 

 Broyden mixing:
  rms(total) = 0.34084E-04    rms(broyden)= 0.34084E-04
  rms(prec ) = 0.47062E-04
  weight for this iteration     100.00

 eigenvalues of (default mixing * dielectric matrix)
  average eigenvalue GAMMA=   2.3267
  8.8861  7.0331  3.3651  3.3651  2.6857  2.0218  1.9228  1.9228  0.8878  0.8878
  1.2565  1.2565  1.2747  1.1010  1.1010  0.9577  0.9577  0.9977

 Free energy of the ion-electron system (eV)
  ---------------------------------------------------
  alpha Z        PSCENC =       170.45750602
  Ewald energy   TEWEN  =     11144.57092595
  -Hartree energ DENC   =    -17555.38453994
  -exchange      EXHF   =         0.00000000
  -V(xc)+E(xc)   XCENC  =        43.79748378
  PAW double counting   =      3820.22050229    -3525.24370694
  entropy T*S    EENTRO =         0.00000000
  eigenvalues    EBANDS =     -1456.86348156
  atomic energy  EATOM  =      7269.15145414
  Solvation  Ediel_sol  =         0.00000000
  ---------------------------------------------------
  free energy    TOTEN  =       -89.29385626 eV

  energy without entropy =      -89.29385626  energy(sigma->0) =      -89.29385626


--------------------------------------------------------------------------------------------------------




--------------------------------------- Iteration      1(  24)  ---------------------------------------


    POTLOK:  cpu time    2.4746: real time    2.4913
    SETDIJ:  cpu time    0.1244: real time    0.1247
     EDDAV:  cpu time    2.0954: real time    2.1004
 BZINTS: Fermi energy: -0.589104;144.000000 electrons
         Band energy:***********;  BLOECHL correction:  0.000000
       DOS:  cpu time    0.0025: real time    0.0025
    CHARGE:  cpu time    0.1956: real time    0.1961
    MIXING:  cpu time    0.0088: real time    0.0088
    --------------------------------------------
      LOOP:  cpu time    4.9013: real time    4.9238

 eigenvalue-minimisations  :  1960
 total energy-change (2. order) :-0.1113101E-05  (-0.2751554E-07)
 number of electron     143.9999999 magnetization 
 augmentation part      -17.6955065 magnetization 

 Broyden mixing:
  rms(total) = 0.15676E-04    rms(broyden)= 0.15676E-04
  rms(prec ) = 0.23864E-04
  weight for this iteration     100.00

 eigenvalues of (default mixing * dielectric matrix)
  average eigenvalue GAMMA=   2.3074
  8.8149  7.1280  3.4482  3.4482  2.8972  2.1860  2.1860  1.8616  0.8878  0.8878
  1.2508  1.2508  1.2519  1.2519  1.0912  1.0912  0.9624  0.9624  0.9828

 Free energy of the ion-electron system (eV)
  ---------------------------------------------------
  alpha Z        PSCENC =       170.45750602
[...]
      7     -28.2060      2.00000
      8     -28.2056      2.00000
      9     -14.9487      2.00000
     10     -14.9485      2.00000
     11     -14.8857      2.00000
     12     -14.8856      2.00000
     13     -14.8183      2.00000
     14     -14.8183      2.00000
     15     -14.1096      2.00000
     16     -14.1086      2.00000
     17     -14.0980      2.00000
     18     -14.0924      2.00000
     19     -14.0416      2.00000
     20     -14.0407      2.00000
     21     -13.9922      2.00000
     22     -13.9844      2.00000
     23     -13.9428      2.00000
     24     -13.9409      2.00000
     25     -13.9397      2.00000
     26     -13.9382      2.00000
     27     -13.5368      2.00000
     28     -13.5296      2.00000
     29     -13.4826      2.00000
     30     -13.4750      2.00000
     31     -13.4599      2.00000
     32     -13.4571      2.00000
     33     -11.0330      2.00000
     34     -11.0243      2.00000
     35     -10.7280      2.00000
     36     -10.7149      2.00000
     37      -6.4971      2.00000
     38      -6.4845      2.00000
     39      -6.2520      2.00000
     40      -6.2391      2.00000
     41      -6.1618      2.00000
     42      -6.1586      2.00000
     43      -5.9713      2.00000
     44      -5.9577      2.00000
     45      -5.9140      2.00000
     46      -5.8761      2.00000
     47      -5.8393      2.00000
     48      -5.7313      2.00000
     49      -2.8383      2.00000
     50      -2.7537      2.00000
     51      -2.6296      2.00000
     52      -2.5867      2.00000
     53      -2.2595      2.00000
     54      -2.1889      2.00000
     55      -2.1749      2.00000
     56      -2.1437      2.00000
     57      -2.0180      2.00000
     58      -1.9959      2.00000
     59      -1.8760      2.00000
     60      -1.8026      2.00000
     61      -1.7427      2.00000
     62      -1.6534      2.00000
     63      -1.5457      2.00000
     64      -1.5075      2.00000
     65      -1.3630      2.00000
     66      -1.3012      2.00000
     67      -1.2537      2.00000
     68      -1.1191      2.00000
     69      -1.0249      2.00000
     70      -0.9784      2.00000
     71      -0.9209      2.00000
     72      -0.8695      2.00000
     73       0.1970      0.00000
     74       0.2366      0.00000
     75       0.3953      0.00000
     76       0.4410      0.00000
     77       0.5541      0.00000
     78       0.6172      0.00000
     79       0.7570      0.00000
     80       0.7772      0.00000
     81       0.8337      0.00000
     82       0.8736      0.00000
     83       1.0241      0.00000
     84       1.0524      0.00000
     85       1.1691      0.00000
     86       1.3063      0.00000
     87       1.4042      0.00000
     88       1.5204      0.00000

 k-point    15 :       0.0000    0.5000    0.4000
  band No.  band energies     occupation 
      1     -29.6316      2.00000
      2     -29.6316      2.00000
      3     -28.7632      2.00000
      4     -28.7632      2.00000
      5     -28.6946      2.00000
      6     -28.6946      2.00000
      7     -28.2058      2.00000
      8     -28.2058      2.00000
      9     -14.9482      2.00000
     10     -14.9481      2.00000
     11     -14.8864      2.00000
     12     -14.8864      2.00000
     13     -14.8203      2.00000
     14     -14.8203      2.00000
     15     -14.1089      2.00000
     16     -14.1089      2.00000
     17     -14.0955      2.00000
     18     -14.0955      2.00000
     19     -14.0436      2.00000
     20     -14.0435      2.00000
     21     -13.9898      2.00000
     22     -13.9898      2.00000
     23     -13.9434      2.00000
     24     -13.9434      2.00000
     25     -13.9386      2.00000
     26     -13.9386      2.00000
     27     -13.5328      2.00000
     28     -13.5328      2.00000
     29     -13.4797      2.00000
     30     -13.4797      2.00000
     31     -13.4575      2.00000
     32     -13.4575      2.00000
     33     -11.0228      2.00000
     34     -11.0227      2.00000
     35     -10.7122      2.00000
     36     -10.7121      2.00000
     37      -6.5205      2.00000
     38      -6.5205      2.00000
     39      -6.2287      2.00000
     40      -6.2286      2.00000
     41      -6.1543      2.00000
     42      -6.1543      2.00000
     43      -5.9410      2.00000
     44      -5.9409      2.00000
     45      -5.9053      2.00000
     46      -5.9053      2.00000
     47      -5.7774      2.00000
     48      -5.7774      2.00000
     49      -2.7471      2.00000
     50      -2.7471      2.00000
     51      -2.6285      2.00000
     52      -2.6285      2.00000
     53      -2.2180      2.00000
     54      -2.2180      2.00000
     55      -2.1692      2.00000
     56      -2.1692      2.00000
     57      -2.0192      2.00000
     58      -2.0192      2.00000
     59      -1.7841      2.00000
     60      -1.7841      2.00000
     61      -1.6076      2.00000
     62      -1.6076      2.00000
     63      -1.5776      2.00000
     64      -1.5776      2.00000
     65      -1.3458      2.00000
     66      -1.3458      2.00000
     67      -1.1951      2.00000
     68      -1.1951      2.00000
     69      -1.0141      2.00000
     70      -1.0141      2.00000
     71      -0.9017      2.00000
     72      -0.9017      2.00000
     73       0.1455      0.00000
     74       0.1455      0.00000
     75       0.3799      0.00000
     76       0.3799      0.00000
     77       0.6065      0.00000
     78       0.6065      0.00000
     79       0.7051      0.00000
     80       0.7051      0.00000
     81       0.7979      0.00000
     82       0.7979      0.00000
     83       1.0553      0.00000
     84       1.0554      0.00000
     85       1.2434      0.00000
     86       1.2434      0.00000
     87       1.3855      0.00000
     88       1.3855      0.00000


--------------------------------------------------------------------------------------------------------


 soft charge-density along one line, spin component           1
         0         1         2         3         4         5         6         7         8         9
 total charge-density along one line
 
 pseudopotential strength for first ion, spin component:           1
  4.863  -5.560  -0.000  -0.006  -0.025  -0.000  -0.004  -0.020
 -5.560  -2.761   0.000   0.001   0.004  -0.000  -0.001  -0.004
 -0.000   0.000  -6.824  -0.000  -0.000   1.880  -0.000  -0.000
 -0.006   0.001  -0.000  -6.819  -0.002  -0.000   1.891  -0.003
 -0.025   0.004  -0.000  -0.002  -6.819  -0.000  -0.003   1.891
 -0.000  -0.000   1.880  -0.000  -0.000   7.262  -0.000  -0.000
 -0.004  -0.001  -0.000   1.891  -0.003  -0.000   7.264  -0.000
 -0.020  -0.004  -0.000  -0.003   1.891  -0.000  -0.000   7.264
 -0.000   0.000  -0.012  -0.000  -0.000  -0.009  -0.000  -0.000
 -0.000   0.000  -0.001  -0.000  -0.000  -0.000  -0.000  -0.000
  0.002  -0.001   0.000  -0.004   0.007   0.000  -0.003   0.005
 -0.002   0.001  -0.000  -0.011  -0.002  -0.000  -0.008  -0.002
  0.003  -0.001   0.000  -0.001  -0.011   0.000  -0.001  -0.008
  0.000   0.000   0.001   0.000   0.000   0.000   0.000   0.000
  0.000   0.000   0.000   0.000   0.000  -0.000   0.000   0.000
 -0.000  -0.000  -0.000   0.000  -0.000  -0.000   0.000  -0.000
  0.000   0.000   0.000   0.001   0.000   0.000   0.000   0.000
 -0.000  -0.000  -0.000   0.000   0.000  -0.000   0.000   0.000
 total augmentation occupancy for first ion, spin component:           1
  2.108  -0.260   0.000   0.012   0.052   0.000  -0.005  -0.019   0.000   0.000   0.015  -0.008   0.032   0.000   0.000  -0.008
 -0.260   0.637   0.000  -0.031  -0.134   0.000   0.011   0.032   0.000   0.000  -0.026   0.008  -0.063   0.000  -0.000   0.037
  0.000   0.000   2.012   0.000   0.000  -0.015   0.000  -0.000  -0.081   0.022   0.000   0.000   0.000   0.069  -0.043  -0.000
  0.012  -0.031   0.000   1.999   0.003   0.000  -0.006  -0.002  -0.000   0.000  -0.044  -0.066  -0.014  -0.000  -0.000   0.043
  0.052  -0.134   0.000   0.003   1.994  -0.000  -0.002  -0.004   0.000   0.000   0.033  -0.006  -0.050   0.000   0.000  -0.027
  0.000   0.000  -0.015   0.000   0.000   0.008   0.000   0.000   0.022  -0.009   0.000   0.000   0.000  -0.030   0.013   0.000
 -0.005   0.011   0.000  -0.006  -0.002  -0.000   0.005   0.001   0.000  -0.000   0.015   0.016   0.005   0.000   0.000  -0.022
 -0.019   0.032   0.000  -0.002  -0.004  -0.000   0.001   0.004   0.000   0.000  -0.006  -0.000   0.008   0.000   0.000   0.008
  0.000  -0.000  -0.081   0.000  -0.000   0.022  -0.000   0.000   0.149  -0.013   0.000   0.000  -0.000  -0.189   0.019   0.000
  0.000   0.000   0.022   0.000   0.000  -0.009   0.000   0.000  -0.013   0.068   0.000   0.000   0.000   0.018  -0.085   0.000
  0.015  -0.026   0.000  -0.044   0.033   0.000   0.015  -0.006  -0.000  -0.000   0.119   0.051   0.020   0.000   0.000  -0.150
 -0.008   0.008   0.000  -0.066  -0.006   0.000   0.016  -0.000   0.000   0.000   0.051   0.088   0.007   0.000   0.000  -0.071
  0.032  -0.063  -0.000  -0.014  -0.050   0.000   0.005   0.008   0.000   0.000   0.020   0.007   0.092   0.000   0.000  -0.027
  0.000   0.000   0.069   0.000  -0.000  -0.030   0.000  -0.000  -0.189   0.018  -0.000  -0.000  -0.000   0.270  -0.033   0.000
  0.000  -0.000  -0.043   0.000   0.000   0.013   0.000   0.000   0.019  -0.085   0.000   0.000   0.000  -0.033   0.117   0.000
 -0.008   0.037  -0.000   0.043  -0.027   0.000  -0.022   0.008   0.000   0.000  -0.150  -0.071  -0.027   0.000   0.000   0.209
  0.006  -0.026   0.000   0.055  -0.001   0.000  -0.023  -0.001   0.000   0.000  -0.070  -0.113  -0.011   0.000  -0.000   0.108
 -0.025   0.077  -0.000   0.022   0.043   0.000  -0.008  -0.012   0.000   0.000  -0.028  -0.012  -0.123   0.000   0.000   0.044


------------------------ aborting loop because EDIFF is reached ----------------------------------------


    CHARGE:  cpu time    0.1753: real time    0.1758
    FORLOC:  cpu time    0.0092: real time    0.0092
    FORNL :  cpu time    0.5745: real time    0.5762
    STRESS:  cpu time    1.7427: real time    1.7678
    FORCOR:  cpu time    2.4277: real time    2.4334
    FORHAR:  cpu time    0.0224: real time    0.0225
    MIXING:  cpu time    0.1611: real time    0.1615
    OFIELD:  cpu time    0.0001: real time    0.0001

  FORCE on cell =-STRESS in cart. coord.  units (eV):
  Direction    XX          YY          ZZ          XY          YZ          ZX
  --------------------------------------------------------------------------------------
  Alpha Z   170.45751   170.45751   170.45751
  Ewald  -18882.96972 15284.86491 14742.66235    -0.00002     0.00000   137.24455
  Hartree-15821.59296 16899.31368 16477.66146     0.00000    -0.00000   106.12351
  E(xc)    -460.74485  -461.93379  -461.96578    -0.00000     0.00000     0.04403
  Local   33289.79048-33619.48825-32648.05293     0.00001    -0.00000  -241.41254
  n-local   336.27845   336.10197   337.53525     0.06211    -0.21510    -1.23306
  augment  -167.50642  -167.93823  -167.90307    -0.00000    -0.00000     0.26318
  Kinetic  1523.96737  1544.31686  1535.77271    -0.05314    -0.84926    -0.84965
  Fock        0.00000     0.00000     0.00000     0.00000     0.00000     0.00000
  -------------------------------------------------------------------------------------
  Total     -12.32014   -14.30534   -13.83251     0.00000     0.00000     0.18002
  in kB     -10.45475   -12.13937   -11.73813     0.00000     0.00000     0.15276
  external pressure =      -11.44 kB  Pullay stress =        0.00 kB


 VOLUME and BASIS-vectors are now :
 -----------------------------------------------------------------------------
  energy-cutoff  :      500.00
  volume of cell :     1888.05
      direct lattice vectors                 reciprocal lattice vectors
    24.009468079  0.000000000  0.000000000     0.041650236  0.000000000  0.000000000
     0.000000000  6.777849674  0.000000000     0.000000000  0.147539419  0.000000000
     0.000000000  0.000000000 11.602143288     0.000000000  0.000000000  0.086190971

  length of vectors
    24.009468079  6.777849674 11.602143288     0.041650236  0.147539419  0.086190971


 FORCES acting on ions
    electron-ion (+dipol)            ewald-force                    non-local-force                 convergence-correction
 -----------------------------------------------------------------------------------------------
   0.765E+03 0.102E-04 0.435E+02   -.760E+03 0.988E-05 -.427E+02   -.405E+01 0.980E-20 -.774E+00   -.120E-03 -.181E-08 0.111E-04
   -.765E+03 -.631E-04 -.435E+02   0.760E+03 -.128E-04 0.427E+02   0.405E+01 -.455E-19 0.774E+00   0.120E-03 0.195E-08 -.111E-04
   0.876E+02 -.614E-04 -.382E+02   -.874E+02 -.175E-04 0.369E+02   0.181E+00 -.781E-19 0.127E+01   0.862E-04 0.301E-08 -.400E-04
   -.876E+02 0.107E-04 0.382E+02   0.874E+02 0.125E-04 -.369E+02   -.181E+00 0.429E-19 -.127E+01   -.862E-04 -.280E-08 0.399E-04
   0.612E+03 -.613E-04 -.486E+02   -.610E+03 -.163E-04 0.489E+02   -.168E+01 -.832E-18 -.344E+00   -.182E-04 0.243E-08 -.146E-03
   -.612E+03 0.901E-05 0.486E+02   0.610E+03 0.142E-04 -.489E+02   0.168E+01 0.808E-18 0.344E+00   0.182E-04 -.231E-08 0.146E-03
   0.351E+03 0.112E-04 -.970E+01   -.350E+03 0.129E-04 0.906E+01   -.395E+00 -.523E-18 0.643E+00   0.974E-04 -.266E-08 0.711E-04
   -.351E+03 -.622E-04 0.970E+01   0.350E+03 -.132E-04 -.906E+01   0.395E+00 0.758E-18 -.643E+00   -.974E-04 0.254E-08 -.711E-04
   0.270E+03 0.354E+02 -.459E+02   -.270E+03 -.371E+02 0.468E+02   -.128E+00 0.174E+01 -.922E+00   0.567E-04 0.443E-04 -.226E-04
   -.270E+03 -.354E+02 0.459E+02   0.270E+03 0.371E+02 -.468E+02   0.128E+00 -.174E+01 0.922E+00   -.567E-04 -.443E-04 0.226E-04
   0.116E+03 -.320E+02 0.222E+01   -.116E+03 0.334E+02 -.103E+01   0.366E-01 -.136E+01 -.120E+01   -.119E-04 -.903E-04 -.396E-04
   -.116E+03 0.320E+02 -.222E+01   0.116E+03 -.334E+02 0.103E+01   -.366E-01 0.136E+01 0.120E+01   0.119E-04 0.903E-04 0.396E-04
   -.270E+03 0.354E+02 0.459E+02   0.270E+03 -.371E+02 -.468E+02   0.128E+00 0.174E+01 0.922E+00   -.567E-04 0.443E-04 0.226E-04
   0.270E+03 -.354E+02 -.459E+02   -.270E+03 0.371E+02 0.468E+02   -.128E+00 -.174E+01 -.922E+00   0.567E-04 -.443E-04 -.226E-04
   -.116E+03 -.320E+02 -.222E+01   0.116E+03 0.334E+02 0.103E+01   -.366E-01 -.136E+01 0.120E+01   0.119E-04 -.903E-04 0.396E-04
   0.116E+03 0.320E+02 0.222E+01   -.116E+03 -.334E+02 -.103E+01   0.366E-01 0.136E+01 -.120E+01   -.119E-04 0.903E-04 -.396E-04
   0.324E+03 -.434E-05 0.460E+02   -.326E+03 -.608E-05 -.465E+02   0.148E+01 -.114E-17 0.451E+00   0.889E-04 0.753E-09 0.439E-04
   -.324E+03 0.618E-05 -.460E+02   0.326E+03 0.628E-05 0.465E+02   -.148E+01 -.108E-17 -.451E+00   -.889E-04 -.847E-09 -.439E-04
   0.336E+02 0.857E-05 -.100E+02   -.317E+02 0.741E-05 0.942E+01   -.151E+01 -.290E-18 0.629E+00   -.116E-04 -.116E-08 0.937E-05
   -.336E+02 -.269E-05 0.100E+02   0.317E+02 -.710E-05 -.942E+01   0.151E+01 -.262E-18 -.629E+00   0.116E-04 0.107E-08 -.938E-05
   0.235E+03 0.430E-05 0.129E+02   -.235E+03 0.801E-05 -.144E+02   -.478E-01 -.430E-18 0.149E+01   0.257E-04 -.101E-08 0.137E-04
   -.235E+03 -.564E-05 -.129E+02   0.235E+03 -.807E-05 0.144E+02   0.478E-01 -.120E-18 -.149E+01   -.257E-04 0.918E-09 -.137E-04
   0.152E+03 -.622E-05 0.571E+02   -.151E+03 -.745E-05 -.591E+02   -.620E+00 -.162E-17 0.195E+01   0.658E-05 0.981E-09 0.130E-03
   -.152E+03 0.369E-05 -.571E+02   0.151E+03 0.730E-05 0.591E+02   0.620E+00 0.284E-17 -.195E+01   -.658E-05 -.102E-08 -.130E-03
 -----------------------------------------------------------------------------------------------
   0.726E-04 -.213E-03 0.898E-04   0.284E-12 0.735E-14 0.711E-14   -.111E-15 0.442E-15 0.444E-15   -.223E-07 -.184E-09 -.518E-08
 
 
 POSITION                                       TOTAL-FORCE (eV/Angst)
 -----------------------------------------------------------------------------------
      0.13670      1.69446      8.16522         0.782575      0.000000      0.000632
      9.32277      5.08339      3.43692        -0.782575     -0.000000     -0.000632
      4.36803      5.08339      2.14714         0.392898     -0.000000      0.000044
      5.09143      1.69446      9.45500        -0.392898     -0.000000     -0.000044
      1.43529      5.08339     10.61029         0.684146      0.000000      0.000099
      8.02418      1.69446      0.99186        -0.684146      0.000000     -0.000099
      3.06944      1.69446      4.60455         0.516190     -0.000000      0.000474
      6.39002      5.08339      6.99760        -0.516190     -0.000000     -0.000474
      1.75027      0.48832      1.65304        -0.119898      0.000487      0.000006
      7.70920      6.28953      9.94910         0.119898     -0.000487     -0.000006
      2.75446      6.30180      7.65419         0.314817      0.000031      0.000376
      6.70500      0.47605      3.94796        -0.314817     -0.000031     -0.000376
      7.70920      3.87724      9.94910         0.119898      0.000487     -0.000006
      1.75027      2.90061      1.65304        -0.119898     -0.000487      0.000006
      6.70500      2.91287      3.94796        -0.314817      0.000031     -0.000376
      2.75446      3.86498      7.65419         0.314817     -0.000031      0.000376
      0.74693      5.08339      6.96020        -0.262456     -0.000000      0.000253
      8.71254      1.69446      4.64194         0.262456     -0.000000     -0.000253
      3.75780      1.69446      0.93230         0.364741      0.000000      0.000256
      5.70166      5.08339     10.66984        -0.364741     -0.000000     -0.000256
      1.78112      1.69446     11.13024        -0.140851      0.000000      0.000649
      7.67835      5.08339      0.47190         0.140851      0.000000     -0.000649
      2.72362      5.08339      5.52990        -0.100692      0.000000     -0.000098
      6.73585      1.69446      6.07225         0.100692     -0.000000      0.000098
 -----------------------------------------------------------------------------------
    total drift:                                0.000073     -0.000213      0.000090


--------------------------------------------------------------------------------------------------------



  FREE ENERGIE OF THE ION-ELECTRON SYSTEM (eV)
  ---------------------------------------------------
  free  energy   TOTEN  =       -89.29385761 eV

  energy  without entropy=      -89.29385761  energy(sigma->0) =      -89.29385761
 


--------------------------------------------------------------------------------------------------------


    POTLOK:  cpu time    2.8300: real time    2.8368


--------------------------------------------------------------------------------------------------------


 writing wavefunctions
     LOOP+:  cpu time14737.9098: real time14813.9223
    4ORBIT:  cpu time    0.0000: real time    0.0000
 BZINTS: Fermi energy: -0.589746;144.000000 electrons
         Band energy:***********;  BLOECHL correction:  0.000000

 total amount of memory used by VASP MPI-rank0    79351. kBytes
=======================================================================

   base      :      30000. kBytes
   nonlr-proj:       2645. kBytes
   fftplans  :       5898. kBytes
   grid      :       8824. kBytes
   one-center:         93. kBytes
   wavefun   :      31891. kBytes
 
  
  
 General timing and accounting informations for this job:
 ========================================================
  
                  Total CPU time used (sec):    14745.611
                            User time (sec):    14676.020
                          System time (sec):       69.591
                         Elapsed time (sec):    14824.334
  
                   Maximum memory used (kb):      306876.
                   Average memory used (kb):           0.
  
                          Minor page faults:       105696
                          Major page faults:          218
                 Voluntary context switches:        13390
