 vasp.5.4.4.18Apr17-6-g9f103f2a35 (build Nov 21 2017 15:30:27) complex          
  
 executed on             LinuxIFC date 2020.09.15  08:17:53
 running on   64 total cores
 distrk:  each k-point on   32 cores,    2 groups
 distr:  one band on NCORES_PER_BAND=   4 cores,    8 groups


--------------------------------------------------------------------------------------------------------


 INCAR:
 POTCAR:   PAW_PBE Ba_sv 06Sep2000                
 POTCAR:   PAW_PBE Si 05Jan2001                   

 ----------------------------------------------------------------------------- 
|                                                                             |
|           W    W    AA    RRRRR   N    N  II  N    N   GGGG   !!!           |
|           W    W   A  A   R    R  NN   N  II  NN   N  G    G  !!!           |
|           W    W  A    A  R    R  N N  N  II  N N  N  G       !!!           |
|           W WW W  AAAAAA  RRRRR   N  N N  II  N  N N  G  GGG   !            |
|           WW  WW  A    A  R   R   N   NN  II  N   NN  G    G                |
|           W    W  A    A  R    R  N    N  II  N    N   GGGG   !!!           |
|                                                                             |
|      You have enabled k-point parallelism (KPAR>1).                         |
|      This developmental code was originally  written by Paul Kent at ORNL,  |
|      and carefully double checked in Vienna.                                |
|      GW as well as linear response parallelism added by Martijn Marsman     |
|      and Georg Kresse.                                                      |
|      Carefully verify results versus KPAR=1.                                |
|      Report problems to Paul Kent and Vienna.                               |
|                                                                             |
 ----------------------------------------------------------------------------- 


 ----------------------------------------------------------------------------- 
|                                                                             |
|  ADVICE TO THIS USER RUNNING 'VASP/VAMP'   (HEAR YOUR MASTER'S VOICE ...):  |
|                                                                             |
|      You have switched on vdW-DFT.                                          |
|      This routine was written and supplied by Jiri Klimes.                  |
|      We recommed that you carefully read and cite the following             |
|      publication                                                            |
|      J. Klimes, D.R. Bowler, A. Michelides                                  |
|        J. Phys.: Cond Matt. 22 022201 (2010)                                |
|      J. Klimes, D.R. Bowler, A. Michelides                                  |
|        Phys. Rev. B. 83, 195131 (2011)                                      |
|      and references therein.                                                |
|                                                                             |
 ----------------------------------------------------------------------------- 

 POTCAR:   PAW_PBE Ba_sv 06Sep2000                
   VRHFIN =Ba: 5s5p6s                                                           
   LEXCH  = PE                                                                  
   EATOM  =   700.2255 eV,   51.4651 Ry                                         
                                                                                
   TITEL  = PAW_PBE Ba_sv 06Sep2000                                             
   LULTRA =        F    use ultrasoft PP ?                                      
   IUNSCR =        1    unscreen: 0-lin 1-nonlin 2-no                           
   RPACOR =    2.400    partial core radius                                     
   POMASS =  137.327; ZVAL   =   10.000    mass and valenz                      
   RCORE  =    2.800    outmost cutoff radius                                   
   RWIGS  =    3.740; RWIGS  =    1.979    wigner-seitz radius (au A)           
   ENMAX  =  187.210; ENMIN  =  140.408 eV                                      
   RCLOC  =    2.516    cutoff for local pot                                    
   LCOR   =        T    correct aug charges                                     
   LPAW   =        T    paw PP                                                  
   EAUG   =  351.165                                                            
   DEXC   =     .000                                                            
   RMAX   =    3.370    core radius for proj-oper                               
   RAUG   =    1.300    factor for augmentation sphere                          
   RDEP   =    2.976    radius for radial grids                                 
   QCUT   =   -3.709; QGAM   =    7.419    optimization parameters              
                                                                                
   Description                                                                  
     l     E      TYP  RCUT    TYP  RCUT                                        
     0   .000     23  2.800                                                     
     0   .000     23  2.800                                                     
     1   .000     23  2.700                                                     
     1  2.000     23  2.700                                                     
     2   .000     23  2.700                                                     
     2   .000     23  2.700                                                     
  local pseudopotential read in
  partial core-charges read in
  atomic valenz-charges read in
  non local Contribution for L=           0  read in
    real space projection operators read in
  non local Contribution for L=           0  read in
    real space projection operators read in
  non local Contribution for L=           1  read in
    real space projection operators read in
  non local Contribution for L=           1  read in
    real space projection operators read in
  non local Contribution for L=           2  read in
    real space projection operators read in
  non local Contribution for L=           2  read in
    real space projection operators read in
    PAW grid and wavefunctions read in
 
   number of l-projection  operators is LMAX  =           6
   number of lm-projection operators is LMMAX =          18
 
 POTCAR:   PAW_PBE Si 05Jan2001                   
   VRHFIN =Si: s2p2                                                             
   LEXCH  = PE                                                                  
   EATOM  =   103.0669 eV,    7.5752 Ry                                         
                                                                                
   TITEL  = PAW_PBE Si 05Jan2001                                                
   LULTRA =        F    use ultrasoft PP ?                                      
   IUNSCR =        1    unscreen: 0-lin 1-nonlin 2-no                           
   RPACOR =    1.500    partial core radius                                     
   POMASS =   28.085; ZVAL   =    4.000    mass and valenz                      
   RCORE  =    1.900    outmost cutoff radius                                   
   RWIGS  =    2.480; RWIGS  =    1.312    wigner-seitz radius (au A)           
   ENMAX  =  245.345; ENMIN  =  184.009 eV                                      
   ICORE  =        2    local potential                                         
   LCOR   =        T    correct aug charges                                     
   LPAW   =        T    paw PP                                                  
   EAUG   =  322.069                                                            
   DEXC   =    -.007                                                            
   RMAX   =    2.944    core radius for proj-oper                               
   RAUG   =    1.300    factor for augmentation sphere                          
   RDEP   =    1.993    radius for radial grids                                 
   QCUT   =   -4.246; QGAM   =    8.493    optimization parameters              
                                                                                
   Description                                                                  
     l     E      TYP  RCUT    TYP  RCUT                                        
     0   .000     23  1.900                                                     
     0   .000     23  1.900                                                     
     1   .000     23  1.900                                                     
     1   .000     23  1.900                                                     
     2   .000      7  1.900                                                     
  local pseudopotential read in
  partial core-charges read in
  atomic valenz-charges read in
  non local Contribution for L=           0  read in
    real space projection operators read in
  non local Contribution for L=           0  read in
    real space projection operators read in
  non local Contribution for L=           1  read in
    real space projection operators read in
  non local Contribution for L=           1  read in
    real space projection operators read in
    PAW grid and wavefunctions read in
 
   number of l-projection  operators is LMAX  =           4
   number of lm-projection operators is LMMAX =           8
 
 Optimization of the real space projectors (new method)

 maximal supplied QI-value         = 13.42
 optimisation between [QCUT,QGAM] = [ 11.40, 22.81] = [ 36.42,145.68] Ry 
 Optimized for a Real-space Cutoff    1.56 Angstroem

   l    n(q)    QCUT    max X(q) W(low)/X(q) W(high)/X(q)  e(spline) 
   0     11    11.404     7.198    0.14E-04    0.26E-04    0.99E-07
   0     11    11.404    15.603    0.29E-04    0.72E-04    0.44E-06
   1     10    11.404     3.746    0.20E-04    0.24E-04    0.43E-07
   1     10    11.404     4.362    0.22E-03    0.97E-04    0.22E-06
   2     10    11.404     5.782    0.83E-04    0.62E-05    0.27E-06
   2     10    11.404    65.505    0.42E-03    0.31E-04    0.12E-05
 Optimization of the real space projectors (new method)

 maximal supplied QI-value         = 19.84
 optimisation between [QCUT,QGAM] = [ 11.31, 22.82] = [ 35.82,145.81] Ry 
 Optimized for a Real-space Cutoff    1.16 Angstroem

   l    n(q)    QCUT    max X(q) W(low)/X(q) W(high)/X(q)  e(spline) 
   0      8    11.310     8.708    0.14E-04    0.11E-04    0.43E-08
   0      8    11.310   106.241    0.27E-03    0.30E-03    0.38E-07
   1      7    11.310     5.901    0.82E-05    0.48E-04    0.19E-07
   1      7    11.310    73.241    0.27E-03    0.27E-03    0.74E-07

 ----------------------------------------------------------------------------- 
|                                                                             |
|  ADVICE TO THIS USER RUNNING 'VASP/VAMP'   (HEAR YOUR MASTER'S VOICE ...):  |
|                                                                             |
|      You enforced a specific xc-type in the INCAR file,                     |
|      a different type was found on the POTCAR file                          |
|          I HOPE YOU KNOW, WHAT YOU ARE  DOING                               |
|                                                                             |
 ----------------------------------------------------------------------------- 

 PAW_PBE Ba_sv 06Sep2000                :
 energy of atom  1       EATOM= -700.2255
 kinetic energy error for atom=    0.0005 (will be added to EATOM!!)
 PAW_PBE Si 05Jan2001                   :
 energy of atom  2       EATOM= -103.0669
 kinetic energy error for atom=    0.0006 (will be added to EATOM!!)
 
 
 POSCAR: ba8 si16                                
  positions in direct lattice
  velocities in cartesian coordinates
 exchange correlation table for  LEXCH =       43
   RHO(1)=    0.500       N(1)  =     2000
   RHO(2)=  100.500       N(2)  =     4000
 


--------------------------------------------------------------------------------------------------------


 ion  position               nearest neighbor table
   1  0.006  0.250  0.706-  21 3.41  16 3.45  11 3.45  17 3.66  17 3.66   5 4.38   5 4.38   7 4.61

   2  0.374  0.750  0.294-  22 3.41  12 3.45  15 3.45  18 3.66  18 3.66   6 4.38   6 4.38   8 4.61

   3  0.182  0.750  0.187-  20 3.31  22 3.43   9 3.44  14 3.44  12 3.45  15 3.45  19 3.64  19 3.64
                            23 3.74   5 4.28   7 4.39   7 4.39
   4  0.197  0.250  0.813-  19 3.31  21 3.43  13 3.44  10 3.44  16 3.45  11 3.45  20 3.64  20 3.64
                            24 3.74   6 4.28   8 4.39   8 4.39
   5  0.060  0.750  0.918-   9 3.44  14 3.44  21 3.45  21 3.45  11 3.50  16 3.50  17 3.76  20 3.92
                             3 4.28   1 4.38   1 4.38
   6  0.320  0.250  0.082-  13 3.44  10 3.44  22 3.45  22 3.45  15 3.50  12 3.50  18 3.76  19 3.92
                             4 4.28   2 4.38   2 4.38
   7  0.128  0.250  0.399-  14 3.44   9 3.44  23 3.52  23 3.52  15 3.57  12 3.57  24 3.62  19 3.70
                            16 3.73  11 3.73   3 4.39   3 4.39   1 4.61
   8  0.252  0.750  0.601-  10 3.44  13 3.44  24 3.52  24 3.52  11 3.57  16 3.57  23 3.62  20 3.70
                            12 3.73  15 3.73   4 4.39   4 4.39   2 4.61
   9  0.073  0.072  0.146-  14 2.41  21 2.44  19 2.44   7 3.44   3 3.44   5 3.44
  10  0.307  0.928  0.854-  13 2.41  22 2.44  20 2.44   8 3.44   4 3.44   6 3.44
  11  0.115  0.929  0.659-  16 2.42  23 2.44  17 2.44   1 3.45   4 3.45   5 3.50   8 3.57   7 3.73

  12  0.265  0.071  0.341-  15 2.42  24 2.44  18 2.44   2 3.45   3 3.45   6 3.50   7 3.57   8 3.73

  13  0.307  0.572  0.854-  10 2.41  22 2.44  20 2.44   8 3.44   4 3.44   6 3.44
  14  0.073  0.428  0.146-   9 2.41  21 2.44  19 2.44   7 3.44   3 3.44   5 3.44
  15  0.265  0.429  0.341-  12 2.42  24 2.44  18 2.44   2 3.45   3 3.45   6 3.50   7 3.57   8 3.73

  16  0.115  0.571  0.659-  11 2.42  23 2.44  17 2.44   1 3.45   4 3.45   5 3.50   8 3.57   7 3.73

  17  0.031  0.750  0.600-  23 2.44  11 2.44  16 2.44   1 3.66   1 3.66   5 3.76
  18  0.348  0.250  0.400-  24 2.44  15 2.44  12 2.44   2 3.66   2 3.66   6 3.76
  19  0.157  0.250  0.086-  21 2.43  14 2.44   9 2.44   4 3.31   3 3.64   3 3.64   7 3.70   6 3.92

  20  0.223  0.750  0.914-  22 2.43  10 2.44  13 2.44   3 3.31   4 3.64   4 3.64   8 3.70   5 3.92

  21  0.074  0.250  0.963-  19 2.43  14 2.44   9 2.44   1 3.41   4 3.43   5 3.45   5 3.45
  22  0.305  0.750  0.037-  20 2.43  10 2.44  13 2.44   2 3.41   3 3.43   6 3.45   6 3.45
  23  0.113  0.750  0.476-  17 2.44  11 2.44  16 2.44   7 3.52   7 3.52   8 3.62   3 3.74
  24  0.266  0.250  0.524-  18 2.44  15 2.44  12 2.44   8 3.52   8 3.52   7 3.62   4 3.74
 
  LATTYP: Found a simple orthorhombic cell.
 ALAT       =     6.7778496742
 B/A-ratio  =     1.7117734747
 C/A-ratio  =     3.5423429602
  
  Lattice vectors:
  
 A1 = (   0.0000000000,   6.7778496742,   0.0000000000)
 A2 = (   0.0000000000,   0.0000000000, -11.6021432877)
 A3 = ( -24.0094680786,   0.0000000000,   0.0000000000)


Analysis of symmetry for initial positions (statically):
=====================================================================
 Subroutine PRICEL returns:
 Original cell was already a primitive cell.
 

 Routine SETGRP: Setting up the symmetry group for a 
 simple orthorhombic supercell.


 Subroutine GETGRP returns: Found  4 space group operations
 (whereof  1 operations were pure point group operations)
 out of a pool of  8 trial point group operations.


The static configuration has the point symmetry C_1 .
 The point group associated with its full space group is C_2h.


Analysis of symmetry for dynamics (positions and initial velocities):
=====================================================================
 Subroutine PRICEL returns:
 Original cell was already a primitive cell.
 

 Routine SETGRP: Setting up the symmetry group for a 
 simple orthorhombic supercell.


 Subroutine GETGRP returns: Found  4 space group operations
 (whereof  1 operations were pure point group operations)
 out of a pool of  8 trial point group operations.


The dynamic configuration has the point symmetry C_1 .
 The point group associated with its full space group is C_2h.


Analysis of constrained symmetry for selective dynamics:
=====================================================================
 Subroutine PRICEL returns:
 Original cell was already a primitive cell.
 

 Routine SETGRP: Setting up the symmetry group for a 
 simple orthorhombic supercell.


 Subroutine GETGRP returns: Found  4 space group operations
 (whereof  1 operations were pure point group operations)
 out of a pool of  8 trial point group operations.


The constrained configuration has the point symmetry C_1 .
 The point group associated with its full space group is C_2h.


 Subroutine INISYM returns: Found  4 space group operations
 (whereof  1 operations are pure point group operations),
 and found     1 'primitive' translations

 
 
 KPOINTS: k-density: 8.0                          

Automatic generation of k-mesh.
Space group operators:
 irot       det(A)        alpha          n_x          n_y          n_z        tau_x        tau_y        tau_z
    1     1.000000     0.000000     1.000000     0.000000     0.000000     0.000000     0.000000     0.000000
    2    -1.000000     0.000000     1.000000     0.000000     0.000000    -0.620589     0.000000     0.000000
    3     1.000000   180.000000     0.000000     1.000000     0.000000    -0.620589     0.500000     0.000000
    4    -1.000000   180.000000     0.000000     1.000000     0.000000     0.000000     0.500000     0.000000
 
 Subroutine IBZKPT returns following result:
 ===========================================
 
 Found     15 irreducible k-points:
 
 Following reciprocal coordinates:
            Coordinates               Weight
  0.000000  0.000000  0.000000      1.000000
  0.000000  0.125000  0.000000      2.000000
  0.000000  0.250000  0.000000      2.000000
  0.000000  0.375000  0.000000      2.000000
  0.000000  0.500000  0.000000      1.000000
  0.000000  0.000000  0.200000      2.000000
  0.000000  0.125000  0.200000      4.000000
  0.000000  0.250000  0.200000      4.000000
  0.000000  0.375000  0.200000      4.000000
  0.000000  0.500000  0.200000      2.000000
  0.000000  0.000000  0.400000      2.000000
  0.000000  0.125000  0.400000      4.000000
  0.000000  0.250000  0.400000      4.000000
  0.000000  0.375000  0.400000      4.000000
  0.000000  0.500000  0.400000      2.000000
 
 Following cartesian coordinates:
            Coordinates               Weight
  0.000000  0.000000  0.000000      1.000000
  0.000000  0.018442  0.000000      2.000000
  0.000000  0.036885  0.000000      2.000000
  0.000000  0.055327  0.000000      2.000000
  0.000000  0.073770  0.000000      1.000000
  0.000000  0.000000  0.017238      2.000000
  0.000000  0.018442  0.017238      4.000000
  0.000000  0.036885  0.017238      4.000000
  0.000000  0.055327  0.017238      4.000000
  0.000000  0.073770  0.017238      2.000000
  0.000000  0.000000  0.034476      2.000000
  0.000000  0.018442  0.034476      4.000000
  0.000000  0.036885  0.034476      4.000000
  0.000000  0.055327  0.034476      4.000000
  0.000000  0.073770  0.034476      2.000000
 
 TETIRR: Found    108 inequivalent tetrahedra from      240


--------------------------------------------------------------------------------------------------------




 Dimension of arrays:
   k-points           NKPTS =     15   k-points in BZ     NKDIM =     15   number of bands    NBANDS=     88
   number of dos      NEDOS =    301   number of ions     NIONS =     24
   non local maximal  LDIM  =      6   non local SUM 2l+1 LMDIM =     18
   total plane-waves  NPLWV = 358400
   max r-space proj   IRMAX =   3093   max aug-charges    IRDMAX=  12081
   dimension x,y,z NGX =   140 NGY =   40 NGZ =   64
   dimension x,y,z NGXF=   280 NGYF=   80 NGZF=  128
   support grid    NGXF=   280 NGYF=   80 NGZF=  128
   ions per type =               8  16
   NGX,Y,Z   is equivalent  to a cutoff of   9.69,  9.81,  9.17 a.u.
   NGXF,Y,Z  is equivalent  to a cutoff of  19.39, 19.62, 18.34 a.u.

 SYSTEM =  unknown system                          
 POSCAR =  ba8 si16                                

 Startparameter for this run:
   NWRITE =      2    write-flag & timer
   PREC   = normal    normal or accurate (medium, high low for compatibility)
   ISTART =      0    job   : 0-new  1-cont  2-samecut
   ICHARG =      2    charge: 1-file 2-atom 10-const
   ISPIN  =      1    spin polarized calculation?
   LNONCOLLINEAR =      F non collinear calculations
   LSORBIT =      F    spin-orbit coupling
   INIWAV =      1    electr: 0-lowe 1-rand  2-diag
   LASPH  =      T    aspherical Exc in radial PAW
   METAGGA=      F    non-selfconsistent MetaGGA calc.

 Electronic Relaxation 1
   ENCUT  =  500.0 eV  36.75 Ry    6.06 a.u.  43.77 12.36 21.15*2*pi/ulx,y,z
   ENINI  =  500.0     initial cutoff
   ENAUG  =  351.2 eV  augmentation charge cutoff
   NELM   =    100;   NELMIN=  2; NELMDL= -5     # of ELM steps 
   EDIFF  = 0.1E-05   stopping-criterion for ELM
   LREAL  =      T    real-space projection
   NLSPLINE    = F    spline interpolate recip. space projectors
   LCOMPAT=      F    compatible to vasp.4.4
   GGA_COMPAT  = T    GGA compatible to vasp.4.4-vasp.4.6
   LMAXPAW     = -100 max onsite density
   LMAXMIX     =    2 max onsite mixed and CHGCAR
   VOSKOWN=      0    Vosko Wilk Nusair interpolation
   ROPT   =   -0.00050  -0.00050
 Ionic relaxation
   EDIFFG = -.1E-02   stopping-criterion for IOM
   NSW    =      0    number of steps for IOM
   NBLOCK =      1;   KBLOCK =      1    inner block; outer block 
   IBRION =     -1    ionic relax: 0-MD 1-quasi-New 2-CG
   NFREE  =      0    steps in history (QN), initial steepest desc. (CG)
   ISIF   =      2    stress and relaxation
   IWAVPR =     10    prediction:  0-non 1-charg 2-wave 3-comb
   ISYM   =      2    0-nonsym 1-usesym 2-fastsym
   LCORR  =      T    Harris-Foulkes like correction to forces

   POTIM  = 0.3000    time-step for ionic-motion
   TEIN   =    0.0    initial temperature
   TEBEG  =    0.0;   TEEND  =   0.0 temperature during run
   SMASS  =  -3.00    Nose mass-parameter (am)
   estimated Nose-frequenzy (Omega)   =  0.10E-29 period in steps =****** mass=  -0.132E-25a.u.
   SCALEE = 1.0000    scale energy and forces
   NPACO  =    256;   APACO  = 16.0  distance and # of slots for P.C.
   PSTRESS=    0.0 pullay stress

  Mass of Ions in am
   POMASS = 137.33 28.09
  Ionic Valenz
   ZVAL   =  10.00  4.00
  Atomic Wigner-Seitz radii
   RWIGS  =  -1.00 -1.00
  virtual crystal weights 
   VCA    =   1.00  1.00
   NELECT =     144.0000    total number of electrons
   NUPDOWN=      -1.0000    fix difference up-down

 DOS related values:
   EMIN   =  10.00;   EMAX   =-10.00  energy-range for DOS
   EFERMI =   0.00
   ISMEAR =    -5;   SIGMA  =   0.01  broadening in eV -4-tet -1-fermi 0-gaus

 Electronic relaxation 2 (details)
   IALGO  =     38    algorithm
   LDIAG  =      T    sub-space diagonalisation (order eigenvalues)
   LSUBROT=      F    optimize rotation matrix (better conditioning)
   TURBO    =      0    0=normal 1=particle mesh
   IRESTART =      0    0=no restart 2=restart with 2 vectors
   NREBOOT  =      0    no. of reboots
   NMIN     =      0    reboot dimension
   EREF     =   0.00    reference energy to select bands
   IMIX   =      4    mixing-type and parameters
     AMIX     =   0.40;   BMIX     =  1.00
     AMIX_MAG =   1.60;   BMIX_MAG =  1.00
     AMIN     =   0.10
     WC   =   100.;   INIMIX=   1;  MIXPRE=   1;  MAXMIX= -45

 Intra band minimization:
   WEIMIN = 0.0000     energy-eigenvalue tresh-hold
   EBREAK =  0.28E-08  absolut break condition
   DEPER  =   0.30     relativ break condition  

   TIME   =   0.40     timestep for ELM

  volume/ion in A,a.u.               =      78.67       530.88
  Fermi-wavevector in a.u.,A,eV,Ry     =   0.694264  1.311969  6.558046  0.482003
  Thomas-Fermi vector in A             =   1.776709
 
 Write flags
   LWAVE        =      T    write WAVECAR
   LDOWNSAMPLE  =      F    k-point downsampling of WAVECAR
   LCHARG       =      T    write CHGCAR
   LVTOT        =      F    write LOCPOT, total local potential
   LVHAR        =      F    write LOCPOT, Hartree potential only
   LELF         =      F    write electronic localiz. function (ELF)
   LORBIT       =      0    0 simple, 1 ext, 2 COOP (PROOUT), +10 PAW based schemes


 Dipole corrections
   LMONO  =      F    monopole corrections only (constant potential shift)
   LDIPOL =      F    correct potential (dipole corrections)
   IDIPOL =      0    1-x, 2-y, 3-z, 4-all directions 
   EPSILON=  1.0000000 bulk dielectric constant

 Exchange correlation treatment:
   GGA     =    MK    GGA type
   LEXCH   =    43    internal setting for exchange type
   VOSKOWN=      0    Vosko Wilk Nusair interpolation
   LHFCALC =     F    Hartree Fock is set to
   LHFONE  =     F    Hartree Fock one center treatment
   AEXX    =    0.0000 exact exchange contribution

 vdW DFT:
   LUSE_VDW   =     T    switch on vdW DFT
   Zab_VDW    =******    correlation parameter
   PARAM1     =0.1234
   PARAM2     =0.7114
   PARAM3     =0.0000
   -- rVV10 --
   BPARAM     = 6.3000
   CPARAM     = 0.0093

 Linear response parameters
   LEPSILON=     F    determine dielectric tensor
   LRPA    =     F    only Hartree local field effects (RPA)
   LNABLA  =     F    use nabla operator in PAW spheres
   LVEL    =     F    velocity operator in full k-point grid
   LINTERFAST=   F  fast interpolation
   KINTER  =     0    interpolate to denser k-point grid
   CSHIFT  =0.1000    complex shift for real part using Kramers Kronig
   OMEGAMAX=  -1.0    maximum frequency
   DEG_THRESHOLD= 0.2000000E-02 threshold for treating states as degnerate
   RTIME   =   -0.100 relaxation time in fs
  (WPLASMAI=    0.000 imaginary part of plasma frequency in eV, 0.658/RTIME)
   DFIELD  = 0.0000000 0.0000000 0.0000000 field for delta impulse in time
 
 Orbital magnetization related:
   ORBITALMAG=     F  switch on orbital magnetization
   LCHIMAG   =     F  perturbation theory with respect to B field
   DQ        =  0.001000  dq finite difference perturbation B field
   LLRAUG    =     F  two centre corrections for induced B field



--------------------------------------------------------------------------------------------------------


 Static calculation
 charge density and potential will be updated during run
 non-spin polarized calculation
 Variant of blocked Davidson
 Davidson routine will perform the subspace rotation
 perform sub-space diagonalisation
    after iterative eigenvector-optimisation
 modified Broyden-mixing scheme, WC =      100.0
 initial mixing is a Kerker type mixing with AMIX =  0.4000 and BMIX =      1.0000
 Hartree-type preconditioning will be used
 using additional bands           16
 real space projection scheme for non local part
 use partial core corrections
 calculate Harris-corrections to forces 
   (improved forces if not selfconsistent)
 use gradient corrections 
 use of overlap-Matrix (Vanderbilt PP)
 Fermi weights with tetrahedron method with Bloechl corrections


--------------------------------------------------------------------------------------------------------


  energy-cutoff  :      500.00
  volume of cell :     1888.05
      direct lattice vectors                 reciprocal lattice vectors
    24.009468079  0.000000000  0.000000000     0.041650236  0.000000000  0.000000000
     0.000000000  6.777849674  0.000000000     0.000000000  0.147539419  0.000000000
     0.000000000  0.000000000 11.602143288     0.000000000  0.000000000  0.086190971

  length of vectors
    24.009468079  6.777849674 11.602143288     0.041650236  0.147539419  0.086190971


 
 k-points in units of 2pi/SCALE and weight: k-density: 8.0                          
   0.00000000  0.00000000  0.00000000       0.025
   0.00000000  0.01844243  0.00000000       0.050
   0.00000000  0.03688485  0.00000000       0.050
   0.00000000  0.05532728  0.00000000       0.050
   0.00000000  0.07376971  0.00000000       0.025
   0.00000000  0.00000000  0.01723819       0.050
   0.00000000  0.01844243  0.01723819       0.100
   0.00000000  0.03688485  0.01723819       0.100
   0.00000000  0.05532728  0.01723819       0.100
   0.00000000  0.07376971  0.01723819       0.050
   0.00000000  0.00000000  0.03447639       0.050
   0.00000000  0.01844243  0.03447639       0.100
   0.00000000  0.03688485  0.03447639       0.100
   0.00000000  0.05532728  0.03447639       0.100
   0.00000000  0.07376971  0.03447639       0.050
 
 k-points in reciprocal lattice and weights: k-density: 8.0                          
   0.00000000  0.00000000  0.00000000       0.025
   0.00000000  0.12500000  0.00000000       0.050
   0.00000000  0.25000000  0.00000000       0.050
   0.00000000  0.37500000  0.00000000       0.050
   0.00000000  0.50000000  0.00000000       0.025
   0.00000000  0.00000000  0.20000000       0.050
   0.00000000  0.12500000  0.20000000       0.100
   0.00000000  0.25000000  0.20000000       0.100
   0.00000000  0.37500000  0.20000000       0.100
   0.00000000  0.50000000  0.20000000       0.050
   0.00000000  0.00000000  0.40000000       0.050
   0.00000000  0.12500000  0.40000000       0.100
   0.00000000  0.25000000  0.40000000       0.100
   0.00000000  0.37500000  0.40000000       0.100
   0.00000000  0.50000000  0.40000000       0.050
 
 position of ions in fractional coordinates (direct lattice) 
   0.00569361  0.25000000  0.70607074
   0.37371788  0.75000002  0.29392926
   0.18192962  0.75000002  0.18687431
   0.19748187  0.25000000  0.81312567
   0.05978014  0.75000002  0.91796310
   0.31963135  0.25000000  0.08203688
   0.12784309  0.25000000  0.39909142
   0.25156840  0.75000002  0.60090862
   0.07289913  0.07200193  0.14590828
   0.30651236  0.92799806  0.85409170
   0.11472410  0.92883226  0.65878118
   0.26468739  0.07116773  0.34121882
   0.30651236  0.57200194  0.85409170
   0.07289913  0.42799806  0.14590828
   0.26468739  0.42883226  0.34121882
   0.11472410  0.57116774  0.65878118
   0.03110981  0.75000002  0.59964161
   0.34830168  0.25000000  0.40035839
   0.15651343  0.25000000  0.08558622
   0.22289807  0.75000002  0.91441376
   0.07418398  0.25000000  0.96320866
   0.30522751  0.75000002  0.03679135
   0.11343925  0.75000002  0.47611304
   0.26597224  0.25000000  0.52388688
 
 position of ions in cartesian coordinates  (Angst):
   0.13670066  1.69446242  8.19193391
   8.97276745  5.08338737  3.41020937
   4.36803341  5.08338737  2.16814248
   4.74143467  1.69446242  9.43400056
   1.43528938  5.08338737 10.65033938
   7.67417870  1.69446242  0.95180367
   3.06944466  1.69446242  4.63031584
   6.04002342  5.08338737  6.97182793
   1.75026941  0.48801827  1.69284875
   7.35919867  6.28983135  9.90929430
   2.75446463  6.29548542  7.64327362
   6.35500345  0.48236419  3.95886967
   7.35919867  3.87694316  9.90929430
   1.75026941  2.90090651  1.69284875
   6.35500345  2.90656059  3.95886967
   2.75446463  3.87128909  7.64327362
   0.74692994  5.08338737  6.95712789
   8.36253796  1.69446242  4.64501540
   3.75780416  1.69446242  0.99298361
   5.35166416  5.08338737 10.60915944
   1.78111780  1.69446242 11.17528490
   7.32835016  5.08338737  0.42685857
   2.72361612  5.08338737  5.52393171
   6.38585195  1.69446242  6.07821062
 


--------------------------------------------------------------------------------------------------------


 k-point  1 :   0.0000 0.0000 0.0000  plane waves:   47989
 k-point  2 :   0.0000 0.1250 0.0000  plane waves:   47929
 k-point  3 :   0.0000 0.2500 0.0000  plane waves:   47901
 k-point  4 :   0.0000 0.3750 0.0000  plane waves:   47910
 k-point  5 :   0.0000 0.5000 0.0000  plane waves:   47868
 k-point  6 :   0.0000 0.0000 0.2000  plane waves:   48006
 k-point  7 :   0.0000 0.1250 0.2000  plane waves:   47967
 k-point  8 :   0.0000 0.2500 0.2000  plane waves:   47907
 k-point  9 :   0.0000 0.3750 0.2000  plane waves:   47884
 k-point 10 :   0.0000 0.5000 0.2000  plane waves:   47884
 k-point 11 :   0.0000 0.0000 0.4000  plane waves:   47922
 k-point 12 :   0.0000 0.1250 0.4000  plane waves:   47954
 k-point 13 :   0.0000 0.2500 0.4000  plane waves:   47967
 k-point 14 :   0.0000 0.3750 0.4000  plane waves:   47928
 k-point 15 :   0.0000 0.5000 0.4000  plane waves:   47890

 maximum and minimum number of plane-waves per node :     12077    11868

 maximum number of plane-waves:     48006
 maximum index in each direction: 
   IXMAX=   43   IYMAX=   12   IZMAX=   21
   IXMIN=  -43   IYMIN=  -12   IZMIN=  -21


 real space projection operators:
  total allocation   :       4532.81 KBytes
  max/ min on nodes  :       1134.97       1131.52


 parallel 3D FFT for wavefunctions:
    minimum data exchange during FFTs selected (reduces bandwidth)
 parallel 3D FFT for charge:
    minimum data exchange during FFTs selected (reduces bandwidth)


 total amount of memory used by VASP MPI-rank0    79348. kBytes
=======================================================================

   base      :      30000. kBytes
   nonlr-proj:       2642. kBytes
   fftplans  :       5898. kBytes
   grid      :       8824. kBytes
   one-center:         93. kBytes
   wavefun   :      31891. kBytes
 
     INWAV:  cpu time    0.0000: real time    0.0000
 Broyden mixing: mesh for mixing (old mesh)
   NGX = 87   NGY = 25   NGZ = 43
  (NGX  =280   NGY  = 80   NGZ  =128)
  gives a total of  93525 points

 initial charge density was supplied:
 charge density of overlapping atoms calculated
 number of electron     144.0000000 magnetization 
 keeping initial charge density in first step


--------------------------------------------------------------------------------------------------------


 Maximum index for non-local projection operator          747
 Maximum index for augmentation-charges          600 (set IRDMAX)


--------------------------------------------------------------------------------------------------------


 First call to EWALD:  gamma=   0.143
 Maximum number of real-space cells 2x 5x 3
 Maximum number of reciprocal cells 5x 2x 3

    FEWALD:  cpu time    0.0274: real time    0.0275


--------------------------------------- Iteration      1(   1)  ---------------------------------------


    POTLOK:  cpu time13478.3620: real time13510.1224
    SETDIJ:  cpu time 1186.7681: real time 1189.5822
     EDDAV:  cpu time    2.6379: real time    2.8201
 BZINTS: Fermi energy:  6.862129;144.000000 electrons
         Band energy:-476.328372;  BLOECHL correction: -0.027761
       DOS:  cpu time    0.0119: real time    0.0122
    --------------------------------------------
      LOOP:  cpu time14667.7799: real time14702.5369

 eigenvalue-minimisations  :  2768
 total energy-change (2. order) : 0.1200515E+04  (-0.4772639E+04)
 number of electron     144.0000000 magnetization 
 augmentation part      144.0000000 magnetization 

 Free energy of the ion-electron system (eV)
  ---------------------------------------------------
  alpha Z        PSCENC =       170.45750602
  Ewald energy   TEWEN  =     12318.23131006
  -Hartree energ DENC   =    -18429.17337169
  -exchange      EXHF   =         0.00000000
  -V(xc)+E(xc)   XCENC  =        37.95449373
  PAW double counting   =      3696.57165193    -3386.34934349
  entropy T*S    EENTRO =         0.00000000
  eigenvalues    EBANDS =      -476.32837178
  atomic energy  EATOM  =      7269.15145414
  Solvation  Ediel_sol  =         0.00000000
  ---------------------------------------------------
  free energy    TOTEN  =      1200.51532893 eV

  energy without entropy =     1200.51532893  energy(sigma->0) =     1200.51532893


--------------------------------------------------------------------------------------------------------




--------------------------------------- Iteration      1(   2)  ---------------------------------------


     EDDAV:  cpu time    3.4092: real time    3.5129
 BZINTS: Fermi energy: -2.031984;144.000000 electrons
         Band energy:***********;  BLOECHL correction:  0.000000
       DOS:  cpu time    0.0022: real time    0.0022
    --------------------------------------------
      LOOP:  cpu time    3.4114: real time    3.5151

 eigenvalue-minimisations  :  3808
 total energy-change (2. order) :-0.1122203E+04  (-0.1092866E+04)
 number of electron     144.0000000 magnetization 
 augmentation part      144.0000000 magnetization 

 Free energy of the ion-electron system (eV)
  ---------------------------------------------------
  alpha Z        PSCENC =       170.45750602
  Ewald energy   TEWEN  =     12318.23131006
  -Hartree energ DENC   =    -18429.17337169
  -exchange      EXHF   =         0.00000000
  -V(xc)+E(xc)   XCENC  =        37.95449373
  PAW double counting   =      3696.57165193    -3386.34934349
  entropy T*S    EENTRO =         0.00000000
  eigenvalues    EBANDS =     -1598.53184777
  atomic energy  EATOM  =      7269.15145414
  Solvation  Ediel_sol  =         0.00000000
  ---------------------------------------------------
  free energy    TOTEN  =        78.31185294 eV

  energy without entropy =       78.31185294  energy(sigma->0) =       78.31185294


--------------------------------------------------------------------------------------------------------




--------------------------------------- Iteration      1(   3)  ---------------------------------------


     EDDAV:  cpu time    3.0003: real time    3.1155
 BZINTS: Fermi energy: -3.389710;144.000000 electrons
         Band energy:***********;  BLOECHL correction:  0.000000
       DOS:  cpu time    0.0021: real time    0.0021
    --------------------------------------------
      LOOP:  cpu time    3.0024: real time    3.1176

 eigenvalue-minimisations  :  3232
 total energy-change (2. order) :-0.1720772E+03  (-0.1713654E+03)
 number of electron     144.0000000 magnetization 
 augmentation part      144.0000000 magnetization 

 Free energy of the ion-electron system (eV)
  ---------------------------------------------------
  alpha Z        PSCENC =       170.45750602
  Ewald energy   TEWEN  =     12318.23131006
  -Hartree energ DENC   =    -18429.17337169
  -exchange      EXHF   =         0.00000000
  -V(xc)+E(xc)   XCENC  =        37.95449373
  PAW double counting   =      3696.57165193    -3386.34934349
  entropy T*S    EENTRO =         0.00000000
  eigenvalues    EBANDS =     -1770.60908903
  atomic energy  EATOM  =      7269.15145414
  Solvation  Ediel_sol  =         0.00000000
  ---------------------------------------------------
  free energy    TOTEN  =       -93.76538832 eV

  energy without entropy =      -93.76538832  energy(sigma->0) =      -93.76538832


--------------------------------------------------------------------------------------------------------




--------------------------------------- Iteration      1(   4)  ---------------------------------------


     EDDAV:  cpu time    3.4234: real time    3.4563
 BZINTS: Fermi energy: -3.415857;144.000000 electrons
         Band energy:***********;  BLOECHL correction:  0.000000
       DOS:  cpu time    0.0023: real time    0.0023
    --------------------------------------------
      LOOP:  cpu time    3.4257: real time    3.4586

 eigenvalue-minimisations  :  3736
 total energy-change (2. order) :-0.5989448E+01  (-0.5973025E+01)
 number of electron     144.0000000 magnetization 
 augmentation part      144.0000000 magnetization 

 Free energy of the ion-electron system (eV)
  ---------------------------------------------------
  alpha Z        PSCENC =       170.45750602
  Ewald energy   TEWEN  =     12318.23131006
  -Hartree energ DENC   =    -18429.17337169
  -exchange      EXHF   =         0.00000000
  -V(xc)+E(xc)   XCENC  =        37.95449373
  PAW double counting   =      3696.57165193    -3386.34934349
  entropy T*S    EENTRO =         0.00000000
  eigenvalues    EBANDS =     -1776.59853715
  atomic energy  EATOM  =      7269.15145414
  Solvation  Ediel_sol  =         0.00000000
  ---------------------------------------------------
  free energy    TOTEN  =       -99.75483644 eV

  energy without entropy =      -99.75483644  energy(sigma->0) =      -99.75483644


--------------------------------------------------------------------------------------------------------




--------------------------------------- Iteration      1(   5)  ---------------------------------------


     EDDAV:  cpu time    3.6770: real time    3.6963
 BZINTS: Fermi energy: -3.456420;144.000000 electrons
         Band energy:***********;  BLOECHL correction:  0.000000
       DOS:  cpu time    0.0020: real time    0.0020
    CHARGE:  cpu time    0.1740: real time    0.1744
    MIXING:  cpu time    0.0053: real time    0.0251
    --------------------------------------------
      LOOP:  cpu time    3.8583: real time    3.8978

 eigenvalue-minimisations  :  4184
 total energy-change (2. order) :-0.2768538E+00  (-0.2767705E+00)
 number of electron     144.0000004 magnetization 
 augmentation part      -17.6765154 magnetization 

 Broyden mixing:
  rms(total) = 0.90174E+00    rms(broyden)= 0.90174E+00
  rms(prec ) = 0.11860E+01
  weight for this iteration     100.00

 Free energy of the ion-electron system (eV)
  ---------------------------------------------------
  alpha Z        PSCENC =       170.45750602
  Ewald energy   TEWEN  =     12318.23131006
  -Hartree energ DENC   =    -18429.17337169
  -exchange      EXHF   =         0.00000000
  -V(xc)+E(xc)   XCENC  =        37.95449373
  PAW double counting   =      3696.57165193    -3386.34934349
  entropy T*S    EENTRO =         0.00000000
  eigenvalues    EBANDS =     -1776.87539099
  atomic energy  EATOM  =      7269.15145414
  Solvation  Ediel_sol  =         0.00000000
  ---------------------------------------------------
  free energy    TOTEN  =      -100.03169028 eV

  energy without entropy =     -100.03169028  energy(sigma->0) =     -100.03169028


--------------------------------------------------------------------------------------------------------




--------------------------------------- Iteration      1(   6)  ---------------------------------------


    POTLOK:  cpu time    2.4058: real time    2.4215
    SETDIJ:  cpu time    0.1582: real time    0.1586
     EDDAV:  cpu time    2.7669: real time    2.7734
 BZINTS: Fermi energy: -2.249291;144.000000 electrons
         Band energy:***********;  BLOECHL correction:  0.000000
       DOS:  cpu time    0.0022: real time    0.0022
    CHARGE:  cpu time    0.1717: real time    0.1721
    MIXING:  cpu time    0.0201: real time    0.0201
    --------------------------------------------
      LOOP:  cpu time    5.5249: real time    5.5480

 eigenvalue-minimisations  :  3008
 total energy-change (2. order) : 0.8083845E+01  (-0.2018140E+01)
 number of electron     144.0000003 magnetization 
 augmentation part      -17.5616696 magnetization 

 Broyden mixing:
  rms(total) = 0.46206E+00    rms(broyden)= 0.46206E+00
  rms(prec ) = 0.58255E+00
  weight for this iteration     100.00

 eigenvalues of (default mixing * dielectric matrix)
  average eigenvalue GAMMA=   1.5357
  1.5357

 Free energy of the ion-electron system (eV)
  ---------------------------------------------------
  alpha Z        PSCENC =       170.45750602
  Ewald energy   TEWEN  =     12318.23131006
  -Hartree energ DENC   =    -18527.74717514
  -exchange      EXHF   =         0.00000000
  -V(xc)+E(xc)   XCENC  =        40.54703826
  PAW double counting   =      3733.82409415    -3430.66075131
  entropy T*S    EENTRO =         0.00000000
  eigenvalues    EBANDS =     -1665.75132148
  atomic energy  EATOM  =      7269.15145414
  Solvation  Ediel_sol  =         0.00000000
  ---------------------------------------------------
  free energy    TOTEN  =       -91.94784528 eV

  energy without entropy =      -91.94784528  energy(sigma->0) =      -91.94784528


--------------------------------------------------------------------------------------------------------




--------------------------------------- Iteration      1(   7)  ---------------------------------------


    POTLOK:  cpu time    2.4232: real time    2.4392
    SETDIJ:  cpu time    0.3477: real time    0.3485
     EDDAV:  cpu time    3.1209: real time    3.1283
 BZINTS: Fermi energy: -1.432579;144.000000 electrons
         Band energy:***********;  BLOECHL correction:  0.000000
       DOS:  cpu time    0.0021: real time    0.0021
    CHARGE:  cpu time    0.1657: real time    0.1661
    MIXING:  cpu time    0.0050: real time    0.0054
    --------------------------------------------
      LOOP:  cpu time    6.0646: real time    6.0895

 eigenvalue-minimisations  :  3480
 total energy-change (2. order) : 0.1319879E+01  (-0.9570841E+00)
 number of electron     144.0000003 magnetization 
 augmentation part      -17.6241769 magnetization 

 Broyden mixing:
  rms(total) = 0.24542E+00    rms(broyden)= 0.24542E+00
  rms(prec ) = 0.29475E+00
  weight for this iteration     100.00

 eigenvalues of (default mixing * dielectric matrix)
  average eigenvalue GAMMA=   1.8387
  1.8387  1.8387

 Free energy of the ion-electron system (eV)
  ---------------------------------------------------
  alpha Z        PSCENC =       170.45750602
  Ewald energy   TEWEN  =     12318.23131006
  -Hartree energ DENC   =    -18607.03685324
  -exchange      EXHF   =         0.00000000
  -V(xc)+E(xc)   XCENC  =        42.73333058
  PAW double counting   =      3780.88291646    -3483.47251409
  entropy T*S    EENTRO =         0.00000000
  eigenvalues    EBANDS =     -1581.57511595
  atomic energy  EATOM  =      7269.15145414
  Solvation  Ediel_sol  =         0.00000000
  ---------------------------------------------------
  free energy    TOTEN  =       -90.62796601 eV

  energy without entropy =      -90.62796601  energy(sigma->0) =      -90.62796601


--------------------------------------------------------------------------------------------------------




--------------------------------------- Iteration      1(   8)  ---------------------------------------


    POTLOK:  cpu time    2.4062: real time    2.4223
    SETDIJ:  cpu time    0.7350: real time    0.7368
     EDDAV:  cpu time    2.8346: real time    2.8413
 BZINTS: Fermi energy: -1.279541;144.000000 electrons
         Band energy:***********;  BLOECHL correction:  0.000000
       DOS:  cpu time    0.0029: real time    0.0029
    CHARGE:  cpu time    0.1746: real time    0.1750
    MIXING:  cpu time    0.0082: real time    0.0087
    --------------------------------------------
      LOOP:  cpu time    6.1615: real time    6.1870

 eigenvalue-minimisations  :  3120
 total energy-change (2. order) : 0.2583711E+00  (-0.3491007E+00)
 number of electron     144.0000003 magnetization 
 augmentation part      -17.7361250 magnetization 

 Broyden mixing:
  rms(total) = 0.11563E+00    rms(broyden)= 0.11563E+00
  rms(prec ) = 0.18877E+00
  weight for this iteration     100.00

 eigenvalues of (default mixing * dielectric matrix)
  average eigenvalue GAMMA=   1.6775
  2.6345  1.1990  1.1990

 Free energy of the ion-electron system (eV)
  ---------------------------------------------------
  alpha Z        PSCENC =       170.45750602
  Ewald energy   TEWEN  =     12318.23131006
  -Hartree energ DENC   =    -18640.54662317
  -exchange      EXHF   =         0.00000000
  -V(xc)+E(xc)   XCENC  =        43.67713704
  PAW double counting   =      3828.95782781    -3533.40340115
  entropy T*S    EENTRO =         0.00000000
  eigenvalues    EBANDS =     -1546.89480569
  atomic energy  EATOM  =      7269.15145414
  Solvation  Ediel_sol  =         0.00000000
  ---------------------------------------------------
  free energy    TOTEN  =       -90.36959493 eV

  energy without entropy =      -90.36959493  energy(sigma->0) =      -90.36959493


--------------------------------------------------------------------------------------------------------




--------------------------------------- Iteration      1(   9)  ---------------------------------------


    POTLOK:  cpu time    2.4025: real time    2.4191
    SETDIJ:  cpu time    0.7733: real time    0.7751
     EDDAV:  cpu time    2.8041: real time    2.8108
 BZINTS: Fermi energy: -0.843634;144.000000 electrons
         Band energy:***********;  BLOECHL correction:  0.000000
       DOS:  cpu time    0.0025: real time    0.0025
    CHARGE:  cpu time    0.1679: real time    0.1683
    MIXING:  cpu time    0.0070: real time    0.0070
    --------------------------------------------
      LOOP:  cpu time    6.1572: real time    6.1828

 eigenvalue-minimisations  :  3096
 total energy-change (2. order) : 0.2650643E+00  (-0.1192595E+00)
 number of electron     144.0000003 magnetization 
 augmentation part      -17.7051694 magnetization 

 Broyden mixing:
  rms(total) = 0.55833E-01    rms(broyden)= 0.55832E-01
  rms(prec ) = 0.77156E-01
  weight for this iteration     100.00

 eigenvalues of (default mixing * dielectric matrix)
  average eigenvalue GAMMA=   1.4054
  2.5688  1.2099  1.2099  0.6330

 Free energy of the ion-electron system (eV)
  ---------------------------------------------------
  alpha Z        PSCENC =       170.45750602
  Ewald energy   TEWEN  =     12318.23131006
  -Hartree energ DENC   =    -18682.43019029
  -exchange      EXHF   =         0.00000000
  -V(xc)+E(xc)   XCENC  =        44.57926486
  PAW double counting   =      3840.73718324    -3546.56164645
  entropy T*S    EENTRO =         0.00000000
  eigenvalues    EBANDS =     -1504.26941222
  atomic energy  EATOM  =      7269.15145414
  Solvation  Ediel_sol  =         0.00000000
  ---------------------------------------------------
  free energy    TOTEN  =       -90.10453064 eV

  energy without entropy =      -90.10453064  energy(sigma->0) =      -90.10453064


--------------------------------------------------------------------------------------------------------




--------------------------------------- Iteration      1(  10)  ---------------------------------------


    POTLOK:  cpu time    2.4010: real time    2.4178
    SETDIJ:  cpu time    0.3950: real time    0.3960
     EDDAV:  cpu time    3.1222: real time    3.1296
 BZINTS: Fermi energy: -0.808647;144.000000 electrons
         Band energy:***********;  BLOECHL correction:  0.000000
       DOS:  cpu time    0.0022: real time    0.0022
    CHARGE:  cpu time    0.1755: real time    0.1759
    MIXING:  cpu time    0.0058: real time    0.0059
    --------------------------------------------
      LOOP:  cpu time    6.1018: real time    6.1274

 eigenvalue-minimisations  :  3496
 total energy-change (2. order) : 0.1174457E-01  (-0.2208530E-01)
 number of electron     144.0000003 magnetization 
 augmentation part      -17.7218317 magnetization 

 Broyden mixing:
  rms(total) = 0.39978E-01    rms(broyden)= 0.39978E-01
  rms(prec ) = 0.59923E-01
  weight for this iteration     100.00

 eigenvalues of (default mixing * dielectric matrix)
  average eigenvalue GAMMA=   1.5583
  2.4031  2.3598  1.1403  0.9442  0.9442

 Free energy of the ion-electron system (eV)
  ---------------------------------------------------
  alpha Z        PSCENC =       170.45750602
  Ewald energy   TEWEN  =     12318.23131006
  -Hartree energ DENC   =    -18689.30097548
  -exchange      EXHF   =         0.00000000
  -V(xc)+E(xc)   XCENC  =        44.56779765
  PAW double counting   =      3835.69423153    -3541.16536907
  entropy T*S    EENTRO =         0.00000000
  eigenvalues    EBANDS =     -1497.72874093
  atomic energy  EATOM  =      7269.15145414
  Solvation  Ediel_sol  =         0.00000000
  ---------------------------------------------------
  free energy    TOTEN  =       -90.09278607 eV

  energy without entropy =      -90.09278607  energy(sigma->0) =      -90.09278607


--------------------------------------------------------------------------------------------------------




--------------------------------------- Iteration      1(  11)  ---------------------------------------


    POTLOK:  cpu time    2.3968: real time    2.4128
    SETDIJ:  cpu time    0.4847: real time    0.4858
     EDDAV:  cpu time    2.9906: real time    2.9977
 BZINTS: Fermi energy: -0.792342;144.000000 electrons
         Band energy:***********;  BLOECHL correction:  0.000000
       DOS:  cpu time    0.0022: real time    0.0022
    CHARGE:  cpu time    0.1716: real time    0.1720
    MIXING:  cpu time    0.0108: real time    0.0108
    --------------------------------------------
      LOOP:  cpu time    6.0567: real time    6.0814

 eigenvalue-minimisations  :  3176
 total energy-change (2. order) : 0.6978799E-01  (-0.6354594E-02)
 number of electron     144.0000003 magnetization 
 augmentation part      -17.7248102 magnetization 

 Broyden mixing:
  rms(total) = 0.15880E-01    rms(broyden)= 0.15880E-01
  rms(prec ) = 0.31364E-01
  weight for this iteration     100.00

 eigenvalues of (default mixing * dielectric matrix)
  average eigenvalue GAMMA=   1.5903
  2.7309  2.7309  1.2750  0.8886  0.9581  0.9581

 Free energy of the ion-electron system (eV)
  ---------------------------------------------------
  alpha Z        PSCENC =       170.45750602
  Ewald energy   TEWEN  =     12318.23131006
  -Hartree energ DENC   =    -18705.23721217
  -exchange      EXHF   =         0.00000000
  -V(xc)+E(xc)   XCENC  =        44.76488923
  PAW double counting   =      3836.23645383    -3541.43022932
  entropy T*S    EENTRO =         0.00000000
  eigenvalues    EBANDS =     -1482.19716988
  atomic energy  EATOM  =      7269.15145414
  Solvation  Ediel_sol  =         0.00000000
  ---------------------------------------------------
  free energy    TOTEN  =       -90.02299808 eV

  energy without entropy =      -90.02299808  energy(sigma->0) =      -90.02299808


--------------------------------------------------------------------------------------------------------




--------------------------------------- Iteration      1(  12)  ---------------------------------------


    POTLOK:  cpu time    2.4046: real time    2.4208
    SETDIJ:  cpu time    0.3152: real time    0.3159
     EDDAV:  cpu time    3.0167: real time    3.0238
 BZINTS: Fermi energy: -0.640375;144.000000 electrons
         Band energy:***********;  BLOECHL correction:  0.000000
       DOS:  cpu time    0.0025: real time    0.0025
    CHARGE:  cpu time    0.1701: real time    0.1705
    MIXING:  cpu time    0.0094: real time    0.0095
    --------------------------------------------
      LOOP:  cpu time    5.9185: real time    5.9430

 eigenvalue-minimisations  :  3384
 total energy-change (2. order) :-0.2686389E-03  (-0.1438575E-02)
 number of electron     144.0000003 magnetization 
 augmentation part      -17.7193202 magnetization 

 Broyden mixing:
  rms(total) = 0.11466E-01    rms(broyden)= 0.11466E-01
  rms(prec ) = 0.19806E-01
  weight for this iteration     100.00

 eigenvalues of (default mixing * dielectric matrix)
  average eigenvalue GAMMA=   1.7191
  3.4060  2.6216  1.9989  1.1182  1.1182  0.8854  0.8854

 Free energy of the ion-electron system (eV)
  ---------------------------------------------------
  alpha Z        PSCENC =       170.45750602
  Ewald energy   TEWEN  =     12318.23131006
  -Hartree energ DENC   =    -18716.76846284
  -exchange      EXHF   =         0.00000000
  -V(xc)+E(xc)   XCENC  =        44.81779574
  PAW double counting   =      3833.79264919    -3538.83698896
  entropy T*S    EENTRO =         0.00000000
  eigenvalues    EBANDS =     -1470.86853008
  atomic energy  EATOM  =      7269.15145414
  Solvation  Ediel_sol  =         0.00000000
  ---------------------------------------------------
  free energy    TOTEN  =       -90.02326672 eV

  energy without entropy =      -90.02326672  energy(sigma->0) =      -90.02326672


--------------------------------------------------------------------------------------------------------




--------------------------------------- Iteration      1(  13)  ---------------------------------------


    POTLOK:  cpu time    2.4106: real time    2.4266
    SETDIJ:  cpu time    0.5226: real time    0.5239
     EDDAV:  cpu time    3.1216: real time    3.1290
 BZINTS: Fermi energy: -0.603069;144.000000 electrons
         Band energy:***********;  BLOECHL correction:  0.000000
       DOS:  cpu time    0.0023: real time    0.0023
    CHARGE:  cpu time    0.1638: real time    0.1642
    MIXING:  cpu time    0.0083: real time    0.0083
    --------------------------------------------
      LOOP:  cpu time    6.2291: real time    6.2543

 eigenvalue-minimisations  :  3504
 total energy-change (2. order) :-0.1877671E-02  (-0.6818443E-03)
 number of electron     144.0000003 magnetization 
 augmentation part      -17.7208894 magnetization 

 Broyden mixing:
  rms(total) = 0.56383E-02    rms(broyden)= 0.56383E-02
  rms(prec ) = 0.97008E-02
  weight for this iteration     100.00

 eigenvalues of (default mixing * dielectric matrix)
  average eigenvalue GAMMA=   1.7756
  3.9521  2.8414  2.3278  1.2232  1.2232  0.8900  0.8735  0.8735

 Free energy of the ion-electron system (eV)
  ---------------------------------------------------
  alpha Z        PSCENC =       170.45750602
  Ewald energy   TEWEN  =     12318.23131006
  -Hartree energ DENC   =    -18725.74024429
  -exchange      EXHF   =         0.00000000
  -V(xc)+E(xc)   XCENC  =        44.85737567
  PAW double counting   =      3832.31701288    -3537.44757503
  entropy T*S    EENTRO =         0.00000000
  eigenvalues    EBANDS =     -1461.85198384
  atomic energy  EATOM  =      7269.15145414
  Solvation  Ediel_sol  =         0.00000000
  ---------------------------------------------------
  free energy    TOTEN  =       -90.02514439 eV

  energy without entropy =      -90.02514439  energy(sigma->0) =      -90.02514439


--------------------------------------------------------------------------------------------------------




--------------------------------------- Iteration      1(  14)  ---------------------------------------


    POTLOK:  cpu time    2.4080: real time    2.4245
    SETDIJ:  cpu time    0.1935: real time    0.1940
     EDDAV:  cpu time    2.7560: real time    2.7625
 BZINTS: Fermi energy: -0.586961;144.000000 electrons
         Band energy:***********;  BLOECHL correction:  0.000000
       DOS:  cpu time    0.0022: real time    0.0022
    CHARGE:  cpu time    0.2019: real time    0.2023
    MIXING:  cpu time    0.0095: real time    0.0095
    --------------------------------------------
      LOOP:  cpu time    5.5710: real time    5.5950

 eigenvalue-minimisations  :  2928
 total energy-change (2. order) : 0.7335051E-02  (-0.2636993E-03)
 number of electron     144.0000003 magnetization 
 augmentation part      -17.7209066 magnetization 

 Broyden mixing:
  rms(total) = 0.45718E-02    rms(broyden)= 0.45718E-02
  rms(prec ) = 0.73850E-02
  weight for this iteration     100.00

 eigenvalues of (default mixing * dielectric matrix)
  average eigenvalue GAMMA=   1.8672
  4.5265  3.1014  2.0424  2.0424  0.8904  0.8904  1.1368  1.1368  1.0373

 Free energy of the ion-electron system (eV)
  ---------------------------------------------------
  alpha Z        PSCENC =       170.45750602
  Ewald energy   TEWEN  =     12318.23131006
  -Hartree energ DENC   =    -18729.34556066
  -exchange      EXHF   =         0.00000000
  -V(xc)+E(xc)   XCENC  =        44.87236335
  PAW double counting   =      3831.64676734    -3536.78509713
  entropy T*S    EENTRO =         0.00000000
  eigenvalues    EBANDS =     -1458.24655246
  atomic energy  EATOM  =      7269.15145414
  Solvation  Ediel_sol  =         0.00000000
  ---------------------------------------------------
  free energy    TOTEN  =       -90.01780934 eV

  energy without entropy =      -90.01780934  energy(sigma->0) =      -90.01780934


--------------------------------------------------------------------------------------------------------




--------------------------------------- Iteration      1(  15)  ---------------------------------------


    POTLOK:  cpu time    2.4099: real time    2.4264
    SETDIJ:  cpu time    0.1660: real time    0.1664
     EDDAV:  cpu time    2.6849: real time    2.6912
 BZINTS: Fermi energy: -0.578836;144.000000 electrons
         Band energy:***********;  BLOECHL correction:  0.000000
       DOS:  cpu time    0.0022: real time    0.0022
    CHARGE:  cpu time    0.1861: real time    0.1866
    MIXING:  cpu time    0.0107: real time    0.0107
    --------------------------------------------
      LOOP:  cpu time    5.4597: real time    5.4834

 eigenvalue-minimisations  :  2904
 total energy-change (2. order) : 0.3247440E-03  (-0.2471159E-03)
 number of electron     144.0000003 magnetization 
 augmentation part      -17.7220697 magnetization 

 Broyden mixing:
  rms(total) = 0.16850E-02    rms(broyden)= 0.16850E-02
  rms(prec ) = 0.33311E-02
  weight for this iteration     100.00

 eigenvalues of (default mixing * dielectric matrix)
  average eigenvalue GAMMA=   1.9345
  5.4349  3.2388  2.5735  1.7705  0.8912  0.8912  1.2786  1.2786  0.9936  0.9936

 Free energy of the ion-electron system (eV)
  ---------------------------------------------------
  alpha Z        PSCENC =       170.45750602
  Ewald energy   TEWEN  =     12318.23131006
  -Hartree energ DENC   =    -18731.39619868
  -exchange      EXHF   =         0.00000000
  -V(xc)+E(xc)   XCENC  =        44.86990509
  PAW double counting   =      3832.12032843    -3537.24148641
  entropy T*S    EENTRO =         0.00000000
  eigenvalues    EBANDS =     -1456.21030324
  atomic energy  EATOM  =      7269.15145414
  Solvation  Ediel_sol  =         0.00000000
  ---------------------------------------------------
  free energy    TOTEN  =       -90.01748459 eV

  energy without entropy =      -90.01748459  energy(sigma->0) =      -90.01748459


--------------------------------------------------------------------------------------------------------




--------------------------------------- Iteration      1(  16)  ---------------------------------------


    POTLOK:  cpu time    2.4036: real time    2.4199
    SETDIJ:  cpu time    0.3862: real time    0.3871
     EDDAV:  cpu time    2.7731: real time    2.7796
 BZINTS: Fermi energy: -0.569847;144.000000 electrons
         Band energy:***********;  BLOECHL correction:  0.000000
       DOS:  cpu time    0.0023: real time    0.0023
    CHARGE:  cpu time    0.1668: real time    0.1672
    MIXING:  cpu time    0.0113: real time    0.0113
    --------------------------------------------
      LOOP:  cpu time    5.7433: real time    5.7674

 eigenvalue-minimisations  :  3024
 total energy-change (2. order) : 0.3399846E-04  (-0.1551417E-03)
 number of electron     144.0000003 magnetization 
 augmentation part      -17.7219935 magnetization 

 Broyden mixing:
  rms(total) = 0.12760E-02    rms(broyden)= 0.12760E-02
  rms(prec ) = 0.23635E-02
  weight for this iteration     100.00

 eigenvalues of (default mixing * dielectric matrix)
  average eigenvalue GAMMA=   2.0171
  5.8626  3.5098  2.4108  2.4108  1.6444  0.8928  0.8928  1.2784  1.2784  1.0035
  1.0035

 Free energy of the ion-electron system (eV)
  ---------------------------------------------------
  alpha Z        PSCENC =       170.45750602
  Ewald energy   TEWEN  =     12318.23131006
  -Hartree energ DENC   =    -18732.82998124
  -exchange      EXHF   =         0.00000000
  -V(xc)+E(xc)   XCENC  =        44.87290204
  PAW double counting   =      3832.26481931    -3537.39825738
  entropy T*S    EENTRO =         0.00000000
  eigenvalues    EBANDS =     -1454.76720354
  atomic energy  EATOM  =      7269.15145414
  Solvation  Ediel_sol  =         0.00000000
  ---------------------------------------------------
  free energy    TOTEN  =       -90.01745059 eV

  energy without entropy =      -90.01745059  energy(sigma->0) =      -90.01745059


--------------------------------------------------------------------------------------------------------




--------------------------------------- Iteration      1(  17)  ---------------------------------------


    POTLOK:  cpu time    2.4238: real time    2.4402
    SETDIJ:  cpu time    0.6596: real time    0.6612
     EDDAV:  cpu time    2.7771: real time    2.7837
 BZINTS: Fermi energy: -0.558693;144.000000 electrons
         Band energy:***********;  BLOECHL correction:  0.000000
       DOS:  cpu time    0.0026: real time    0.0026
    CHARGE:  cpu time    0.1601: real time    0.1605
    MIXING:  cpu time    0.0090: real time    0.0090
    --------------------------------------------
      LOOP:  cpu time    6.0322: real time    6.0572

 eigenvalue-minimisations  :  2864
 total energy-change (2. order) : 0.1936000E-03  (-0.7360724E-04)
 number of electron     144.0000003 magnetization 
 augmentation part      -17.7219984 magnetization 

 Broyden mixing:
  rms(total) = 0.71438E-03    rms(broyden)= 0.71438E-03
  rms(prec ) = 0.13827E-02
  weight for this iteration     100.00

 eigenvalues of (default mixing * dielectric matrix)
  average eigenvalue GAMMA=   1.9931
  6.1594  3.6836  2.7228  2.2123  1.4870  1.4870  0.8925  0.8925  1.3492  1.0361
  1.0361  0.9583

 Free energy of the ion-electron system (eV)
  ---------------------------------------------------
  alpha Z        PSCENC =       170.45750602
  Ewald energy   TEWEN  =     12318.23131006
  -Hartree energ DENC   =    -18734.15186518
  -exchange      EXHF   =         0.00000000
  -V(xc)+E(xc)   XCENC  =        44.87789079
  PAW double counting   =      3832.25004370    -3537.37942834
  entropy T*S    EENTRO =         0.00000000
  eigenvalues    EBANDS =     -1453.45416819
  atomic energy  EATOM  =      7269.15145414
  Solvation  Ediel_sol  =         0.00000000
  ---------------------------------------------------
  free energy    TOTEN  =       -90.01725699 eV

  energy without entropy =      -90.01725699  energy(sigma->0) =      -90.01725699


--------------------------------------------------------------------------------------------------------




--------------------------------------- Iteration      1(  18)  ---------------------------------------


    POTLOK:  cpu time    2.4047: real time    2.4202
    SETDIJ:  cpu time    0.1883: real time    0.1887
     EDDAV:  cpu time    2.5343: real time    2.5403
 BZINTS: Fermi energy: -0.560689;144.000000 electrons
         Band energy:***********;  BLOECHL correction:  0.000000
       DOS:  cpu time    0.0022: real time    0.0022
    CHARGE:  cpu time    0.1611: real time    0.1615
    MIXING:  cpu time    0.0071: real time    0.0071
    --------------------------------------------
      LOOP:  cpu time    5.2978: real time    5.3201

 eigenvalue-minimisations  :  2560
 total energy-change (2. order) :-0.3873206E-03  (-0.1321523E-04)
 number of electron     144.0000003 magnetization 
 augmentation part      -17.7220498 magnetization 

 Broyden mixing:
  rms(total) = 0.50633E-03    rms(broyden)= 0.50633E-03
  rms(prec ) = 0.95994E-03
  weight for this iteration     100.00

 eigenvalues of (default mixing * dielectric matrix)
  average eigenvalue GAMMA=   2.0873
  6.5855  4.2208  2.7620  2.7620  1.9644  1.4003  1.4003  0.8920  0.8920  1.1511
  1.1511  0.9765  0.9765

 Free energy of the ion-electron system (eV)
  ---------------------------------------------------
  alpha Z        PSCENC =       170.45750602
  Ewald energy   TEWEN  =     12318.23131006
  -Hartree energ DENC   =    -18734.39090478
  -exchange      EXHF   =         0.00000000
  -V(xc)+E(xc)   XCENC  =        44.87872956
  PAW double counting   =      3832.29895979    -3537.42888110
  entropy T*S    EENTRO =         0.00000000
  eigenvalues    EBANDS =     -1453.21581801
  atomic energy  EATOM  =      7269.15145414
  Solvation  Ediel_sol  =         0.00000000
  ---------------------------------------------------
  free energy    TOTEN  =       -90.01764431 eV

  energy without entropy =      -90.01764431  energy(sigma->0) =      -90.01764431


--------------------------------------------------------------------------------------------------------




--------------------------------------- Iteration      1(  19)  ---------------------------------------


    POTLOK:  cpu time    2.4035: real time    2.4196
    SETDIJ:  cpu time    0.1776: real time    0.1781
     EDDAV:  cpu time    2.4906: real time    2.4965
 BZINTS: Fermi energy: -0.561171;144.000000 electrons
         Band energy:***********;  BLOECHL correction:  0.000000
       DOS:  cpu time    0.0023: real time    0.0023
    CHARGE:  cpu time    0.1717: real time    0.1721
    MIXING:  cpu time    0.0138: real time    0.0138
    --------------------------------------------
      LOOP:  cpu time    5.2594: real time    5.2824

 eigenvalue-minimisations  :  2624
 total energy-change (2. order) :-0.6540180E-03  (-0.1491016E-04)
 number of electron     144.0000003 magnetization 
 augmentation part      -17.7221926 magnetization 

 Broyden mixing:
  rms(total) = 0.38915E-03    rms(broyden)= 0.38915E-03
  rms(prec ) = 0.59664E-03
  weight for this iteration     100.00

 eigenvalues of (default mixing * dielectric matrix)
  average eigenvalue GAMMA=   2.1139
  6.7587  4.7517  2.8635  2.8635  1.8079  1.6156  1.6156  0.8922  0.8922  1.2915
  1.2915  1.0116  1.0116  0.9268

 Free energy of the ion-electron system (eV)
  ---------------------------------------------------
  alpha Z        PSCENC =       170.45750602
  Ewald energy   TEWEN  =     12318.23131006
  -Hartree energ DENC   =    -18734.83198475
  -exchange      EXHF   =         0.00000000
  -V(xc)+E(xc)   XCENC  =        44.87834230
  PAW double counting   =      3832.20838960    -3537.33474055
  entropy T*S    EENTRO =         0.00000000
  eigenvalues    EBANDS =     -1452.77857516
  atomic energy  EATOM  =      7269.15145414
  Solvation  Ediel_sol  =         0.00000000
  ---------------------------------------------------
  free energy    TOTEN  =       -90.01829833 eV

  energy without entropy =      -90.01829833  energy(sigma->0) =      -90.01829833


--------------------------------------------------------------------------------------------------------




--------------------------------------- Iteration      1(  20)  ---------------------------------------


    POTLOK:  cpu time    2.4104: real time    2.4276
    SETDIJ:  cpu time    0.3942: real time    0.3951
     EDDAV:  cpu time    2.4879: real time    2.4938
 BZINTS: Fermi energy: -0.565820;144.000000 electrons
         Band energy:***********;  BLOECHL correction:  0.000000
       DOS:  cpu time    0.0024: real time    0.0024
    CHARGE:  cpu time    0.1727: real time    0.1731
    MIXING:  cpu time    0.0115: real time    0.0116
    --------------------------------------------
      LOOP:  cpu time    5.4792: real time    5.5036

 eigenvalue-minimisations  :  2592
 total energy-change (2. order) :-0.2479313E-03  (-0.6544103E-05)
 number of electron     144.0000003 magnetization 
 augmentation part      -17.7222580 magnetization 

 Broyden mixing:
  rms(total) = 0.22731E-03    rms(broyden)= 0.22731E-03
  rms(prec ) = 0.35626E-03
  weight for this iteration     100.00

 eigenvalues of (default mixing * dielectric matrix)
  average eigenvalue GAMMA=   2.2802
  7.4024  6.4353  3.1466  3.1466  2.4887  1.5501  1.5501  0.8922  0.8922  1.3045
  1.3045  0.9617  0.9617  1.0831  1.0831

 Free energy of the ion-electron system (eV)
  ---------------------------------------------------
  alpha Z        PSCENC =       170.45750602
  Ewald energy   TEWEN  =     12318.23131006
  -Hartree energ DENC   =    -18734.86731939
  -exchange      EXHF   =         0.00000000
  -V(xc)+E(xc)   XCENC  =        44.87834151
  PAW double counting   =      3832.22309740    -3537.34919395
  entropy T*S    EENTRO =         0.00000000
  eigenvalues    EBANDS =     -1452.74374206
  atomic energy  EATOM  =      7269.15145414
  Solvation  Ediel_sol  =         0.00000000
  ---------------------------------------------------
  free energy    TOTEN  =       -90.01854626 eV

  energy without entropy =      -90.01854626  energy(sigma->0) =      -90.01854626


--------------------------------------------------------------------------------------------------------




--------------------------------------- Iteration      1(  21)  ---------------------------------------


    POTLOK:  cpu time    2.4044: real time    2.4216
    SETDIJ:  cpu time    0.6480: real time    0.6495
     EDDAV:  cpu time    2.5325: real time    2.5385
 BZINTS: Fermi energy: -0.571187;144.000000 electrons
         Band energy:***********;  BLOECHL correction:  0.000000
       DOS:  cpu time    0.0022: real time    0.0022
    CHARGE:  cpu time    0.1677: real time    0.1681
    MIXING:  cpu time    0.0078: real time    0.0078
    --------------------------------------------
      LOOP:  cpu time    5.7625: real time    5.7877

 eigenvalue-minimisations  :  2496
 total energy-change (2. order) :-0.1704214E-03  (-0.5207342E-05)
 number of electron     144.0000003 magnetization 
 augmentation part      -17.7222516 magnetization 

 Broyden mixing:
  rms(total) = 0.10533E-03    rms(broyden)= 0.10533E-03
  rms(prec ) = 0.12993E-03
  weight for this iteration     100.00

 eigenvalues of (default mixing * dielectric matrix)
  average eigenvalue GAMMA=   2.3093
  7.9056  6.8278  3.1847  3.1847  2.4778  1.8447  1.8447  0.8922  0.8922  1.3146
  1.3146  1.0753  1.0753  1.1390  0.9695  1.0057

 Free energy of the ion-electron system (eV)
  ---------------------------------------------------
  alpha Z        PSCENC =       170.45750602
  Ewald energy   TEWEN  =     12318.23131006
  -Hartree energ DENC   =    -18734.76782804
  -exchange      EXHF   =         0.00000000
  -V(xc)+E(xc)   XCENC  =        44.87705355
  PAW double counting   =      3832.21950978    -3537.34681413
  entropy T*S    EENTRO =         0.00000000
  eigenvalues    EBANDS =     -1452.84090807
  atomic energy  EATOM  =      7269.15145414
  Solvation  Ediel_sol  =         0.00000000
  ---------------------------------------------------
  free energy    TOTEN  =       -90.01871669 eV

  energy without entropy =      -90.01871669  energy(sigma->0) =      -90.01871669


--------------------------------------------------------------------------------------------------------




--------------------------------------- Iteration      1(  22)  ---------------------------------------


    POTLOK:  cpu time    2.4262: real time    2.4425
    SETDIJ:  cpu time    0.1982: real time    0.1986
     EDDAV:  cpu time    2.5035: real time    2.5094
 BZINTS: Fermi energy: -0.574923;144.000000 electrons
         Band energy:***********;  BLOECHL correction:  0.000000
       DOS:  cpu time    0.0022: real time    0.0022
    CHARGE:  cpu time    0.1692: real time    0.1696
    MIXING:  cpu time    0.0093: real time    0.0094
    --------------------------------------------
      LOOP:  cpu time    5.3086: real time    5.3317

 eigenvalue-minimisations  :  2552
 total energy-change (2. order) :-0.2030553E-04  (-0.3951878E-06)
 number of electron     144.0000003 magnetization 
 augmentation part      -17.7222099 magnetization 

 Broyden mixing:
  rms(total) = 0.71895E-04    rms(broyden)= 0.71895E-04
  rms(prec ) = 0.92395E-04
  weight for this iteration     100.00

 eigenvalues of (default mixing * dielectric matrix)
  average eigenvalue GAMMA=   2.3165
  8.6612  6.9789  3.2971  3.2971  2.5732  1.8770  1.8770  0.8922  0.8922  1.2551
  1.2551  1.3540  0.9597  0.9597  1.1182  1.0665  1.0665

 Free energy of the ion-electron system (eV)
  ---------------------------------------------------
  alpha Z        PSCENC =       170.45750602
  Ewald energy   TEWEN  =     12318.23131006
  -Hartree energ DENC   =    -18734.80610078
  -exchange      EXHF   =         0.00000000
  -V(xc)+E(xc)   XCENC  =        44.87715365
  PAW double counting   =      3832.20648742    -3537.33349430
  entropy T*S    EENTRO =         0.00000000
  eigenvalues    EBANDS =     -1452.80305320
  atomic energy  EATOM  =      7269.15145414
  Solvation  Ediel_sol  =         0.00000000
  ---------------------------------------------------
  free energy    TOTEN  =       -90.01873699 eV

  energy without entropy =      -90.01873699  energy(sigma->0) =      -90.01873699


--------------------------------------------------------------------------------------------------------




--------------------------------------- Iteration      1(  23)  ---------------------------------------


    POTLOK:  cpu time    2.4151: real time    2.4310
    SETDIJ:  cpu time    0.1700: real time    0.1704
     EDDAV:  cpu time    2.1024: real time    2.1074
 BZINTS: Fermi energy: -0.550065;144.000000 electrons
         Band energy:***********;  BLOECHL correction:  0.000000
       DOS:  cpu time    0.0020: real time    0.0020
    CHARGE:  cpu time    0.1684: real time    0.1688
    MIXING:  cpu time    0.0118: real time    0.0118
    --------------------------------------------
      LOOP:  cpu time    4.8697: real time    4.8913

 eigenvalue-minimisations  :  2056
 total energy-change (2. order) :-0.9095309E-05  (-0.1134013E-06)
 number of electron     144.0000003 magnetization 
 augmentation part      -17.7222105 magnetization 

 Broyden mixing:
  rms(total) = 0.28161E-04    rms(broyden)= 0.28161E-04
  rms(prec ) = 0.38298E-04
  weight for this iteration     100.00

 eigenvalues of (default mixing * dielectric matrix)
  average eigenvalue GAMMA=   2.3107
  8.7273  7.1538  3.3330  3.3330  2.7606  2.1121  1.7515  1.7515  0.8921  0.8921
  1.2529  1.2529  1.2388  0.9842  0.9842  1.0179  1.0774  1.0774

 Free energy of the ion-electron system (eV)
  ---------------------------------------------------
  alpha Z        PSCENC =       170.45750602
  Ewald energy   TEWEN  =     12318.23131006
  -Hartree energ DENC   =    -18734.77415478
  -exchange      EXHF   =         0.00000000
  -V(xc)+E(xc)   XCENC  =        44.87681633
  PAW double counting   =      3832.20623231    -3537.33337474
  entropy T*S    EENTRO =         0.00000000
  eigenvalues    EBANDS =     -1452.83453543
  atomic energy  EATOM  =      7269.15145414
  Solvation  Ediel_sol  =         0.00000000
  ---------------------------------------------------
  free energy    TOTEN  =       -90.01874609 eV

  energy without entropy =      -90.01874609  energy(sigma->0) =      -90.01874609


--------------------------------------------------------------------------------------------------------




--------------------------------------- Iteration      1(  24)  ---------------------------------------


    POTLOK:  cpu time    2.4084: real time    2.4250
    SETDIJ:  cpu time    0.4327: real time    0.4338
     EDDAV:  cpu time    2.0396: real time    2.0444
 BZINTS: Fermi energy: -0.553437;144.000000 electrons
         Band energy:***********;  BLOECHL correction:  0.000000
       DOS:  cpu time    0.0022: real time    0.0022
    CHARGE:  cpu time    0.1697: real time    0.1701
    MIXING:  cpu time    0.0090: real time    0.0090
    --------------------------------------------
      LOOP:  cpu time    5.0616: real time    5.0844

 eigenvalue-minimisations  :  1960
 total energy-change (2. order) :-0.1903170E-05  (-0.2831715E-07)
 number of electron     144.0000003 magnetization 
 augmentation part      -17.7222132 magnetization 

 Broyden mixing:
  rms(total) = 0.15646E-04    rms(broyden)= 0.15646E-04
  rms(prec ) = 0.22714E-04
  weight for this iteration     100.00

 eigenvalues of (default mixing * dielectric matrix)
  average eigenvalue GAMMA=   2.3065
  8.7894  7.2344  3.5150  3.5150  2.8728  2.1035  2.0201  2.0201  0.8921  0.8921
  1.2413  1.2413  1.2003  1.2003  1.0836  1.0836  0.9817  0.9685  0.9685

 Free energy of the ion-electron system (eV)
[...]
      7     -27.9325      2.00000
      8     -27.9321      2.00000
      9     -14.9926      2.00000
     10     -14.9923      2.00000
     11     -14.9316      2.00000
     12     -14.9316      2.00000
     13     -14.8687      2.00000
     14     -14.8687      2.00000
     15     -14.0629      2.00000
     16     -14.0619      2.00000
     17     -13.9407      2.00000
     18     -13.9366      2.00000
     19     -13.9235      2.00000
     20     -13.9210      2.00000
     21     -13.8861      2.00000
     22     -13.8803      2.00000
     23     -13.8491      2.00000
     24     -13.8481      2.00000
     25     -13.7782      2.00000
     26     -13.7699      2.00000
     27     -13.3108      2.00000
     28     -13.3012      2.00000
     29     -13.2679      2.00000
     30     -13.2605      2.00000
     31     -13.2324      2.00000
     32     -13.2315      2.00000
     33     -11.1137      2.00000
     34     -11.0992      2.00000
     35     -10.7164      2.00000
     36     -10.7002      2.00000
     37      -6.5721      2.00000
     38      -6.5522      2.00000
     39      -6.3200      2.00000
     40      -6.3075      2.00000
     41      -6.2373      2.00000
     42      -6.2235      2.00000
     43      -5.9842      2.00000
     44      -5.9706      2.00000
     45      -5.9250      2.00000
     46      -5.8745      2.00000
     47      -5.8266      2.00000
     48      -5.7145      2.00000
     49      -2.9222      2.00000
     50      -2.8269      2.00000
     51      -2.6692      2.00000
     52      -2.6088      2.00000
     53      -2.3566      2.00000
     54      -2.2614      2.00000
     55      -2.2387      2.00000
     56      -2.2162      2.00000
     57      -2.0379      2.00000
     58      -2.0130      2.00000
     59      -1.9320      2.00000
     60      -1.8511      2.00000
     61      -1.7551      2.00000
     62      -1.7016      2.00000
     63      -1.6086      2.00000
     64      -1.5221      2.00000
     65      -1.4010      2.00000
     66      -1.3282      2.00000
     67      -1.2674      2.00000
     68      -1.1570      2.00000
     69      -1.0333      2.00000
     70      -0.9262      2.00000
     71      -0.9118      2.00000
     72      -0.8404      2.00000
     73       0.1709      0.00000
     74       0.2143      0.00000
     75       0.3738      0.00000
     76       0.4193      0.00000
     77       0.5040      0.00000
     78       0.6220      0.00000
     79       0.7393      0.00000
     80       0.7542      0.00000
     81       0.7935      0.00000
     82       0.8655      0.00000
     83       1.0269      0.00000
     84       1.0618      0.00000
     85       1.1728      0.00000
     86       1.3591      0.00000
     87       1.4243      0.00000
     88       1.5493      0.00000

 k-point    15 :       0.0000    0.5000    0.4000
  band No.  band energies     occupation 
      1     -29.6813      2.00000
      2     -29.6813      2.00000
      3     -28.6647      2.00000
      4     -28.6647      2.00000
      5     -28.5241      2.00000
      6     -28.5241      2.00000
      7     -27.9323      2.00000
      8     -27.9323      2.00000
      9     -14.9919      2.00000
     10     -14.9919      2.00000
     11     -14.9324      2.00000
     12     -14.9324      2.00000
     13     -14.8707      2.00000
     14     -14.8706      2.00000
     15     -14.0617      2.00000
     16     -14.0617      2.00000
     17     -13.9405      2.00000
     18     -13.9405      2.00000
     19     -13.9247      2.00000
     20     -13.9247      2.00000
     21     -13.8836      2.00000
     22     -13.8836      2.00000
     23     -13.8514      2.00000
     24     -13.8514      2.00000
     25     -13.7733      2.00000
     26     -13.7733      2.00000
     27     -13.3059      2.00000
     28     -13.3058      2.00000
     29     -13.2639      2.00000
     30     -13.2639      2.00000
     31     -13.2317      2.00000
     32     -13.2317      2.00000
     33     -11.1006      2.00000
     34     -11.1006      2.00000
     35     -10.6988      2.00000
     36     -10.6988      2.00000
     37      -6.5910      2.00000
     38      -6.5910      2.00000
     39      -6.2883      2.00000
     40      -6.2883      2.00000
     41      -6.2277      2.00000
     42      -6.2277      2.00000
     43      -5.9540      2.00000
     44      -5.9539      2.00000
     45      -5.9106      2.00000
     46      -5.9106      2.00000
     47      -5.7674      2.00000
     48      -5.7673      2.00000
     49      -2.8307      2.00000
     50      -2.8307      2.00000
     51      -2.6574      2.00000
     52      -2.6574      2.00000
     53      -2.3066      2.00000
     54      -2.3066      2.00000
     55      -2.2394      2.00000
     56      -2.2394      2.00000
     57      -2.0261      2.00000
     58      -2.0261      2.00000
     59      -1.8389      2.00000
     60      -1.8389      2.00000
     61      -1.6455      2.00000
     62      -1.6455      2.00000
     63      -1.5982      2.00000
     64      -1.5982      2.00000
     65      -1.3829      2.00000
     66      -1.3829      2.00000
     67      -1.2082      2.00000
     68      -1.2082      2.00000
     69      -1.0242      2.00000
     70      -1.0242      2.00000
     71      -0.8747      2.00000
     72      -0.8747      2.00000
     73       0.1078      0.00000
     74       0.1078      0.00000
     75       0.3629      0.00000
     76       0.3630      0.00000
     77       0.5539      0.00000
     78       0.5539      0.00000
     79       0.7318      0.00000
     80       0.7319      0.00000
     81       0.7616      0.00000
     82       0.7616      0.00000
     83       1.0645      0.00000
     84       1.0646      0.00000
     85       1.2682      0.00000
     86       1.2683      0.00000
     87       1.4058      0.00000
     88       1.4058      0.00000


--------------------------------------------------------------------------------------------------------


 soft charge-density along one line, spin component           1
         0         1         2         3         4         5         6         7         8         9
 total charge-density along one line
 
 pseudopotential strength for first ion, spin component:           1
  4.886  -5.570  -0.000  -0.006  -0.024  -0.000  -0.004  -0.019
 -5.570  -2.760   0.000   0.001   0.004  -0.000  -0.001  -0.004
 -0.000   0.000  -6.818  -0.000  -0.000   1.887  -0.000  -0.000
 -0.006   0.001  -0.000  -6.814  -0.001  -0.000   1.897  -0.003
 -0.024   0.004  -0.000  -0.001  -6.814  -0.000  -0.003   1.897
 -0.000  -0.000   1.887  -0.000  -0.000   7.261  -0.000  -0.000
 -0.004  -0.001  -0.000   1.897  -0.003  -0.000   7.262  -0.000
 -0.019  -0.004  -0.000  -0.003   1.897  -0.000  -0.000   7.262
 -0.000   0.000  -0.012  -0.000  -0.000  -0.009  -0.000  -0.000
 -0.000   0.000  -0.001  -0.000  -0.000  -0.000  -0.000  -0.000
  0.002  -0.001   0.000  -0.004   0.006   0.000  -0.003   0.005
 -0.002   0.001  -0.000  -0.011  -0.002  -0.000  -0.008  -0.002
  0.003  -0.001   0.000  -0.001  -0.011   0.000  -0.001  -0.008
  0.000   0.000   0.001   0.000   0.000   0.000   0.000   0.000
  0.000   0.000   0.000   0.000   0.000  -0.000   0.000   0.000
 -0.000  -0.000  -0.000   0.000  -0.000  -0.000   0.000  -0.000
  0.000   0.000   0.000   0.000   0.000   0.000   0.000   0.000
 -0.000  -0.000  -0.000   0.000   0.000  -0.000   0.000   0.000
 total augmentation occupancy for first ion, spin component:           1
  2.108  -0.259   0.000   0.012   0.051   0.000  -0.005  -0.019   0.000   0.000   0.013  -0.008   0.030  -0.000   0.000  -0.008
 -0.259   0.634   0.000  -0.032  -0.133   0.000   0.012   0.032   0.000   0.000  -0.021   0.008  -0.057   0.000  -0.000   0.035
  0.000   0.000   2.012  -0.000   0.000  -0.015  -0.000  -0.000  -0.079   0.022   0.000   0.000   0.000   0.068  -0.043   0.000
  0.012  -0.032  -0.000   1.999   0.003   0.000  -0.006  -0.002   0.000   0.000  -0.044  -0.064  -0.015   0.000   0.000   0.043
  0.051  -0.133   0.000   0.003   1.995   0.000  -0.002  -0.004   0.000   0.000   0.034  -0.006  -0.050   0.000   0.000  -0.027
  0.000   0.000  -0.015   0.000   0.000   0.008   0.000   0.000   0.022  -0.009   0.000  -0.000   0.000  -0.030   0.014   0.000
 -0.005   0.012   0.000  -0.006  -0.002   0.000   0.005   0.000   0.000   0.000   0.016   0.015   0.005   0.000   0.000  -0.022
 -0.019   0.032  -0.000  -0.002  -0.004   0.000   0.000   0.004   0.000   0.000  -0.007   0.000   0.009   0.000   0.000   0.009
  0.000   0.000  -0.079   0.000  -0.000   0.022   0.000   0.000   0.143  -0.014   0.000   0.000   0.000  -0.183   0.020   0.000
  0.000   0.000   0.022   0.000   0.000  -0.009   0.000   0.000  -0.014   0.068   0.000   0.000  -0.000   0.019  -0.085   0.000
  0.013  -0.021   0.000  -0.044   0.034   0.000   0.016  -0.007   0.000  -0.000   0.120   0.048   0.018   0.000   0.000  -0.148
 -0.008   0.008   0.000  -0.064  -0.006   0.000   0.015   0.000   0.000   0.000   0.048   0.087   0.008   0.000   0.000  -0.068
  0.030  -0.057  -0.000  -0.015  -0.050   0.000   0.005   0.009   0.000  -0.000   0.018   0.008   0.093   0.000   0.000  -0.025
  0.000   0.000   0.068   0.000   0.000  -0.030   0.000   0.000  -0.183   0.019   0.000  -0.000   0.000   0.263  -0.035   0.000
 -0.000  -0.000  -0.043   0.000   0.000   0.014   0.000   0.000   0.020  -0.085   0.000   0.000   0.000  -0.035   0.116   0.000
 -0.008   0.035   0.000   0.043  -0.027  -0.000  -0.022   0.009   0.000   0.000  -0.148  -0.068  -0.025   0.000   0.000   0.204
  0.006  -0.024   0.000   0.053  -0.001   0.000  -0.022  -0.001   0.000  -0.000  -0.066  -0.111  -0.011  -0.000   0.000   0.104
 -0.022   0.069   0.000   0.022   0.042  -0.000  -0.008  -0.012   0.000   0.000  -0.026  -0.013  -0.123   0.000   0.000   0.041


------------------------ aborting loop because EDIFF is reached ----------------------------------------


    CHARGE:  cpu time    0.1928: real time    0.1933
    FORLOC:  cpu time    0.0093: real time    0.0093
    FORNL :  cpu time    0.5760: real time    0.5774
    STRESS:  cpu time    1.8253: real time    1.8297
    FORCOR:  cpu time    2.4225: real time    2.4282
    FORHAR:  cpu time    0.0212: real time    0.0213
    MIXING:  cpu time    0.0565: real time    0.0567
    OFIELD:  cpu time    0.0000: real time    0.0000

  FORCE on cell =-STRESS in cart. coord.  units (eV):
  Direction    XX          YY          ZZ          XY          YZ          ZX
  --------------------------------------------------------------------------------------
  Alpha Z   170.45751   170.45751   170.45751
  Ewald  -20097.76508 16475.55405 15940.42861    -0.00002     0.00000   137.95322
  Hartree-17012.37483 18082.39965 17664.75322     0.00000    -0.00000   103.67005
  E(xc)    -461.65681  -462.97489  -462.96618    -0.00000    -0.00000     0.08665
  Local   35692.52445-35993.18508-35032.56416     0.00001    -0.00000  -238.73105
  n-local   336.75364   337.05860   337.34554     0.06219    -0.20335    -1.83992
  augment  -167.74791  -168.04753  -167.88195    -0.00000    -0.00000     0.37404
  Kinetic  1531.93837  1547.13325  1539.29928    -0.01460    -0.84529    -1.37509
  Fock        0.00000     0.00000     0.00000     0.00000     0.00000     0.00000
  -------------------------------------------------------------------------------------
  Total      -7.87066   -11.60445   -11.12813     0.00000     0.00000     0.13791
  in kB      -6.67896    -9.84742    -9.44322     0.00000     0.00000     0.11703
  external pressure =       -8.66 kB  Pullay stress =        0.00 kB


 VOLUME and BASIS-vectors are now :
 -----------------------------------------------------------------------------
  energy-cutoff  :      500.00
  volume of cell :     1888.05
      direct lattice vectors                 reciprocal lattice vectors
    24.009468079  0.000000000  0.000000000     0.041650236  0.000000000  0.000000000
     0.000000000  6.777849674  0.000000000     0.000000000  0.147539419  0.000000000
     0.000000000  0.000000000 11.602143288     0.000000000  0.000000000  0.086190971

  length of vectors
    24.009468079  6.777849674 11.602143288     0.041650236  0.147539419  0.086190971


 FORCES acting on ions
    electron-ion (+dipol)            ewald-force                    non-local-force                 convergence-correction
 -----------------------------------------------------------------------------------------------
   0.792E+03 0.102E-04 0.434E+02   -.787E+03 0.983E-05 -.426E+02   -.400E+01 0.217E-18 -.792E+00   -.332E-03 -.225E-08 0.212E-04
   -.792E+03 -.634E-04 -.434E+02   0.787E+03 -.127E-04 0.426E+02   0.400E+01 -.487E-19 0.792E+00   0.332E-03 0.247E-08 -.212E-04
   0.773E+02 -.598E-04 -.340E+02   -.771E+02 -.191E-04 0.328E+02   -.279E+00 0.368E-19 0.119E+01   0.354E-04 0.382E-08 0.631E-04
   -.773E+02 0.119E-04 0.340E+02   0.771E+02 0.133E-04 -.328E+02   0.279E+00 -.316E-19 -.119E+01   -.354E-04 -.351E-08 -.631E-04
   0.637E+03 -.611E-04 -.503E+02   -.635E+03 -.168E-04 0.509E+02   -.191E+01 0.751E-18 -.557E+00   -.247E-03 0.307E-08 -.142E-03
   -.637E+03 0.904E-05 0.503E+02   0.635E+03 0.147E-04 -.509E+02   0.191E+01 0.836E-18 0.557E+00   0.247E-03 -.290E-08 0.142E-03
   0.370E+03 0.124E-04 -.543E+01   -.369E+03 0.136E-04 0.470E+01   -.111E+01 -.403E-17 0.727E+00   0.422E-04 -.336E-08 0.113E-03
   -.370E+03 -.613E-04 0.543E+01   0.369E+03 -.137E-04 -.470E+01   0.111E+01 -.487E-17 -.727E+00   -.422E-04 0.323E-08 -.113E-03
   0.277E+03 0.358E+02 -.460E+02   -.277E+03 -.375E+02 0.470E+02   -.192E+00 0.173E+01 -.942E+00   -.137E-04 0.212E-05 0.396E-05
   -.277E+03 -.358E+02 0.460E+02   0.277E+03 0.375E+02 -.470E+02   0.192E+00 -.173E+01 0.942E+00   0.137E-04 -.212E-05 -.397E-05
   0.127E+03 -.311E+02 0.282E+01   -.126E+03 0.325E+02 -.171E+01   -.545E+00 -.137E+01 -.111E+01   -.274E-04 -.400E-04 -.437E-04
   -.127E+03 0.311E+02 -.282E+01   0.126E+03 -.325E+02 0.171E+01   0.545E+00 0.137E+01 0.111E+01   0.274E-04 0.400E-04 0.437E-04
   -.277E+03 0.358E+02 0.460E+02   0.277E+03 -.375E+02 -.470E+02   0.192E+00 0.173E+01 0.942E+00   0.137E-04 0.212E-05 -.397E-05
   0.277E+03 -.358E+02 -.460E+02   -.277E+03 0.375E+02 0.470E+02   -.192E+00 -.173E+01 -.942E+00   -.137E-04 -.212E-05 0.396E-05
   -.127E+03 -.311E+02 -.282E+01   0.126E+03 0.325E+02 0.171E+01   0.545E+00 -.137E+01 0.111E+01   0.274E-04 -.400E-04 0.437E-04
   0.127E+03 0.311E+02 0.282E+01   -.126E+03 -.325E+02 -.171E+01   -.545E+00 0.137E+01 -.111E+01   -.274E-04 0.400E-04 -.437E-04
   0.335E+03 -.442E-05 0.458E+02   -.336E+03 -.608E-05 -.463E+02   0.144E+01 0.871E-19 0.450E+00   -.201E-04 0.945E-09 0.378E-04
   -.335E+03 0.615E-05 -.458E+02   0.336E+03 0.631E-05 0.463E+02   -.144E+01 -.423E-19 -.450E+00   0.201E-04 -.106E-08 -.378E-04
   0.325E+02 0.102E-04 -.108E+02   -.309E+02 0.772E-05 0.101E+02   -.135E+01 -.118E-19 0.702E+00   0.105E-04 -.146E-08 0.287E-04
   -.325E+02 -.109E-05 0.108E+02   0.309E+02 -.740E-05 -.101E+02   0.135E+01 0.544E-20 -.702E+00   -.105E-04 0.134E-08 -.287E-04
   0.246E+03 0.442E-05 0.849E+01   -.246E+03 0.812E-05 -.100E+02   -.674E+00 0.228E-17 0.153E+01   -.735E-04 -.127E-08 -.387E-04
   -.246E+03 -.577E-05 -.849E+01   0.246E+03 -.817E-05 0.100E+02   0.674E+00 0.237E-17 -.153E+01   0.735E-04 0.116E-08 0.387E-04
   0.161E+03 -.640E-05 0.604E+02   -.161E+03 -.775E-05 -.623E+02   -.923E+00 0.101E-16 0.186E+01   0.369E-05 0.124E-08 0.727E-04
   -.161E+03 0.372E-05 -.604E+02   0.161E+03 0.753E-05 0.623E+02   0.923E+00 0.777E-17 -.186E+01   -.369E-05 -.128E-08 -.727E-04
 -----------------------------------------------------------------------------------------------
   0.107E-03 -.206E-03 0.908E-04   0.000E+00 0.371E-13 0.284E-13   0.000E+00 0.245E-15 -.444E-15   -.342E-07 -.760E-10 -.507E-08
 
 
 POSITION                                       TOTAL-FORCE (eV/Angst)
 -----------------------------------------------------------------------------------
      0.13670      1.69446      8.19193         0.754312     -0.000000     -0.000457
      8.97277      5.08339      3.41021        -0.754312     -0.000000      0.000457
      4.36803      5.08339      2.16814        -0.080694      0.000000     -0.000584
      4.74143      1.69446      9.43400         0.080694     -0.000000      0.000584
      1.43529      5.08339     10.65034         0.746732     -0.000000     -0.000121
      7.67418      1.69446      0.95180        -0.746732     -0.000000      0.000121
      3.06944      1.69446      4.63032         0.340963      0.000000     -0.000259
      6.04002      5.08339      6.97183        -0.340963      0.000000      0.000259
      1.75027      0.48802      1.69285        -0.141794     -0.000188      0.000414
      7.35920      6.28983      9.90929         0.141794      0.000188     -0.000414
      2.75446      6.29549      7.64327         0.100392     -0.000093      0.000000
      6.35500      0.48236      3.95887        -0.100392      0.000093     -0.000000
      7.35920      3.87694      9.90929         0.141794     -0.000188     -0.000414
      1.75027      2.90091      1.69285        -0.141794      0.000188      0.000414
      6.35500      2.90656      3.95887        -0.100392     -0.000093     -0.000000
      2.75446      3.87129      7.64327         0.100392      0.000093      0.000000
      0.74693      5.08339      6.95713        -0.249436     -0.000000     -0.000072
      8.36254      1.69446      4.64502         0.249436      0.000000      0.000072
      3.75780      1.69446      0.99298         0.299531     -0.000000     -0.000659
      5.35166      5.08339     10.60916        -0.299531     -0.000000      0.000659
      1.78112      1.69446     11.17528        -0.256262      0.000000      0.000778
      7.32835      5.08339      0.42686         0.256262      0.000000     -0.000778
      2.72362      5.08339      5.52393        -0.215848      0.000000     -0.000031
      6.38585      1.69446      6.07821         0.215848     -0.000000      0.000031
 -----------------------------------------------------------------------------------
    total drift:                                0.000107     -0.000206      0.000091


--------------------------------------------------------------------------------------------------------



  FREE ENERGIE OF THE ION-ELECTRON SYSTEM (eV)
  ---------------------------------------------------
  free  energy   TOTEN  =       -90.01874845 eV

  energy  without entropy=      -90.01874845  energy(sigma->0) =      -90.01874845
 


--------------------------------------------------------------------------------------------------------


    POTLOK:  cpu time    2.5854: real time    2.5916


--------------------------------------------------------------------------------------------------------


 writing wavefunctions
     LOOP+:  cpu time14807.5874: real time14843.9277
    4ORBIT:  cpu time    0.0000: real time    0.0000
 BZINTS: Fermi energy: -0.556539;144.000000 electrons
         Band energy:***********;  BLOECHL correction:  0.000000

 total amount of memory used by VASP MPI-rank0    79348. kBytes
=======================================================================

   base      :      30000. kBytes
   nonlr-proj:       2642. kBytes
   fftplans  :       5898. kBytes
   grid      :       8824. kBytes
   one-center:         93. kBytes
   wavefun   :      31891. kBytes
 
  
  
 General timing and accounting informations for this job:
 ========================================================
  
                  Total CPU time used (sec):    14815.971
                            User time (sec):    14742.913
                          System time (sec):       73.058
                         Elapsed time (sec):    14853.946
  
                   Maximum memory used (kb):      302648.
                   Average memory used (kb):           0.
  
                          Minor page faults:       102996
                          Major page faults:          239
                 Voluntary context switches:        14105
