 vasp.5.4.4.18Apr17-6-g9f103f2a35 (build Nov 21 2017 15:30:27) complex          
  
 executed on             LinuxIFC date 2020.09.15  14:18:23
 running on   64 total cores
 distrk:  each k-point on   32 cores,    2 groups
 distr:  one band on NCORES_PER_BAND=   4 cores,    8 groups


--------------------------------------------------------------------------------------------------------


 INCAR:
 POTCAR:   PAW_PBE Ba_sv 06Sep2000                
 POTCAR:   PAW_PBE Si 05Jan2001                   

 ----------------------------------------------------------------------------- 
|                                                                             |
|           W    W    AA    RRRRR   N    N  II  N    N   GGGG   !!!           |
|           W    W   A  A   R    R  NN   N  II  NN   N  G    G  !!!           |
|           W    W  A    A  R    R  N N  N  II  N N  N  G       !!!           |
|           W WW W  AAAAAA  RRRRR   N  N N  II  N  N N  G  GGG   !            |
|           WW  WW  A    A  R   R   N   NN  II  N   NN  G    G                |
|           W    W  A    A  R    R  N    N  II  N    N   GGGG   !!!           |
|                                                                             |
|      You have enabled k-point parallelism (KPAR>1).                         |
|      This developmental code was originally  written by Paul Kent at ORNL,  |
|      and carefully double checked in Vienna.                                |
|      GW as well as linear response parallelism added by Martijn Marsman     |
|      and Georg Kresse.                                                      |
|      Carefully verify results versus KPAR=1.                                |
|      Report problems to Paul Kent and Vienna.                               |
|                                                                             |
 ----------------------------------------------------------------------------- 


 ----------------------------------------------------------------------------- 
|                                                                             |
|  ADVICE TO THIS USER RUNNING 'VASP/VAMP'   (HEAR YOUR MASTER'S VOICE ...):  |
|                                                                             |
|      You have switched on vdW-DFT.                                          |
|      This routine was written and supplied by Jiri Klimes.                  |
|      We recommed that you carefully read and cite the following             |
|      publication                                                            |
|      J. Klimes, D.R. Bowler, A. Michelides                                  |
|        J. Phys.: Cond Matt. 22 022201 (2010)                                |
|      J. Klimes, D.R. Bowler, A. Michelides                                  |
|        Phys. Rev. B. 83, 195131 (2011)                                      |
|      and references therein.                                                |
|                                                                             |
 ----------------------------------------------------------------------------- 

 POTCAR:   PAW_PBE Ba_sv 06Sep2000                
   VRHFIN =Ba: 5s5p6s                                                           
   LEXCH  = PE                                                                  
   EATOM  =   700.2255 eV,   51.4651 Ry                                         
                                                                                
   TITEL  = PAW_PBE Ba_sv 06Sep2000                                             
   LULTRA =        F    use ultrasoft PP ?                                      
   IUNSCR =        1    unscreen: 0-lin 1-nonlin 2-no                           
   RPACOR =    2.400    partial core radius                                     
   POMASS =  137.327; ZVAL   =   10.000    mass and valenz                      
   RCORE  =    2.800    outmost cutoff radius                                   
   RWIGS  =    3.740; RWIGS  =    1.979    wigner-seitz radius (au A)           
   ENMAX  =  187.210; ENMIN  =  140.408 eV                                      
   RCLOC  =    2.516    cutoff for local pot                                    
   LCOR   =        T    correct aug charges                                     
   LPAW   =        T    paw PP                                                  
   EAUG   =  351.165                                                            
   DEXC   =     .000                                                            
   RMAX   =    3.370    core radius for proj-oper                               
   RAUG   =    1.300    factor for augmentation sphere                          
   RDEP   =    2.976    radius for radial grids                                 
   QCUT   =   -3.709; QGAM   =    7.419    optimization parameters              
                                                                                
   Description                                                                  
     l     E      TYP  RCUT    TYP  RCUT                                        
     0   .000     23  2.800                                                     
     0   .000     23  2.800                                                     
     1   .000     23  2.700                                                     
     1  2.000     23  2.700                                                     
     2   .000     23  2.700                                                     
     2   .000     23  2.700                                                     
  local pseudopotential read in
  partial core-charges read in
  atomic valenz-charges read in
  non local Contribution for L=           0  read in
    real space projection operators read in
  non local Contribution for L=           0  read in
    real space projection operators read in
  non local Contribution for L=           1  read in
    real space projection operators read in
  non local Contribution for L=           1  read in
    real space projection operators read in
  non local Contribution for L=           2  read in
    real space projection operators read in
  non local Contribution for L=           2  read in
    real space projection operators read in
    PAW grid and wavefunctions read in
 
   number of l-projection  operators is LMAX  =           6
   number of lm-projection operators is LMMAX =          18
 
 POTCAR:   PAW_PBE Si 05Jan2001                   
   VRHFIN =Si: s2p2                                                             
   LEXCH  = PE                                                                  
   EATOM  =   103.0669 eV,    7.5752 Ry                                         
                                                                                
   TITEL  = PAW_PBE Si 05Jan2001                                                
   LULTRA =        F    use ultrasoft PP ?                                      
   IUNSCR =        1    unscreen: 0-lin 1-nonlin 2-no                           
   RPACOR =    1.500    partial core radius                                     
   POMASS =   28.085; ZVAL   =    4.000    mass and valenz                      
   RCORE  =    1.900    outmost cutoff radius                                   
   RWIGS  =    2.480; RWIGS  =    1.312    wigner-seitz radius (au A)           
   ENMAX  =  245.345; ENMIN  =  184.009 eV                                      
   ICORE  =        2    local potential                                         
   LCOR   =        T    correct aug charges                                     
   LPAW   =        T    paw PP                                                  
   EAUG   =  322.069                                                            
   DEXC   =    -.007                                                            
   RMAX   =    2.944    core radius for proj-oper                               
   RAUG   =    1.300    factor for augmentation sphere                          
   RDEP   =    1.993    radius for radial grids                                 
   QCUT   =   -4.246; QGAM   =    8.493    optimization parameters              
                                                                                
   Description                                                                  
     l     E      TYP  RCUT    TYP  RCUT                                        
     0   .000     23  1.900                                                     
     0   .000     23  1.900                                                     
     1   .000     23  1.900                                                     
     1   .000     23  1.900                                                     
     2   .000      7  1.900                                                     
  local pseudopotential read in
  partial core-charges read in
  atomic valenz-charges read in
  non local Contribution for L=           0  read in
    real space projection operators read in
  non local Contribution for L=           0  read in
    real space projection operators read in
  non local Contribution for L=           1  read in
    real space projection operators read in
  non local Contribution for L=           1  read in
    real space projection operators read in
    PAW grid and wavefunctions read in
 
   number of l-projection  operators is LMAX  =           4
   number of lm-projection operators is LMMAX =           8
 
 Optimization of the real space projectors (new method)

 maximal supplied QI-value         = 13.42
 optimisation between [QCUT,QGAM] = [ 11.40, 22.81] = [ 36.42,145.68] Ry 
 Optimized for a Real-space Cutoff    1.56 Angstroem

   l    n(q)    QCUT    max X(q) W(low)/X(q) W(high)/X(q)  e(spline) 
   0     11    11.404     7.198    0.14E-04    0.26E-04    0.99E-07
   0     11    11.404    15.603    0.29E-04    0.72E-04    0.44E-06
   1     10    11.404     3.746    0.20E-04    0.24E-04    0.43E-07
   1     10    11.404     4.362    0.22E-03    0.97E-04    0.22E-06
   2     10    11.404     5.782    0.83E-04    0.62E-05    0.27E-06
   2     10    11.404    65.505    0.42E-03    0.31E-04    0.12E-05
 Optimization of the real space projectors (new method)

 maximal supplied QI-value         = 19.84
 optimisation between [QCUT,QGAM] = [ 11.31, 22.82] = [ 35.82,145.81] Ry 
 Optimized for a Real-space Cutoff    1.16 Angstroem

   l    n(q)    QCUT    max X(q) W(low)/X(q) W(high)/X(q)  e(spline) 
   0      8    11.310     8.708    0.14E-04    0.11E-04    0.43E-08
   0      8    11.310   106.241    0.27E-03    0.30E-03    0.38E-07
   1      7    11.310     5.901    0.82E-05    0.48E-04    0.19E-07
   1      7    11.310    73.241    0.27E-03    0.27E-03    0.74E-07

 ----------------------------------------------------------------------------- 
|                                                                             |
|  ADVICE TO THIS USER RUNNING 'VASP/VAMP'   (HEAR YOUR MASTER'S VOICE ...):  |
|                                                                             |
|      You enforced a specific xc-type in the INCAR file,                     |
|      a different type was found on the POTCAR file                          |
|          I HOPE YOU KNOW, WHAT YOU ARE  DOING                               |
|                                                                             |
 ----------------------------------------------------------------------------- 

 PAW_PBE Ba_sv 06Sep2000                :
 energy of atom  1       EATOM= -700.2255
 kinetic energy error for atom=    0.0005 (will be added to EATOM!!)
 PAW_PBE Si 05Jan2001                   :
 energy of atom  2       EATOM= -103.0669
 kinetic energy error for atom=    0.0006 (will be added to EATOM!!)
 
 
 POSCAR: ba8 si16                                
  positions in direct lattice
  velocities in cartesian coordinates
 exchange correlation table for  LEXCH =       43
   RHO(1)=    0.500       N(1)  =     2000
   RHO(2)=  100.500       N(2)  =     4000
 


--------------------------------------------------------------------------------------------------------


 ion  position               nearest neighbor table
   1  0.006  0.250  0.703-  21 3.39  16 3.44  11 3.44  17 3.65  17 3.65   5 4.38   5 4.38   7 4.61

   2  0.390  0.750  0.297-  22 3.39  12 3.44  15 3.44  18 3.65  18 3.65   6 4.38   6 4.38   8 4.61

   3  0.182  0.750  0.185-  20 3.37   9 3.44  14 3.44  19 3.65  19 3.65  12 3.70  15 3.70  22 3.75
                            23 3.76   5 4.30   7 4.38   7 4.38
   4  0.214  0.250  0.815-  19 3.37  13 3.44  10 3.44  20 3.65  20 3.65  16 3.70  11 3.70  21 3.75
                            24 3.76   6 4.30   8 4.38   8 4.38
   5  0.060  0.750  0.914-   9 3.44  14 3.44  21 3.45  21 3.45  11 3.46  16 3.46  17 3.71   3 4.30
                             1 4.38   1 4.38
   6  0.336  0.250  0.086-  13 3.44  10 3.44  22 3.45  22 3.45  15 3.46  12 3.46  18 3.71   4 4.30
                             2 4.38   2 4.38
   7  0.128  0.250  0.397-  14 3.45   9 3.45  23 3.53  23 3.53  19 3.74  16 3.76  11 3.76  15 3.94
                            12 3.94   3 4.38   3 4.38   1 4.61
   8  0.268  0.750  0.603-  10 3.45  13 3.45  24 3.53  24 3.53  20 3.74  12 3.76  15 3.76  11 3.94
                            16 3.94   4 4.38   4 4.38   2 4.61
   9  0.073  0.072  0.142-  14 2.41  21 2.44  19 2.45   5 3.44   3 3.44   7 3.45
  10  0.323  0.928  0.858-  13 2.41  22 2.44  20 2.45   6 3.44   4 3.44   8 3.45
  11  0.115  0.930  0.660-  16 2.44  17 2.45  23 2.45   1 3.44   5 3.46   4 3.70   7 3.76   8 3.94

  12  0.281  0.070  0.340-  15 2.44  18 2.45  24 2.45   2 3.44   6 3.46   3 3.70   8 3.76   7 3.94

  13  0.323  0.572  0.858-  10 2.41  22 2.44  20 2.45   6 3.44   4 3.44   8 3.45
  14  0.073  0.428  0.142-   9 2.41  21 2.44  19 2.45   5 3.44   3 3.44   7 3.45
  15  0.281  0.430  0.340-  12 2.44  18 2.45  24 2.45   2 3.44   6 3.46   3 3.70   8 3.76   7 3.94

  16  0.115  0.570  0.660-  11 2.44  17 2.45  23 2.45   1 3.44   5 3.46   4 3.70   7 3.76   8 3.94

  17  0.031  0.750  0.600-  23 2.44  11 2.45  16 2.45   1 3.65   1 3.65   5 3.71
  18  0.365  0.250  0.400-  24 2.44  15 2.45  12 2.45   2 3.65   2 3.65   6 3.71
  19  0.157  0.250  0.080-  21 2.42  14 2.45   9 2.45   4 3.37   3 3.65   3 3.65   7 3.74
  20  0.240  0.750  0.920-  22 2.42  10 2.45  13 2.45   3 3.37   4 3.65   4 3.65   8 3.74
  21  0.074  0.250  0.959-  19 2.42  14 2.44   9 2.44   1 3.39   5 3.45   5 3.45   4 3.75
  22  0.322  0.750  0.041-  20 2.42  10 2.44  13 2.44   2 3.39   6 3.45   6 3.45   3 3.75
  23  0.113  0.750  0.477-  17 2.44  11 2.45  16 2.45   7 3.53   7 3.53   3 3.76
  24  0.283  0.250  0.523-  18 2.44  15 2.45  12 2.45   8 3.53   8 3.53   4 3.76
 
  LATTYP: Found a simple orthorhombic cell.
 ALAT       =     6.7778496742
 B/A-ratio  =     1.7117734747
 C/A-ratio  =     3.5423429602
  
  Lattice vectors:
  
 A1 = (   0.0000000000,   6.7778496742,   0.0000000000)
 A2 = (   0.0000000000,   0.0000000000, -11.6021432877)
 A3 = ( -24.0094680786,   0.0000000000,   0.0000000000)


Analysis of symmetry for initial positions (statically):
=====================================================================
 Subroutine PRICEL returns:
 Original cell was already a primitive cell.
 

 Routine SETGRP: Setting up the symmetry group for a 
 simple orthorhombic supercell.


 Subroutine GETGRP returns: Found  4 space group operations
 (whereof  1 operations were pure point group operations)
 out of a pool of  8 trial point group operations.


The static configuration has the point symmetry C_1 .
 The point group associated with its full space group is C_2h.


Analysis of symmetry for dynamics (positions and initial velocities):
=====================================================================
 Subroutine PRICEL returns:
 Original cell was already a primitive cell.
 

 Routine SETGRP: Setting up the symmetry group for a 
 simple orthorhombic supercell.


 Subroutine GETGRP returns: Found  4 space group operations
 (whereof  1 operations were pure point group operations)
 out of a pool of  8 trial point group operations.


The dynamic configuration has the point symmetry C_1 .
 The point group associated with its full space group is C_2h.


Analysis of constrained symmetry for selective dynamics:
=====================================================================
 Subroutine PRICEL returns:
 Original cell was already a primitive cell.
 

 Routine SETGRP: Setting up the symmetry group for a 
 simple orthorhombic supercell.


 Subroutine GETGRP returns: Found  4 space group operations
 (whereof  1 operations were pure point group operations)
 out of a pool of  8 trial point group operations.


The constrained configuration has the point symmetry C_1 .
 The point group associated with its full space group is C_2h.


 Subroutine INISYM returns: Found  4 space group operations
 (whereof  1 operations are pure point group operations),
 and found     1 'primitive' translations

 
 
 KPOINTS: k-density: 8.0                          

Automatic generation of k-mesh.
Space group operators:
 irot       det(A)        alpha          n_x          n_y          n_z        tau_x        tau_y        tau_z
    1     1.000000     0.000000     1.000000     0.000000     0.000000     0.000000     0.000000     0.000000
    2    -1.000000     0.000000     1.000000     0.000000     0.000000    -0.603928     0.000000     0.000000
    3     1.000000   180.000000     0.000000     1.000000     0.000000    -0.603928     0.500000     0.000000
    4    -1.000000   180.000000     0.000000     1.000000     0.000000     0.000000     0.500000     0.000000
 
 Subroutine IBZKPT returns following result:
 ===========================================
 
 Found     15 irreducible k-points:
 
 Following reciprocal coordinates:
            Coordinates               Weight
  0.000000  0.000000  0.000000      1.000000
  0.000000  0.125000  0.000000      2.000000
  0.000000  0.250000  0.000000      2.000000
  0.000000  0.375000  0.000000      2.000000
  0.000000  0.500000  0.000000      1.000000
  0.000000  0.000000  0.200000      2.000000
  0.000000  0.125000  0.200000      4.000000
  0.000000  0.250000  0.200000      4.000000
  0.000000  0.375000  0.200000      4.000000
  0.000000  0.500000  0.200000      2.000000
  0.000000  0.000000  0.400000      2.000000
  0.000000  0.125000  0.400000      4.000000
  0.000000  0.250000  0.400000      4.000000
  0.000000  0.375000  0.400000      4.000000
  0.000000  0.500000  0.400000      2.000000
 
 Following cartesian coordinates:
            Coordinates               Weight
  0.000000  0.000000  0.000000      1.000000
  0.000000  0.018442  0.000000      2.000000
  0.000000  0.036885  0.000000      2.000000
  0.000000  0.055327  0.000000      2.000000
  0.000000  0.073770  0.000000      1.000000
  0.000000  0.000000  0.017238      2.000000
  0.000000  0.018442  0.017238      4.000000
  0.000000  0.036885  0.017238      4.000000
  0.000000  0.055327  0.017238      4.000000
  0.000000  0.073770  0.017238      2.000000
  0.000000  0.000000  0.034476      2.000000
  0.000000  0.018442  0.034476      4.000000
  0.000000  0.036885  0.034476      4.000000
  0.000000  0.055327  0.034476      4.000000
  0.000000  0.073770  0.034476      2.000000
 
 TETIRR: Found    108 inequivalent tetrahedra from      240


--------------------------------------------------------------------------------------------------------




 Dimension of arrays:
   k-points           NKPTS =     15   k-points in BZ     NKDIM =     15   number of bands    NBANDS=     88
   number of dos      NEDOS =    301   number of ions     NIONS =     24
   non local maximal  LDIM  =      6   non local SUM 2l+1 LMDIM =     18
   total plane-waves  NPLWV = 358400
   max r-space proj   IRMAX =   3093   max aug-charges    IRDMAX=  12081
   dimension x,y,z NGX =   140 NGY =   40 NGZ =   64
   dimension x,y,z NGXF=   280 NGYF=   80 NGZF=  128
   support grid    NGXF=   280 NGYF=   80 NGZF=  128
   ions per type =               8  16
   NGX,Y,Z   is equivalent  to a cutoff of   9.69,  9.81,  9.17 a.u.
   NGXF,Y,Z  is equivalent  to a cutoff of  19.39, 19.62, 18.34 a.u.

 SYSTEM =  unknown system                          
 POSCAR =  ba8 si16                                

 Startparameter for this run:
   NWRITE =      2    write-flag & timer
   PREC   = normal    normal or accurate (medium, high low for compatibility)
   ISTART =      0    job   : 0-new  1-cont  2-samecut
   ICHARG =      2    charge: 1-file 2-atom 10-const
   ISPIN  =      1    spin polarized calculation?
   LNONCOLLINEAR =      F non collinear calculations
   LSORBIT =      F    spin-orbit coupling
   INIWAV =      1    electr: 0-lowe 1-rand  2-diag
   LASPH  =      T    aspherical Exc in radial PAW
   METAGGA=      F    non-selfconsistent MetaGGA calc.

 Electronic Relaxation 1
   ENCUT  =  500.0 eV  36.75 Ry    6.06 a.u.  43.77 12.36 21.15*2*pi/ulx,y,z
   ENINI  =  500.0     initial cutoff
   ENAUG  =  351.2 eV  augmentation charge cutoff
   NELM   =    100;   NELMIN=  2; NELMDL= -5     # of ELM steps 
   EDIFF  = 0.1E-05   stopping-criterion for ELM
   LREAL  =      T    real-space projection
   NLSPLINE    = F    spline interpolate recip. space projectors
   LCOMPAT=      F    compatible to vasp.4.4
   GGA_COMPAT  = T    GGA compatible to vasp.4.4-vasp.4.6
   LMAXPAW     = -100 max onsite density
   LMAXMIX     =    2 max onsite mixed and CHGCAR
   VOSKOWN=      0    Vosko Wilk Nusair interpolation
   ROPT   =   -0.00050  -0.00050
 Ionic relaxation
   EDIFFG = -.1E-02   stopping-criterion for IOM
   NSW    =      0    number of steps for IOM
   NBLOCK =      1;   KBLOCK =      1    inner block; outer block 
   IBRION =     -1    ionic relax: 0-MD 1-quasi-New 2-CG
   NFREE  =      0    steps in history (QN), initial steepest desc. (CG)
   ISIF   =      2    stress and relaxation
   IWAVPR =     10    prediction:  0-non 1-charg 2-wave 3-comb
   ISYM   =      2    0-nonsym 1-usesym 2-fastsym
   LCORR  =      T    Harris-Foulkes like correction to forces

   POTIM  = 0.3000    time-step for ionic-motion
   TEIN   =    0.0    initial temperature
   TEBEG  =    0.0;   TEEND  =   0.0 temperature during run
   SMASS  =  -3.00    Nose mass-parameter (am)
   estimated Nose-frequenzy (Omega)   =  0.10E-29 period in steps =****** mass=  -0.132E-25a.u.
   SCALEE = 1.0000    scale energy and forces
   NPACO  =    256;   APACO  = 16.0  distance and # of slots for P.C.
   PSTRESS=    0.0 pullay stress

  Mass of Ions in am
   POMASS = 137.33 28.09
  Ionic Valenz
   ZVAL   =  10.00  4.00
  Atomic Wigner-Seitz radii
   RWIGS  =  -1.00 -1.00
  virtual crystal weights 
   VCA    =   1.00  1.00
   NELECT =     144.0000    total number of electrons
   NUPDOWN=      -1.0000    fix difference up-down

 DOS related values:
   EMIN   =  10.00;   EMAX   =-10.00  energy-range for DOS
   EFERMI =   0.00
   ISMEAR =    -5;   SIGMA  =   0.01  broadening in eV -4-tet -1-fermi 0-gaus

 Electronic relaxation 2 (details)
   IALGO  =     38    algorithm
   LDIAG  =      T    sub-space diagonalisation (order eigenvalues)
   LSUBROT=      F    optimize rotation matrix (better conditioning)
   TURBO    =      0    0=normal 1=particle mesh
   IRESTART =      0    0=no restart 2=restart with 2 vectors
   NREBOOT  =      0    no. of reboots
   NMIN     =      0    reboot dimension
   EREF     =   0.00    reference energy to select bands
   IMIX   =      4    mixing-type and parameters
     AMIX     =   0.40;   BMIX     =  1.00
     AMIX_MAG =   1.60;   BMIX_MAG =  1.00
     AMIN     =   0.10
     WC   =   100.;   INIMIX=   1;  MIXPRE=   1;  MAXMIX= -45

 Intra band minimization:
   WEIMIN = 0.0000     energy-eigenvalue tresh-hold
   EBREAK =  0.28E-08  absolut break condition
   DEPER  =   0.30     relativ break condition  

   TIME   =   0.40     timestep for ELM

  volume/ion in A,a.u.               =      78.67       530.88
  Fermi-wavevector in a.u.,A,eV,Ry     =   0.694264  1.311969  6.558046  0.482003
  Thomas-Fermi vector in A             =   1.776709
 
 Write flags
   LWAVE        =      T    write WAVECAR
   LDOWNSAMPLE  =      F    k-point downsampling of WAVECAR
   LCHARG       =      T    write CHGCAR
   LVTOT        =      F    write LOCPOT, total local potential
   LVHAR        =      F    write LOCPOT, Hartree potential only
   LELF         =      F    write electronic localiz. function (ELF)
   LORBIT       =      0    0 simple, 1 ext, 2 COOP (PROOUT), +10 PAW based schemes


 Dipole corrections
   LMONO  =      F    monopole corrections only (constant potential shift)
   LDIPOL =      F    correct potential (dipole corrections)
   IDIPOL =      0    1-x, 2-y, 3-z, 4-all directions 
   EPSILON=  1.0000000 bulk dielectric constant

 Exchange correlation treatment:
   GGA     =    MK    GGA type
   LEXCH   =    43    internal setting for exchange type
   VOSKOWN=      0    Vosko Wilk Nusair interpolation
   LHFCALC =     F    Hartree Fock is set to
   LHFONE  =     F    Hartree Fock one center treatment
   AEXX    =    0.0000 exact exchange contribution

 vdW DFT:
   LUSE_VDW   =     T    switch on vdW DFT
   Zab_VDW    =******    correlation parameter
   PARAM1     =0.1234
   PARAM2     =0.7114
   PARAM3     =0.0000
   -- rVV10 --
   BPARAM     = 6.3000
   CPARAM     = 0.0093

 Linear response parameters
   LEPSILON=     F    determine dielectric tensor
   LRPA    =     F    only Hartree local field effects (RPA)
   LNABLA  =     F    use nabla operator in PAW spheres
   LVEL    =     F    velocity operator in full k-point grid
   LINTERFAST=   F  fast interpolation
   KINTER  =     0    interpolate to denser k-point grid
   CSHIFT  =0.1000    complex shift for real part using Kramers Kronig
   OMEGAMAX=  -1.0    maximum frequency
   DEG_THRESHOLD= 0.2000000E-02 threshold for treating states as degnerate
   RTIME   =   -0.100 relaxation time in fs
  (WPLASMAI=    0.000 imaginary part of plasma frequency in eV, 0.658/RTIME)
   DFIELD  = 0.0000000 0.0000000 0.0000000 field for delta impulse in time
 
 Orbital magnetization related:
   ORBITALMAG=     F  switch on orbital magnetization
   LCHIMAG   =     F  perturbation theory with respect to B field
   DQ        =  0.001000  dq finite difference perturbation B field
   LLRAUG    =     F  two centre corrections for induced B field



--------------------------------------------------------------------------------------------------------


 Static calculation
 charge density and potential will be updated during run
 non-spin polarized calculation
 Variant of blocked Davidson
 Davidson routine will perform the subspace rotation
 perform sub-space diagonalisation
    after iterative eigenvector-optimisation
 modified Broyden-mixing scheme, WC =      100.0
 initial mixing is a Kerker type mixing with AMIX =  0.4000 and BMIX =      1.0000
 Hartree-type preconditioning will be used
 using additional bands           16
 real space projection scheme for non local part
 use partial core corrections
 calculate Harris-corrections to forces 
   (improved forces if not selfconsistent)
 use gradient corrections 
 use of overlap-Matrix (Vanderbilt PP)
 Fermi weights with tetrahedron method with Bloechl corrections


--------------------------------------------------------------------------------------------------------


  energy-cutoff  :      500.00
  volume of cell :     1888.05
      direct lattice vectors                 reciprocal lattice vectors
    24.009468079  0.000000000  0.000000000     0.041650236  0.000000000  0.000000000
     0.000000000  6.777849674  0.000000000     0.000000000  0.147539419  0.000000000
     0.000000000  0.000000000 11.602143288     0.000000000  0.000000000  0.086190971

  length of vectors
    24.009468079  6.777849674 11.602143288     0.041650236  0.147539419  0.086190971


 
 k-points in units of 2pi/SCALE and weight: k-density: 8.0                          
   0.00000000  0.00000000  0.00000000       0.025
   0.00000000  0.01844243  0.00000000       0.050
   0.00000000  0.03688485  0.00000000       0.050
   0.00000000  0.05532728  0.00000000       0.050
   0.00000000  0.07376971  0.00000000       0.025
   0.00000000  0.00000000  0.01723819       0.050
   0.00000000  0.01844243  0.01723819       0.100
   0.00000000  0.03688485  0.01723819       0.100
   0.00000000  0.05532728  0.01723819       0.100
   0.00000000  0.07376971  0.01723819       0.050
   0.00000000  0.00000000  0.03447639       0.050
   0.00000000  0.01844243  0.03447639       0.100
   0.00000000  0.03688485  0.03447639       0.100
   0.00000000  0.05532728  0.03447639       0.100
   0.00000000  0.07376971  0.03447639       0.050
 
 k-points in reciprocal lattice and weights: k-density: 8.0                          
   0.00000000  0.00000000  0.00000000       0.025
   0.00000000  0.12500000  0.00000000       0.050
   0.00000000  0.25000000  0.00000000       0.050
   0.00000000  0.37500000  0.00000000       0.050
   0.00000000  0.50000000  0.00000000       0.025
   0.00000000  0.00000000  0.20000000       0.050
   0.00000000  0.12500000  0.20000000       0.100
   0.00000000  0.25000000  0.20000000       0.100
   0.00000000  0.37500000  0.20000000       0.100
   0.00000000  0.50000000  0.20000000       0.050
   0.00000000  0.00000000  0.40000000       0.050
   0.00000000  0.12500000  0.40000000       0.100
   0.00000000  0.25000000  0.40000000       0.100
   0.00000000  0.37500000  0.40000000       0.100
   0.00000000  0.50000000  0.40000000       0.050
 
 position of ions in fractional coordinates (direct lattice) 
   0.00569361  0.25000000  0.70334776
   0.39037797  0.75000002  0.29665224
   0.18192962  0.75000002  0.18486870
   0.21414196  0.25000000  0.81513128
   0.05978014  0.75000002  0.91408808
   0.33629144  0.25000000  0.08591190
   0.12784309  0.25000000  0.39651314
   0.26822849  0.75000002  0.60348690
   0.07289913  0.07209047  0.14207671
   0.32317245  0.92790952  0.85792327
   0.11472410  0.92988814  0.65969583
   0.28134748  0.07011185  0.34030417
   0.32317245  0.57209048  0.85792327
   0.07289913  0.42790952  0.14207671
   0.28134748  0.42988814  0.34030417
   0.11472410  0.57011186  0.65969583
   0.03110981  0.75000002  0.60005454
   0.36496177  0.25000000  0.39994546
   0.15651343  0.25000000  0.07964982
   0.23955817  0.75000002  0.92035016
   0.07418398  0.25000000  0.95898199
   0.32188760  0.75000002  0.04101802
   0.11343925  0.75000002  0.47658577
   0.28263233  0.25000000  0.52341414
 
 position of ions in cartesian coordinates  (Angst):
   0.13670066  1.69446242  8.16034152
   9.37276745  5.08338737  3.44180176
   4.36803341  5.08338737  2.14487316
   5.14143467  1.69446242  9.45726989
   1.43528938  5.08338737 10.60538093
   8.07417870  1.69446242  0.99676212
   3.06944466  1.69446242  4.60040225
   6.44002342  5.08338737  7.00174151
   1.75026941  0.48861840  1.64839439
   7.75919867  6.28923122  9.95374866
   2.75446463  6.30264204  7.65388555
   6.75500345  0.47520758  3.94825773
   7.75919867  3.87754329  9.95374866
   1.75026941  2.90030638  1.64839439
   6.75500345  2.91371720  3.94825773
   2.75446463  3.86413247  7.65388555
   0.74692994  5.08338737  6.96191877
   8.76253796  1.69446242  4.64022451
   3.75780416  1.69446242  0.92410862
   5.75166416  5.08338737 10.67803443
   1.78111780  1.69446242 11.12624650
   7.72835016  5.08338737  0.47589697
   2.72361612  5.08338737  5.52941644
   6.78585196  1.69446242  6.07272590
 


--------------------------------------------------------------------------------------------------------


 k-point  1 :   0.0000 0.0000 0.0000  plane waves:   47989
 k-point  2 :   0.0000 0.1250 0.0000  plane waves:   47929
 k-point  3 :   0.0000 0.2500 0.0000  plane waves:   47901
 k-point  4 :   0.0000 0.3750 0.0000  plane waves:   47910
 k-point  5 :   0.0000 0.5000 0.0000  plane waves:   47868
 k-point  6 :   0.0000 0.0000 0.2000  plane waves:   48006
 k-point  7 :   0.0000 0.1250 0.2000  plane waves:   47967
 k-point  8 :   0.0000 0.2500 0.2000  plane waves:   47907
 k-point  9 :   0.0000 0.3750 0.2000  plane waves:   47884
 k-point 10 :   0.0000 0.5000 0.2000  plane waves:   47884
 k-point 11 :   0.0000 0.0000 0.4000  plane waves:   47922
 k-point 12 :   0.0000 0.1250 0.4000  plane waves:   47954
 k-point 13 :   0.0000 0.2500 0.4000  plane waves:   47967
 k-point 14 :   0.0000 0.3750 0.4000  plane waves:   47928
 k-point 15 :   0.0000 0.5000 0.4000  plane waves:   47890

 maximum and minimum number of plane-waves per node :     12077    11868

 maximum number of plane-waves:     48006
 maximum index in each direction: 
   IXMAX=   43   IYMAX=   12   IZMAX=   21
   IXMIN=  -43   IYMIN=  -12   IZMIN=  -21


 real space projection operators:
  total allocation   :       4533.33 KBytes
  max/ min on nodes  :       1135.66       1130.83


 parallel 3D FFT for wavefunctions:
    minimum data exchange during FFTs selected (reduces bandwidth)
 parallel 3D FFT for charge:
    minimum data exchange during FFTs selected (reduces bandwidth)


 total amount of memory used by VASP MPI-rank0    79352. kBytes
=======================================================================

   base      :      30000. kBytes
   nonlr-proj:       2646. kBytes
   fftplans  :       5898. kBytes
   grid      :       8824. kBytes
   one-center:         93. kBytes
   wavefun   :      31891. kBytes
 
     INWAV:  cpu time    0.0001: real time    0.0003
 Broyden mixing: mesh for mixing (old mesh)
   NGX = 87   NGY = 25   NGZ = 43
  (NGX  =280   NGY  = 80   NGZ  =128)
  gives a total of  93525 points

 initial charge density was supplied:
 charge density of overlapping atoms calculated
 number of electron     144.0000000 magnetization 
 keeping initial charge density in first step


--------------------------------------------------------------------------------------------------------


 Maximum index for non-local projection operator          746
 Maximum index for augmentation-charges          607 (set IRDMAX)


--------------------------------------------------------------------------------------------------------


 First call to EWALD:  gamma=   0.143
 Maximum number of real-space cells 2x 5x 3
 Maximum number of reciprocal cells 5x 2x 3

    FEWALD:  cpu time    0.0081: real time    0.0081


--------------------------------------- Iteration      1(   1)  ---------------------------------------


    POTLOK:  cpu time15105.9957: real time15142.0172
    SETDIJ:  cpu time    0.0034: real time    0.0157
     EDDAV:  cpu time    2.5362: real time    2.7705
 BZINTS: Fermi energy:  6.770064;144.000000 electrons
         Band energy:-475.751015;  BLOECHL correction: -0.037403
       DOS:  cpu time    0.0117: real time    0.0119
    --------------------------------------------
      LOOP:  cpu time15108.5470: real time15144.8154

 eigenvalue-minimisations  :  2768
 total energy-change (2. order) : 0.1186476E+04  (-0.4764144E+04)
 number of electron     144.0000000 magnetization 
 augmentation part      144.0000000 magnetization 

 Free energy of the ion-electron system (eV)
  ---------------------------------------------------
  alpha Z        PSCENC =       170.45750602
  Ewald energy   TEWEN  =     10980.19662373
  -Hartree energ DENC   =    -17104.33031258
  -exchange      EXHF   =         0.00000000
  -V(xc)+E(xc)   XCENC  =        36.52901048
  PAW double counting   =      3696.57165193    -3386.34934349
  entropy T*S    EENTRO =         0.00000000
  eigenvalues    EBANDS =      -475.75101509
  atomic energy  EATOM  =      7269.15145414
  Solvation  Ediel_sol  =         0.00000000
  ---------------------------------------------------
  free energy    TOTEN  =      1186.47557515 eV

  energy without entropy =     1186.47557515  energy(sigma->0) =     1186.47557515


--------------------------------------------------------------------------------------------------------




--------------------------------------- Iteration      1(   2)  ---------------------------------------


     EDDAV:  cpu time    3.4652: real time    3.5145
 BZINTS: Fermi energy: -1.518722;144.000000 electrons
         Band energy:***********;  BLOECHL correction:  0.000000
       DOS:  cpu time    0.0034: real time    0.0034
    --------------------------------------------
      LOOP:  cpu time    3.4686: real time    3.5178

 eigenvalue-minimisations  :  3864
 total energy-change (2. order) :-0.1111486E+04  (-0.1084570E+04)
 number of electron     144.0000000 magnetization 
 augmentation part      144.0000000 magnetization 

 Free energy of the ion-electron system (eV)
  ---------------------------------------------------
  alpha Z        PSCENC =       170.45750602
  Ewald energy   TEWEN  =     10980.19662373
  -Hartree energ DENC   =    -17104.33031258
  -exchange      EXHF   =         0.00000000
  -V(xc)+E(xc)   XCENC  =        36.52901048
  PAW double counting   =      3696.57165193    -3386.34934349
  entropy T*S    EENTRO =         0.00000000
  eigenvalues    EBANDS =     -1587.23685590
  atomic energy  EATOM  =      7269.15145414
  Solvation  Ediel_sol  =         0.00000000
  ---------------------------------------------------
  free energy    TOTEN  =        74.98973434 eV

  energy without entropy =       74.98973434  energy(sigma->0) =       74.98973434


--------------------------------------------------------------------------------------------------------




--------------------------------------- Iteration      1(   3)  ---------------------------------------


     EDDAV:  cpu time    2.8717: real time    2.9088
 BZINTS: Fermi energy: -3.279026;144.000000 electrons
         Band energy:***********;  BLOECHL correction:  0.000000
       DOS:  cpu time    0.0020: real time    0.0020
    --------------------------------------------
      LOOP:  cpu time    2.8737: real time    2.9108

 eigenvalue-minimisations  :  3208
 total energy-change (2. order) :-0.1679208E+03  (-0.1672858E+03)
 number of electron     144.0000000 magnetization 
 augmentation part      144.0000000 magnetization 

 Free energy of the ion-electron system (eV)
  ---------------------------------------------------
  alpha Z        PSCENC =       170.45750602
  Ewald energy   TEWEN  =     10980.19662373
  -Hartree energ DENC   =    -17104.33031258
  -exchange      EXHF   =         0.00000000
  -V(xc)+E(xc)   XCENC  =        36.52901048
  PAW double counting   =      3696.57165193    -3386.34934349
  entropy T*S    EENTRO =         0.00000000
  eigenvalues    EBANDS =     -1755.15769113
  atomic energy  EATOM  =      7269.15145414
  Solvation  Ediel_sol  =         0.00000000
  ---------------------------------------------------
  free energy    TOTEN  =       -92.93110090 eV

  energy without entropy =      -92.93110090  energy(sigma->0) =      -92.93110090


--------------------------------------------------------------------------------------------------------




--------------------------------------- Iteration      1(   4)  ---------------------------------------


     EDDAV:  cpu time    3.4308: real time    3.4484
 BZINTS: Fermi energy: -3.363490;144.000000 electrons
         Band energy:***********;  BLOECHL correction:  0.000000
       DOS:  cpu time    0.0020: real time    0.0020
    --------------------------------------------
      LOOP:  cpu time    3.4328: real time    3.4504

 eigenvalue-minimisations  :  3744
 total energy-change (2. order) :-0.5909966E+01  (-0.5892812E+01)
 number of electron     144.0000000 magnetization 
 augmentation part      144.0000000 magnetization 

 Free energy of the ion-electron system (eV)
  ---------------------------------------------------
  alpha Z        PSCENC =       170.45750602
  Ewald energy   TEWEN  =     10980.19662373
  -Hartree energ DENC   =    -17104.33031258
  -exchange      EXHF   =         0.00000000
  -V(xc)+E(xc)   XCENC  =        36.52901048
  PAW double counting   =      3696.57165193    -3386.34934349
  entropy T*S    EENTRO =         0.00000000
  eigenvalues    EBANDS =     -1761.06765709
  atomic energy  EATOM  =      7269.15145414
  Solvation  Ediel_sol  =         0.00000000
  ---------------------------------------------------
  free energy    TOTEN  =       -98.84106685 eV

  energy without entropy =      -98.84106685  energy(sigma->0) =      -98.84106685


--------------------------------------------------------------------------------------------------------




--------------------------------------- Iteration      1(   5)  ---------------------------------------


     EDDAV:  cpu time    3.5035: real time    3.5629
 BZINTS: Fermi energy: -3.347098;144.000000 electrons
         Band energy:***********;  BLOECHL correction:  0.000000
       DOS:  cpu time    0.0024: real time    0.0024
    CHARGE:  cpu time    0.1606: real time    0.1756
    MIXING:  cpu time    0.0065: real time    0.0094
    --------------------------------------------
      LOOP:  cpu time    3.6730: real time    3.7503

 eigenvalue-minimisations  :  4160
 total energy-change (2. order) :-0.2690045E+00  (-0.2689132E+00)
 number of electron     143.9999986 magnetization 
 augmentation part      -17.6384470 magnetization 

 Broyden mixing:
  rms(total) = 0.91586E+00    rms(broyden)= 0.91586E+00
  rms(prec ) = 0.11830E+01
  weight for this iteration     100.00

 Free energy of the ion-electron system (eV)
  ---------------------------------------------------
  alpha Z        PSCENC =       170.45750602
  Ewald energy   TEWEN  =     10980.19662373
  -Hartree energ DENC   =    -17104.33031258
  -exchange      EXHF   =         0.00000000
  -V(xc)+E(xc)   XCENC  =        36.52901048
  PAW double counting   =      3696.57165193    -3386.34934349
  entropy T*S    EENTRO =         0.00000000
  eigenvalues    EBANDS =     -1761.33666161
  atomic energy  EATOM  =      7269.15145414
  Solvation  Ediel_sol  =         0.00000000
  ---------------------------------------------------
  free energy    TOTEN  =       -99.11007137 eV

  energy without entropy =      -99.11007137  energy(sigma->0) =      -99.11007137


--------------------------------------------------------------------------------------------------------




--------------------------------------- Iteration      1(   6)  ---------------------------------------


    POTLOK:  cpu time    2.3890: real time    2.4066
    SETDIJ:  cpu time    0.1779: real time    0.1783
     EDDAV:  cpu time    2.6448: real time    2.6516
 BZINTS: Fermi energy: -2.268570;144.000000 electrons
         Band energy:***********;  BLOECHL correction:  0.000000
       DOS:  cpu time    0.0021: real time    0.0021
    CHARGE:  cpu time    0.1494: real time    0.1497
    MIXING:  cpu time    0.0071: real time    0.0072
    --------------------------------------------
      LOOP:  cpu time    5.3704: real time    5.3955

 eigenvalue-minimisations  :  3032
 total energy-change (2. order) : 0.8123301E+01  (-0.2050121E+01)
 number of electron     143.9999986 magnetization 
 augmentation part      -17.5194598 magnetization 

 Broyden mixing:
  rms(total) = 0.46440E+00    rms(broyden)= 0.46440E+00
  rms(prec ) = 0.57962E+00
  weight for this iteration     100.00

 eigenvalues of (default mixing * dielectric matrix)
  average eigenvalue GAMMA=   1.5444
  1.5444

 Free energy of the ion-electron system (eV)
  ---------------------------------------------------
  alpha Z        PSCENC =       170.45750602
  Ewald energy   TEWEN  =     10980.19662373
  -Hartree energ DENC   =    -17192.99470172
  -exchange      EXHF   =         0.00000000
  -V(xc)+E(xc)   XCENC  =        39.29065629
  PAW double counting   =      3727.28825879    -3424.12699215
  entropy T*S    EENTRO =         0.00000000
  eigenvalues    EBANDS =     -1660.24957505
  atomic energy  EATOM  =      7269.15145414
  Solvation  Ediel_sol  =         0.00000000
  ---------------------------------------------------
  free energy    TOTEN  =       -90.98676995 eV

  energy without entropy =      -90.98676995  energy(sigma->0) =      -90.98676995


--------------------------------------------------------------------------------------------------------




--------------------------------------- Iteration      1(   7)  ---------------------------------------


    POTLOK:  cpu time    2.3719: real time    2.3902
    SETDIJ:  cpu time    0.1733: real time    0.1737
     EDDAV:  cpu time    2.9631: real time    2.9707
 BZINTS: Fermi energy: -1.442352;144.000000 electrons
         Band energy:***********;  BLOECHL correction:  0.000000
       DOS:  cpu time    0.0023: real time    0.0023
    CHARGE:  cpu time    0.1503: real time    0.1506
    MIXING:  cpu time    0.0051: real time    0.0054
    --------------------------------------------
      LOOP:  cpu time    5.6660: real time    5.6928

 eigenvalue-minimisations  :  3480
 total energy-change (2. order) : 0.1245202E+01  (-0.9918422E+00)
 number of electron     143.9999985 magnetization 
 augmentation part      -17.5890085 magnetization 

 Broyden mixing:
  rms(total) = 0.24547E+00    rms(broyden)= 0.24547E+00
  rms(prec ) = 0.29378E+00
  weight for this iteration     100.00

 eigenvalues of (default mixing * dielectric matrix)
  average eigenvalue GAMMA=   1.8637
  1.8637  1.8637

 Free energy of the ion-electron system (eV)
  ---------------------------------------------------
  alpha Z        PSCENC =       170.45750602
  Ewald energy   TEWEN  =     10980.19662373
  -Hartree energ DENC   =    -17267.13161674
  -exchange      EXHF   =         0.00000000
  -V(xc)+E(xc)   XCENC  =        41.53212260
  PAW double counting   =      3768.52603139    -3471.06938583
  entropy T*S    EENTRO =         0.00000000
  eigenvalues    EBANDS =     -1581.40430339
  atomic energy  EATOM  =      7269.15145414
  Solvation  Ediel_sol  =         0.00000000
  ---------------------------------------------------
  free energy    TOTEN  =       -89.74156806 eV

  energy without entropy =      -89.74156806  energy(sigma->0) =      -89.74156806


--------------------------------------------------------------------------------------------------------




--------------------------------------- Iteration      1(   8)  ---------------------------------------


    POTLOK:  cpu time    2.4008: real time    2.4154
    SETDIJ:  cpu time    0.1675: real time    0.1679
     EDDAV:  cpu time    2.7057: real time    2.7120
 BZINTS: Fermi energy: -1.303281;144.000000 electrons
         Band energy:***********;  BLOECHL correction:  0.000000
       DOS:  cpu time    0.0034: real time    0.0034
    CHARGE:  cpu time    0.1586: real time    0.1590
    MIXING:  cpu time    0.0059: real time    0.0063
    --------------------------------------------
      LOOP:  cpu time    5.4419: real time    5.4640

 eigenvalue-minimisations  :  3120
 total energy-change (2. order) : 0.2394620E+00  (-0.3541465E+00)
 number of electron     143.9999986 magnetization 
 augmentation part      -17.7100157 magnetization 

 Broyden mixing:
  rms(total) = 0.11626E+00    rms(broyden)= 0.11626E+00
  rms(prec ) = 0.18419E+00
  weight for this iteration     100.00

 eigenvalues of (default mixing * dielectric matrix)
  average eigenvalue GAMMA=   1.6859
  2.6418  1.2079  1.2079

 Free energy of the ion-electron system (eV)
  ---------------------------------------------------
  alpha Z        PSCENC =       170.45750602
  Ewald energy   TEWEN  =     10980.19662373
  -Hartree energ DENC   =    -17299.69653680
  -exchange      EXHF   =         0.00000000
  -V(xc)+E(xc)   XCENC  =        42.44839344
  PAW double counting   =      3816.47991291    -3520.82047171
  entropy T*S    EENTRO =         0.00000000
  eigenvalues    EBANDS =     -1547.71898783
  atomic energy  EATOM  =      7269.15145414
  Solvation  Ediel_sol  =         0.00000000
  ---------------------------------------------------
  free energy    TOTEN  =       -89.50210608 eV

  energy without entropy =      -89.50210608  energy(sigma->0) =      -89.50210608


--------------------------------------------------------------------------------------------------------




--------------------------------------- Iteration      1(   9)  ---------------------------------------


    POTLOK:  cpu time    2.3746: real time    2.3918
    SETDIJ:  cpu time    0.1533: real time    0.1536
     EDDAV:  cpu time    2.7041: real time    2.7111
 BZINTS: Fermi energy: -0.988421;144.000000 electrons
         Band energy:***********;  BLOECHL correction:  0.000000
       DOS:  cpu time    0.0022: real time    0.0022
    CHARGE:  cpu time    0.1457: real time    0.1461
    MIXING:  cpu time    0.0050: real time    0.0051
    --------------------------------------------
      LOOP:  cpu time    5.3850: real time    5.4099

 eigenvalue-minimisations  :  3104
 total energy-change (2. order) : 0.2621806E+00  (-0.1078363E+00)
 number of electron     143.9999985 magnetization 
 augmentation part      -17.6745376 magnetization 

 Broyden mixing:
  rms(total) = 0.53307E-01    rms(broyden)= 0.53307E-01
  rms(prec ) = 0.76013E-01
  weight for this iteration     100.00

 eigenvalues of (default mixing * dielectric matrix)
  average eigenvalue GAMMA=   1.4103
  2.5889  1.2204  1.2204  0.6115

 Free energy of the ion-electron system (eV)
  ---------------------------------------------------
  alpha Z        PSCENC =       170.45750602
  Ewald energy   TEWEN  =     10980.19662373
  -Hartree energ DENC   =    -17337.41996377
  -exchange      EXHF   =         0.00000000
  -V(xc)+E(xc)   XCENC  =        43.35808711
  PAW double counting   =      3826.75693718    -3532.41282804
  entropy T*S    EENTRO =         0.00000000
  eigenvalues    EBANDS =     -1509.32774186
  atomic energy  EATOM  =      7269.15145414
  Solvation  Ediel_sol  =         0.00000000
  ---------------------------------------------------
  free energy    TOTEN  =       -89.23992550 eV

  energy without entropy =      -89.23992550  energy(sigma->0) =      -89.23992550


--------------------------------------------------------------------------------------------------------




--------------------------------------- Iteration      1(  10)  ---------------------------------------


    POTLOK:  cpu time    2.3864: real time    2.4038
    SETDIJ:  cpu time    0.1143: real time    0.1146
     EDDAV:  cpu time    3.0113: real time    3.0190
 BZINTS: Fermi energy: -0.862484;144.000000 electrons
         Band energy:***********;  BLOECHL correction:  0.000000
       DOS:  cpu time    0.0024: real time    0.0024
    CHARGE:  cpu time    0.1471: real time    0.1475
    MIXING:  cpu time    0.0057: real time    0.0058
    --------------------------------------------
      LOOP:  cpu time    5.6674: real time    5.6930

 eigenvalue-minimisations  :  3568
 total energy-change (2. order) : 0.1356504E-01  (-0.2409449E-01)
 number of electron     143.9999985 magnetization 
 augmentation part      -17.6860483 magnetization 

 Broyden mixing:
  rms(total) = 0.40428E-01    rms(broyden)= 0.40428E-01
  rms(prec ) = 0.59784E-01
  weight for this iteration     100.00

 eigenvalues of (default mixing * dielectric matrix)
  average eigenvalue GAMMA=   1.5820
  2.4279  2.4279  1.1600  0.9470  0.9470

 Free energy of the ion-electron system (eV)
  ---------------------------------------------------
  alpha Z        PSCENC =       170.45750602
  Ewald energy   TEWEN  =     10980.19662373
  -Hartree energ DENC   =    -17346.38252188
  -exchange      EXHF   =         0.00000000
  -V(xc)+E(xc)   XCENC  =        43.39927384
  PAW double counting   =      3822.05466896    -3527.44149698
  entropy T*S    EENTRO =         0.00000000
  eigenvalues    EBANDS =     -1500.66186829
  atomic energy  EATOM  =      7269.15145414
  Solvation  Ediel_sol  =         0.00000000
  ---------------------------------------------------
  free energy    TOTEN  =       -89.22636046 eV

  energy without entropy =      -89.22636046  energy(sigma->0) =      -89.22636046


--------------------------------------------------------------------------------------------------------




--------------------------------------- Iteration      1(  11)  ---------------------------------------


    POTLOK:  cpu time    2.3759: real time    2.3937
    SETDIJ:  cpu time    0.1296: real time    0.1299
     EDDAV:  cpu time    2.7637: real time    2.7707
 BZINTS: Fermi energy: -0.845816;144.000000 electrons
         Band energy:***********;  BLOECHL correction:  0.000000
       DOS:  cpu time    0.0020: real time    0.0020
    CHARGE:  cpu time    0.1486: real time    0.1490
    MIXING:  cpu time    0.0056: real time    0.0056
    --------------------------------------------
      LOOP:  cpu time    5.4254: real time    5.4509

 eigenvalue-minimisations  :  3184
 total energy-change (2. order) : 0.6135570E-01  (-0.6943524E-02)
 number of electron     143.9999985 magnetization 
 augmentation part      -17.6944425 magnetization 

 Broyden mixing:
  rms(total) = 0.14997E-01    rms(broyden)= 0.14997E-01
  rms(prec ) = 0.29648E-01
  weight for this iteration     100.00

 eigenvalues of (default mixing * dielectric matrix)
  average eigenvalue GAMMA=   1.6028
  2.7924  2.7924  1.1496  1.0161  0.9333  0.9333

 Free energy of the ion-electron system (eV)
  ---------------------------------------------------
  alpha Z        PSCENC =       170.45750602
  Ewald energy   TEWEN  =     10980.19662373
  -Hartree energ DENC   =    -17361.97724922
  -exchange      EXHF   =         0.00000000
  -V(xc)+E(xc)   XCENC  =        43.57794896
  PAW double counting   =      3822.89336765    -3527.98121451
  entropy T*S    EENTRO =         0.00000000
  eigenvalues    EBANDS =     -1485.48344154
  atomic energy  EATOM  =      7269.15145414
  Solvation  Ediel_sol  =         0.00000000
  ---------------------------------------------------
  free energy    TOTEN  =       -89.16500476 eV

  energy without entropy =      -89.16500476  energy(sigma->0) =      -89.16500476


--------------------------------------------------------------------------------------------------------




--------------------------------------- Iteration      1(  12)  ---------------------------------------


    POTLOK:  cpu time    2.3879: real time    2.4047
    SETDIJ:  cpu time    0.1229: real time    0.1232
     EDDAV:  cpu time    2.9124: real time    2.9202
 BZINTS: Fermi energy: -0.697806;144.000000 electrons
         Band energy:***********;  BLOECHL correction:  0.000000
       DOS:  cpu time    0.0025: real time    0.0025
    CHARGE:  cpu time    0.1568: real time    0.1573
    MIXING:  cpu time    0.0058: real time    0.0058
    --------------------------------------------
      LOOP:  cpu time    5.5883: real time    5.6137

 eigenvalue-minimisations  :  3408
 total energy-change (2. order) :-0.6493362E-05  (-0.1364610E-02)
 number of electron     143.9999985 magnetization 
 augmentation part      -17.6902078 magnetization 

 Broyden mixing:
  rms(total) = 0.11281E-01    rms(broyden)= 0.11281E-01
  rms(prec ) = 0.19338E-01
  weight for this iteration     100.00

 eigenvalues of (default mixing * dielectric matrix)
  average eigenvalue GAMMA=   1.7130
  3.3735  2.6384  1.9717  1.1196  1.1196  0.8843  0.8843

 Free energy of the ion-electron system (eV)
  ---------------------------------------------------
  alpha Z        PSCENC =       170.45750602
  Ewald energy   TEWEN  =     10980.19662373
  -Hartree energ DENC   =    -17372.59826935
  -exchange      EXHF   =         0.00000000
  -V(xc)+E(xc)   XCENC  =        43.61816207
  PAW double counting   =      3820.61385569    -3525.53774650
  entropy T*S    EENTRO =         0.00000000
  eigenvalues    EBANDS =     -1475.06659707
  atomic energy  EATOM  =      7269.15145414
  Solvation  Ediel_sol  =         0.00000000
  ---------------------------------------------------
  free energy    TOTEN  =       -89.16501125 eV

  energy without entropy =      -89.16501125  energy(sigma->0) =      -89.16501125


--------------------------------------------------------------------------------------------------------




--------------------------------------- Iteration      1(  13)  ---------------------------------------


    POTLOK:  cpu time    2.3778: real time    2.3963
    SETDIJ:  cpu time    0.1291: real time    0.1294
     EDDAV:  cpu time    2.9471: real time    2.9546
 BZINTS: Fermi energy: -0.655293;144.000000 electrons
         Band energy:***********;  BLOECHL correction:  0.000000
       DOS:  cpu time    0.0024: real time    0.0024
    CHARGE:  cpu time    0.1495: real time    0.1498
    MIXING:  cpu time    0.0067: real time    0.0067
    --------------------------------------------
      LOOP:  cpu time    5.6126: real time    5.6393

 eigenvalue-minimisations  :  3424
 total energy-change (2. order) : 0.2683255E-02  (-0.7165429E-03)
 number of electron     143.9999985 magnetization 
 augmentation part      -17.6909446 magnetization 

 Broyden mixing:
  rms(total) = 0.58809E-02    rms(broyden)= 0.58808E-02
  rms(prec ) = 0.10486E-01
  weight for this iteration     100.00

 eigenvalues of (default mixing * dielectric matrix)
  average eigenvalue GAMMA=   1.7833
  3.9672  2.8477  2.4044  1.2078  1.2078  0.8925  0.8694  0.8694

 Free energy of the ion-electron system (eV)
  ---------------------------------------------------
  alpha Z        PSCENC =       170.45750602
  Ewald energy   TEWEN  =     10980.19662373
  -Hartree energ DENC   =    -17381.13314053
  -exchange      EXHF   =         0.00000000
  -V(xc)+E(xc)   XCENC  =        43.66913590
  PAW double counting   =      3819.22038710    -3524.24300579
  entropy T*S    EENTRO =         0.00000000
  eigenvalues    EBANDS =     -1466.48128858
  atomic energy  EATOM  =      7269.15145414
  Solvation  Ediel_sol  =         0.00000000
  ---------------------------------------------------
  free energy    TOTEN  =       -89.16232800 eV

  energy without entropy =      -89.16232800  energy(sigma->0) =      -89.16232800


--------------------------------------------------------------------------------------------------------




--------------------------------------- Iteration      1(  14)  ---------------------------------------


    POTLOK:  cpu time    2.3872: real time    2.4038
    SETDIJ:  cpu time    0.1136: real time    0.1139
     EDDAV:  cpu time    2.5760: real time    2.5825
 BZINTS: Fermi energy: -0.635247;144.000000 electrons
         Band energy:***********;  BLOECHL correction:  0.000000
       DOS:  cpu time    0.0023: real time    0.0023
    CHARGE:  cpu time    0.1454: real time    0.1457
    MIXING:  cpu time    0.0067: real time    0.0067
    --------------------------------------------
      LOOP:  cpu time    5.2312: real time    5.2549

 eigenvalue-minimisations  :  2928
 total energy-change (2. order) : 0.4089406E-02  (-0.2548901E-03)
 number of electron     143.9999985 magnetization 
 augmentation part      -17.6917190 magnetization 

 Broyden mixing:
  rms(total) = 0.46418E-02    rms(broyden)= 0.46418E-02
  rms(prec ) = 0.75524E-02
  weight for this iteration     100.00

 eigenvalues of (default mixing * dielectric matrix)
  average eigenvalue GAMMA=   1.8383
  4.5524  3.0223  2.1524  1.6337  0.8886  0.8886  1.1759  1.1759  1.0553

 Free energy of the ion-electron system (eV)
  ---------------------------------------------------
  alpha Z        PSCENC =       170.45750602
  Ewald energy   TEWEN  =     10980.19662373
  -Hartree energ DENC   =    -17384.54979757
  -exchange      EXHF   =         0.00000000
  -V(xc)+E(xc)   XCENC  =        43.67752826
  PAW double counting   =      3818.54048162    -3523.57214578
  entropy T*S    EENTRO =         0.00000000
  eigenvalues    EBANDS =     -1463.05988901
  atomic energy  EATOM  =      7269.15145414
  Solvation  Ediel_sol  =         0.00000000
  ---------------------------------------------------
  free energy    TOTEN  =       -89.15823859 eV

  energy without entropy =      -89.15823859  energy(sigma->0) =      -89.15823859


--------------------------------------------------------------------------------------------------------




--------------------------------------- Iteration      1(  15)  ---------------------------------------


    POTLOK:  cpu time    2.3818: real time    2.3998
    SETDIJ:  cpu time    0.1411: real time    0.1414
     EDDAV:  cpu time    2.5500: real time    2.5566
 BZINTS: Fermi energy: -0.617996;144.000000 electrons
         Band energy:***********;  BLOECHL correction:  0.000000
       DOS:  cpu time    0.0022: real time    0.0022
    CHARGE:  cpu time    0.1429: real time    0.1432
    MIXING:  cpu time    0.0067: real time    0.0068
    --------------------------------------------
      LOOP:  cpu time    5.2248: real time    5.2501

 eigenvalue-minimisations  :  2872
 total energy-change (2. order) : 0.1155839E-03  (-0.2641427E-03)
 number of electron     143.9999985 magnetization 
 augmentation part      -17.6930667 magnetization 

 Broyden mixing:
  rms(total) = 0.18756E-02    rms(broyden)= 0.18756E-02
  rms(prec ) = 0.37521E-02
  weight for this iteration     100.00

 eigenvalues of (default mixing * dielectric matrix)
  average eigenvalue GAMMA=   1.9312
  5.3959  3.2208  2.5733  1.7826  0.8876  0.8876  1.2581  1.2581  1.0242  1.0242

 Free energy of the ion-electron system (eV)
  ---------------------------------------------------
  alpha Z        PSCENC =       170.45750602
  Ewald energy   TEWEN  =     10980.19662373
  -Hartree energ DENC   =    -17386.65039632
  -exchange      EXHF   =         0.00000000
  -V(xc)+E(xc)   XCENC  =        43.67443429
  PAW double counting   =      3818.95741146    -3523.96608422
  entropy T*S    EENTRO =         0.00000000
  eigenvalues    EBANDS =     -1460.97907212
  atomic energy  EATOM  =      7269.15145414
  Solvation  Ediel_sol  =         0.00000000
  ---------------------------------------------------
  free energy    TOTEN  =       -89.15812301 eV

  energy without entropy =      -89.15812301  energy(sigma->0) =      -89.15812301


--------------------------------------------------------------------------------------------------------




--------------------------------------- Iteration      1(  16)  ---------------------------------------


    POTLOK:  cpu time    2.3848: real time    2.4008
    SETDIJ:  cpu time    0.1308: real time    0.1311
     EDDAV:  cpu time    2.6847: real time    2.6916
 BZINTS: Fermi energy: -0.605215;144.000000 electrons
         Band energy:***********;  BLOECHL correction:  0.000000
       DOS:  cpu time    0.0023: real time    0.0023
    CHARGE:  cpu time    0.1555: real time    0.1558
    MIXING:  cpu time    0.0076: real time    0.0076
    --------------------------------------------
      LOOP:  cpu time    5.3656: real time    5.3892

 eigenvalue-minimisations  :  3088
 total energy-change (2. order) : 0.4547466E-03  (-0.1625250E-03)
 number of electron     143.9999985 magnetization 
 augmentation part      -17.6928408 magnetization 

 Broyden mixing:
  rms(total) = 0.13671E-02    rms(broyden)= 0.13671E-02
  rms(prec ) = 0.25376E-02
  weight for this iteration     100.00

 eigenvalues of (default mixing * dielectric matrix)
  average eigenvalue GAMMA=   1.9978
  5.8036  3.5896  2.5357  2.1372  0.8898  0.8898  1.5057  1.3010  1.3010  0.9920
  1.0306

 Free energy of the ion-electron system (eV)
  ---------------------------------------------------
  alpha Z        PSCENC =       170.45750602
  Ewald energy   TEWEN  =     10980.19662373
  -Hartree energ DENC   =    -17388.32379621
  -exchange      EXHF   =         0.00000000
  -V(xc)+E(xc)   XCENC  =        43.67784871
  PAW double counting   =      3819.18278937    -3524.20388694
  entropy T*S    EENTRO =         0.00000000
  eigenvalues    EBANDS =     -1459.29620710
  atomic energy  EATOM  =      7269.15145414
  Solvation  Ediel_sol  =         0.00000000
  ---------------------------------------------------
  free energy    TOTEN  =       -89.15766826 eV

  energy without entropy =      -89.15766826  energy(sigma->0) =      -89.15766826


--------------------------------------------------------------------------------------------------------




--------------------------------------- Iteration      1(  17)  ---------------------------------------


    POTLOK:  cpu time    2.3838: real time    2.4017
    SETDIJ:  cpu time    0.1152: real time    0.1156
     EDDAV:  cpu time    2.5789: real time    2.5854
 BZINTS: Fermi energy: -0.595860;144.000000 electrons
         Band energy:***********;  BLOECHL correction:  0.000000
       DOS:  cpu time    0.0025: real time    0.0025
    CHARGE:  cpu time    0.1710: real time    0.1714
    MIXING:  cpu time    0.0058: real time    0.0059
    --------------------------------------------
      LOOP:  cpu time    5.2573: real time    5.2825

 eigenvalue-minimisations  :  2912
 total energy-change (2. order) : 0.3626360E-03  (-0.8824091E-04)
 number of electron     143.9999985 magnetization 
 augmentation part      -17.6927924 magnetization 

 Broyden mixing:
  rms(total) = 0.81724E-03    rms(broyden)= 0.81724E-03
  rms(prec ) = 0.15401E-02
  weight for this iteration     100.00

 eigenvalues of (default mixing * dielectric matrix)
  average eigenvalue GAMMA=   2.0311
  6.2771  3.7577  2.7687  2.3214  0.8889  0.8889  1.4785  1.4785  1.2259  1.2259
  0.9739  1.0882

 Free energy of the ion-electron system (eV)
  ---------------------------------------------------
  alpha Z        PSCENC =       170.45750602
  Ewald energy   TEWEN  =     10980.19662373
  -Hartree energ DENC   =    -17389.47988086
  -exchange      EXHF   =         0.00000000
  -V(xc)+E(xc)   XCENC  =        43.68198531
  PAW double counting   =      3819.21167488    -3524.22937056
  entropy T*S    EENTRO =         0.00000000
  eigenvalues    EBANDS =     -1458.14729830
  atomic energy  EATOM  =      7269.15145414
  Solvation  Ediel_sol  =         0.00000000
  ---------------------------------------------------
  free energy    TOTEN  =       -89.15730563 eV

  energy without entropy =      -89.15730563  energy(sigma->0) =      -89.15730563


--------------------------------------------------------------------------------------------------------




--------------------------------------- Iteration      1(  18)  ---------------------------------------


    POTLOK:  cpu time    2.3837: real time    2.4016
    SETDIJ:  cpu time    0.1194: real time    0.1197
     EDDAV:  cpu time    2.4345: real time    2.4406
 BZINTS: Fermi energy: -0.592513;144.000000 electrons
         Band energy:***********;  BLOECHL correction:  0.000000
       DOS:  cpu time    0.0024: real time    0.0024
    CHARGE:  cpu time    0.1425: real time    0.1431
    MIXING:  cpu time    0.0066: real time    0.0066
    --------------------------------------------
      LOOP:  cpu time    5.0891: real time    5.1140

 eigenvalue-minimisations  :  2688
 total energy-change (2. order) :-0.9035906E-03  (-0.2649933E-04)
 number of electron     143.9999985 magnetization 
 augmentation part      -17.6927955 magnetization 

 Broyden mixing:
  rms(total) = 0.54053E-03    rms(broyden)= 0.54053E-03
  rms(prec ) = 0.90262E-03
  weight for this iteration     100.00

 eigenvalues of (default mixing * dielectric matrix)
  average eigenvalue GAMMA=   2.1194
  6.7067  4.4600  2.7767  2.7767  1.9921  0.8887  0.8887  1.3593  1.3593  1.2005
  1.2005  0.9712  0.9712

 Free energy of the ion-electron system (eV)
  ---------------------------------------------------
  alpha Z        PSCENC =       170.45750602
  Ewald energy   TEWEN  =     10980.19662373
  -Hartree energ DENC   =    -17390.12691230
  -exchange      EXHF   =         0.00000000
  -V(xc)+E(xc)   XCENC  =        43.68411981
  PAW double counting   =      3819.15546602    -3524.17086172
  entropy T*S    EENTRO =         0.00000000
  eigenvalues    EBANDS =     -1457.50560491
  atomic energy  EATOM  =      7269.15145414
  Solvation  Ediel_sol  =         0.00000000
  ---------------------------------------------------
  free energy    TOTEN  =       -89.15820922 eV

  energy without entropy =      -89.15820922  energy(sigma->0) =      -89.15820922


--------------------------------------------------------------------------------------------------------




--------------------------------------- Iteration      1(  19)  ---------------------------------------


    POTLOK:  cpu time    2.4017: real time    2.4193
    SETDIJ:  cpu time    0.1303: real time    0.1306
     EDDAV:  cpu time    2.3825: real time    2.3885
 BZINTS: Fermi energy: -0.593125;144.000000 electrons
         Band energy:***********;  BLOECHL correction:  0.000000
       DOS:  cpu time    0.0022: real time    0.0022
    CHARGE:  cpu time    0.1452: real time    0.1457
    MIXING:  cpu time    0.0061: real time    0.0061
    --------------------------------------------
      LOOP:  cpu time    5.0680: real time    5.0924

 eigenvalue-minimisations  :  2616
 total energy-change (2. order) :-0.7166857E-03  (-0.2206902E-04)
 number of electron     143.9999985 magnetization 
 augmentation part      -17.6929825 magnetization 

 Broyden mixing:
  rms(total) = 0.42772E-03    rms(broyden)= 0.42772E-03
  rms(prec ) = 0.63730E-03
  weight for this iteration     100.00

 eigenvalues of (default mixing * dielectric matrix)
  average eigenvalue GAMMA=   2.2291
  7.2459  5.3747  2.9360  2.9360  2.1052  1.6733  1.6733  0.8888  0.8888  1.2575
  1.2575  1.0107  1.0107  0.9490

 Free energy of the ion-electron system (eV)
  ---------------------------------------------------
  alpha Z        PSCENC =       170.45750602
  Ewald energy   TEWEN  =     10980.19662373
  -Hartree energ DENC   =    -17390.21899976
  -exchange      EXHF   =         0.00000000
  -V(xc)+E(xc)   XCENC  =        43.68238792
  PAW double counting   =      3819.08150568    -3524.09558162
  entropy T*S    EENTRO =         0.00000000
  eigenvalues    EBANDS =     -1457.41382202
  atomic energy  EATOM  =      7269.15145414
  Solvation  Ediel_sol  =         0.00000000
  ---------------------------------------------------
  free energy    TOTEN  =       -89.15892590 eV

  energy without entropy =      -89.15892590  energy(sigma->0) =      -89.15892590


--------------------------------------------------------------------------------------------------------




--------------------------------------- Iteration      1(  20)  ---------------------------------------


    POTLOK:  cpu time    2.3908: real time    2.4088
    SETDIJ:  cpu time    0.1179: real time    0.1182
     EDDAV:  cpu time    2.4427: real time    2.4490
 BZINTS: Fermi energy: -0.593743;144.000000 electrons
         Band energy:***********;  BLOECHL correction:  0.000000
       DOS:  cpu time    0.0028: real time    0.0028
    CHARGE:  cpu time    0.1483: real time    0.1486
    MIXING:  cpu time    0.0071: real time    0.0071
    --------------------------------------------
      LOOP:  cpu time    5.1095: real time    5.1345

 eigenvalue-minimisations  :  2712
 total energy-change (2. order) :-0.3017508E-03  (-0.9185156E-05)
 number of electron     143.9999985 magnetization 
 augmentation part      -17.6930503 magnetization 

 Broyden mixing:
  rms(total) = 0.18857E-03    rms(broyden)= 0.18857E-03
  rms(prec ) = 0.28338E-03
  weight for this iteration     100.00

 eigenvalues of (default mixing * dielectric matrix)
  average eigenvalue GAMMA=   2.3263
  7.9592  6.4762  3.1124  3.1124  2.5235  0.8888  0.8888  1.5524  1.5524  1.2990
  1.2990  0.9646  0.9646  1.1505  1.1505

 Free energy of the ion-electron system (eV)
  ---------------------------------------------------
  alpha Z        PSCENC =       170.45750602
  Ewald energy   TEWEN  =     10980.19662373
  -Hartree energ DENC   =    -17390.22038903
  -exchange      EXHF   =         0.00000000
  -V(xc)+E(xc)   XCENC  =        43.68200822
  PAW double counting   =      3819.09748339    -3524.11104478
  entropy T*S    EENTRO =         0.00000000
  eigenvalues    EBANDS =     -1457.41286936
  atomic energy  EATOM  =      7269.15145414
  Solvation  Ediel_sol  =         0.00000000
  ---------------------------------------------------
  free energy    TOTEN  =       -89.15922765 eV

  energy without entropy =      -89.15922765  energy(sigma->0) =      -89.15922765


--------------------------------------------------------------------------------------------------------




--------------------------------------- Iteration      1(  21)  ---------------------------------------


    POTLOK:  cpu time    2.3908: real time    2.4085
    SETDIJ:  cpu time    0.1359: real time    0.1362
     EDDAV:  cpu time    2.2659: real time    2.2718
 BZINTS: Fermi energy: -0.594928;144.000000 electrons
         Band energy:***********;  BLOECHL correction:  0.000000
       DOS:  cpu time    0.0023: real time    0.0023
    CHARGE:  cpu time    0.1532: real time    0.1535
    MIXING:  cpu time    0.0070: real time    0.0070
    --------------------------------------------
      LOOP:  cpu time    4.9550: real time    4.9793

 eigenvalue-minimisations  :  2432
 total energy-change (2. order) :-0.1034428E-03  (-0.2523738E-05)
 number of electron     143.9999985 magnetization 
 augmentation part      -17.6930299 magnetization 

 Broyden mixing:
  rms(total) = 0.10225E-03    rms(broyden)= 0.10225E-03
  rms(prec ) = 0.12729E-03
  weight for this iteration     100.00

 eigenvalues of (default mixing * dielectric matrix)
  average eigenvalue GAMMA=   2.3530
  8.7290  6.5943  3.1957  3.1957  2.4294  1.9089  1.9089  0.8888  0.8888  1.2905
  1.2905  1.2332  1.0872  1.0872  0.9602  0.9602

 Free energy of the ion-electron system (eV)
  ---------------------------------------------------
  alpha Z        PSCENC =       170.45750602
  Ewald energy   TEWEN  =     10980.19662373
  -Hartree energ DENC   =    -17390.12856433
  -exchange      EXHF   =         0.00000000
  -V(xc)+E(xc)   XCENC  =        43.68102063
  PAW double counting   =      3819.10314488    -3524.11755302
  entropy T*S    EENTRO =         0.00000000
  eigenvalues    EBANDS =     -1457.50296315
  atomic energy  EATOM  =      7269.15145414
  Solvation  Ediel_sol  =         0.00000000
  ---------------------------------------------------
  free energy    TOTEN  =       -89.15933110 eV

  energy without entropy =      -89.15933110  energy(sigma->0) =      -89.15933110


--------------------------------------------------------------------------------------------------------




--------------------------------------- Iteration      1(  22)  ---------------------------------------


    POTLOK:  cpu time    2.3854: real time    2.4020
    SETDIJ:  cpu time    0.1463: real time    0.1466
     EDDAV:  cpu time    2.2335: real time    2.2392
 BZINTS: Fermi energy: -0.595287;144.000000 electrons
         Band energy:***********;  BLOECHL correction:  0.000000
       DOS:  cpu time    0.0022: real time    0.0022
    CHARGE:  cpu time    0.1599: real time    0.1604
    MIXING:  cpu time    0.0066: real time    0.0066
    --------------------------------------------
      LOOP:  cpu time    4.9339: real time    4.9570

 eigenvalue-minimisations  :  2376
 total energy-change (2. order) :-0.1419256E-04  (-0.2122092E-06)
 number of electron     143.9999985 magnetization 
 augmentation part      -17.6930018 magnetization 

 Broyden mixing:
  rms(total) = 0.57748E-04    rms(broyden)= 0.57747E-04
  rms(prec ) = 0.75231E-04
  weight for this iteration     100.00

 eigenvalues of (default mixing * dielectric matrix)
  average eigenvalue GAMMA=   2.3270
  8.8301  6.9151  3.2649  3.2649  2.6123  1.9068  1.9068  0.8889  0.8889  1.4742
  1.2408  1.2408  0.9557  0.9557  1.0587  1.0771  1.0771

 Free energy of the ion-electron system (eV)
  ---------------------------------------------------
  alpha Z        PSCENC =       170.45750602
  Ewald energy   TEWEN  =     10980.19662373
  -Hartree energ DENC   =    -17390.13740675
  -exchange      EXHF   =         0.00000000
  -V(xc)+E(xc)   XCENC  =        43.68087247
  PAW double counting   =      3819.08914306    -3524.10318537
  entropy T*S    EENTRO =         0.00000000
  eigenvalues    EBANDS =     -1457.49435261
  atomic energy  EATOM  =      7269.15145414
  Solvation  Ediel_sol  =         0.00000000
  ---------------------------------------------------
  free energy    TOTEN  =       -89.15934529 eV

  energy without entropy =      -89.15934529  energy(sigma->0) =      -89.15934529


--------------------------------------------------------------------------------------------------------




--------------------------------------- Iteration      1(  23)  ---------------------------------------


    POTLOK:  cpu time    2.3962: real time    2.4148
    SETDIJ:  cpu time    0.1310: real time    0.1313
     EDDAV:  cpu time    1.9385: real time    1.9435
 BZINTS: Fermi energy: -0.595734;144.000000 electrons
         Band energy:***********;  BLOECHL correction:  0.000000
       DOS:  cpu time    0.0023: real time    0.0023
    CHARGE:  cpu time    0.1491: real time    0.1495
    MIXING:  cpu time    0.0090: real time    0.0090
    --------------------------------------------
      LOOP:  cpu time    4.6262: real time    4.6504

 eigenvalue-minimisations  :  1920
 total energy-change (2. order) :-0.3699166E-05  (-0.4818445E-07)
 number of electron     143.9999985 magnetization 
 augmentation part      -17.6929995 magnetization 

 Broyden mixing:
  rms(total) = 0.33403E-04    rms(broyden)= 0.33403E-04
  rms(prec ) = 0.46295E-04
  weight for this iteration     100.00

 eigenvalues of (default mixing * dielectric matrix)
  average eigenvalue GAMMA=   2.3295
  8.8719  7.0273  3.3547  3.3547  2.7016  1.9720  1.9720  1.9865  0.8888  0.8888
  1.2535  1.2535  1.2933  1.0994  1.0994  0.9574  0.9574  0.9987

 Free energy of the ion-electron system (eV)
  ---------------------------------------------------
  alpha Z        PSCENC =       170.45750602
  Ewald energy   TEWEN  =     10980.19662373
  -Hartree energ DENC   =    -17390.12333896
  -exchange      EXHF   =         0.00000000
  -V(xc)+E(xc)   XCENC  =        43.68075371
  PAW double counting   =      3819.09032167    -3524.10452401
  entropy T*S    EENTRO =         0.00000000
  eigenvalues    EBANDS =     -1457.50814530
  atomic energy  EATOM  =      7269.15145414
  Solvation  Ediel_sol  =         0.00000000
  ---------------------------------------------------
  free energy    TOTEN  =       -89.15934899 eV

  energy without entropy =      -89.15934899  energy(sigma->0) =      -89.15934899


--------------------------------------------------------------------------------------------------------




--------------------------------------- Iteration      1(  24)  ---------------------------------------


    POTLOK:  cpu time    2.4030: real time    2.4210
    SETDIJ:  cpu time    0.0861: real time    0.0863
     EDDAV:  cpu time    1.9377: real time    1.9426
 BZINTS: Fermi energy: -0.596046;144.000000 electrons
         Band energy:***********;  BLOECHL correction:  0.000000
       DOS:  cpu time    0.0025: real time    0.0025
    --------------------------------------------
      LOOP:  cpu time    4.4291: real time    4.4523

 eigenvalue-minimisations  :  1920
 total energy-change (2. order) :-0.9560517E-06  (-0.2469396E-07)
 number of electron     143.9999985 magnetization 
 augmentation part      -17.6929995 magnetization 

 Free energy of the ion-electron system (eV)
  ---------------------------------------------------
  alpha Z        PSCENC =       170.45750602
  Ewald energy   TEWEN  =     10980.19662373
  -Hartree energ DENC   =    -17390.12206787
  -exchange      EXHF   =         0.00000000
  -V(xc)+E(xc)   XCENC  =        43.68071769
  PAW double counting   =      3819.08988374    -3524.10408178
  entropy T*S    EENTRO =         0.00000000
  eigenvalues    EBANDS =     -1457.50938561
  atomic energy  EATOM  =      7269.15145414
  Solvation  Ediel_sol  =         0.00000000
  ---------------------------------------------------
[...]
      7     -28.2463      2.00000
      8     -28.2460      2.00000
      9     -14.9443      2.00000
     10     -14.9441      2.00000
     11     -14.8808      2.00000
     12     -14.8807      2.00000
     13     -14.8128      2.00000
     14     -14.8128      2.00000
     15     -14.1261      2.00000
     16     -14.1220      2.00000
     17     -14.1124      2.00000
     18     -14.1108      2.00000
     19     -14.0641      2.00000
     20     -14.0631      2.00000
     21     -14.0145      2.00000
     22     -14.0070      2.00000
     23     -13.9475      2.00000
     24     -13.9461      2.00000
     25     -13.9444      2.00000
     26     -13.9421      2.00000
     27     -13.5715      2.00000
     28     -13.5648      2.00000
     29     -13.5161      2.00000
     30     -13.5087      2.00000
     31     -13.4937      2.00000
     32     -13.4907      2.00000
     33     -11.0225      2.00000
     34     -11.0144      2.00000
     35     -10.7339      2.00000
     36     -10.7214      2.00000
     37      -6.4881      2.00000
     38      -6.4763      2.00000
     39      -6.2471      2.00000
     40      -6.2308      2.00000
     41      -6.1517      2.00000
     42      -6.1464      2.00000
     43      -5.9694      2.00000
     44      -5.9556      2.00000
     45      -5.9134      2.00000
     46      -5.8770      2.00000
     47      -5.8420      2.00000
     48      -5.7354      2.00000
     49      -2.8281      2.00000
     50      -2.7442      2.00000
     51      -2.6247      2.00000
     52      -2.5831      2.00000
     53      -2.2489      2.00000
     54      -2.1799      2.00000
     55      -2.1683      2.00000
     56      -2.1360      2.00000
     57      -2.0146      2.00000
     58      -1.9926      2.00000
     59      -1.8685      2.00000
     60      -1.8003      2.00000
     61      -1.7378      2.00000
     62      -1.6482      2.00000
     63      -1.5395      2.00000
     64      -1.5069      2.00000
     65      -1.3610      2.00000
     66      -1.3003      2.00000
     67      -1.2510      2.00000
     68      -1.1129      2.00000
     69      -1.0266      2.00000
     70      -0.9861      2.00000
     71      -0.9211      2.00000
     72      -0.8711      2.00000
     73       0.1983      0.00000
     74       0.2374      0.00000
     75       0.3959      0.00000
     76       0.4420      0.00000
     77       0.5580      0.00000
     78       0.6159      0.00000
     79       0.7564      0.00000
     80       0.7793      0.00000
     81       0.8375      0.00000
     82       0.8767      0.00000
     83       1.0233      0.00000
     84       1.0520      0.00000
     85       1.1667      0.00000
     86       1.2990      0.00000
     87       1.4006      0.00000
     88       1.5159      0.00000

 k-point    15 :       0.0000    0.5000    0.4000
  band No.  band energies     occupation 
      1     -29.6264      2.00000
      2     -29.6264      2.00000
      3     -28.7904      2.00000
      4     -28.7903      2.00000
      5     -28.6988      2.00000
      6     -28.6988      2.00000
      7     -28.2462      2.00000
      8     -28.2462      2.00000
      9     -14.9437      2.00000
     10     -14.9437      2.00000
     11     -14.8815      2.00000
     12     -14.8815      2.00000
     13     -14.8148      2.00000
     14     -14.8148      2.00000
     15     -14.1251      2.00000
     16     -14.1251      2.00000
     17     -14.1106      2.00000
     18     -14.1105      2.00000
     19     -14.0660      2.00000
     20     -14.0660      2.00000
     21     -14.0120      2.00000
     22     -14.0119      2.00000
     23     -13.9492      2.00000
     24     -13.9491      2.00000
     25     -13.9425      2.00000
     26     -13.9425      2.00000
     27     -13.5677      2.00000
     28     -13.5677      2.00000
     29     -13.5134      2.00000
     30     -13.5134      2.00000
     31     -13.4911      2.00000
     32     -13.4911      2.00000
     33     -11.0125      2.00000
     34     -11.0125      2.00000
     35     -10.7184      2.00000
     36     -10.7184      2.00000
     37      -6.5121      2.00000
     38      -6.5120      2.00000
     39      -6.2233      2.00000
     40      -6.2232      2.00000
     41      -6.1427      2.00000
     42      -6.1427      2.00000
     43      -5.9392      2.00000
     44      -5.9391      2.00000
     45      -5.9050      2.00000
     46      -5.9050      2.00000
     47      -5.7802      2.00000
     48      -5.7801      2.00000
     49      -2.7365      2.00000
     50      -2.7365      2.00000
     51      -2.6242      2.00000
     52      -2.6242      2.00000
     53      -2.2076      2.00000
     54      -2.2076      2.00000
     55      -2.1615      2.00000
     56      -2.1615      2.00000
     57      -2.0179      2.00000
     58      -2.0179      2.00000
     59      -1.7772      2.00000
     60      -1.7771      2.00000
     61      -1.6100      2.00000
     62      -1.6100      2.00000
     63      -1.5705      2.00000
     64      -1.5705      2.00000
     65      -1.3436      2.00000
     66      -1.3436      2.00000
     67      -1.1926      2.00000
     68      -1.1926      2.00000
     69      -1.0162      2.00000
     70      -1.0162      2.00000
     71      -0.9020      2.00000
     72      -0.9020      2.00000
     73       0.1482      0.00000
     74       0.1482      0.00000
     75       0.3790      0.00000
     76       0.3790      0.00000
     77       0.6116      0.00000
     78       0.6116      0.00000
     79       0.7000      0.00000
     80       0.7001      0.00000
     81       0.8034      0.00000
     82       0.8034      0.00000
     83       1.0543      0.00000
     84       1.0543      0.00000
     85       1.2396      0.00000
     86       1.2396      0.00000
     87       1.3817      0.00000
     88       1.3818      0.00000


--------------------------------------------------------------------------------------------------------


 soft charge-density along one line, spin component           1
         0         1         2         3         4         5         6         7         8         9
 total charge-density along one line
 
 pseudopotential strength for first ion, spin component:           1
  4.861  -5.559  -0.000  -0.006  -0.025  -0.000  -0.004  -0.020
 -5.559  -2.761   0.000   0.001   0.004  -0.000  -0.001  -0.004
 -0.000   0.000  -6.824  -0.000  -0.000   1.879  -0.000  -0.000
 -0.006   0.001  -0.000  -6.819  -0.002  -0.000   1.891  -0.003
 -0.025   0.004  -0.000  -0.002  -6.820  -0.000  -0.003   1.890
 -0.000  -0.000   1.879  -0.000  -0.000   7.262  -0.000  -0.000
 -0.004  -0.001  -0.000   1.891  -0.003  -0.000   7.264  -0.000
 -0.020  -0.004  -0.000  -0.003   1.890  -0.000  -0.000   7.264
 -0.000   0.000  -0.012  -0.000  -0.000  -0.009  -0.000  -0.000
 -0.000   0.000  -0.001  -0.000  -0.000  -0.000  -0.000  -0.000
  0.002  -0.001   0.000  -0.004   0.007   0.000  -0.003   0.005
 -0.002   0.001  -0.000  -0.011  -0.002  -0.000  -0.009  -0.002
  0.003  -0.001   0.000  -0.001  -0.011   0.000  -0.001  -0.008
  0.000   0.000   0.001   0.000   0.000   0.000   0.000   0.000
  0.000   0.000   0.000   0.000   0.000  -0.000   0.000   0.000
 -0.000  -0.000  -0.000   0.000  -0.000  -0.000   0.000  -0.000
  0.000   0.000   0.000   0.001   0.000   0.000   0.000   0.000
 -0.000  -0.000  -0.000   0.000   0.001  -0.000   0.000   0.000
 total augmentation occupancy for first ion, spin component:           1
  2.108  -0.260   0.000   0.012   0.052   0.000  -0.005  -0.019   0.000   0.000   0.016  -0.008   0.033   0.000   0.000  -0.008
 -0.260   0.637   0.000  -0.031  -0.134   0.000   0.011   0.032   0.000   0.000  -0.027   0.008  -0.063   0.000   0.000   0.038
  0.000   0.000   2.012   0.000   0.000  -0.015  -0.000   0.000  -0.081   0.022   0.000   0.000   0.000   0.069  -0.043  -0.000
  0.012  -0.031   0.000   1.999   0.003   0.000  -0.006  -0.002  -0.000   0.000  -0.043  -0.066  -0.014  -0.000   0.000   0.043
  0.052  -0.134   0.000   0.003   1.994   0.000  -0.002  -0.004   0.000   0.000   0.033  -0.006  -0.050  -0.000   0.000  -0.027
  0.000   0.000  -0.015  -0.000   0.000   0.008   0.000   0.000   0.022  -0.009  -0.000  -0.000   0.000  -0.030   0.013   0.000
 -0.005   0.011   0.000  -0.006  -0.002   0.000   0.005   0.001   0.000   0.000   0.015   0.016   0.005   0.000   0.000  -0.022
 -0.019   0.032   0.000  -0.002  -0.004   0.000   0.001   0.004   0.000   0.000  -0.006  -0.000   0.008   0.000   0.000   0.008
  0.000   0.000  -0.081  -0.000   0.000   0.022   0.000   0.000   0.149  -0.013   0.000   0.000   0.000  -0.190   0.019  -0.000
  0.000  -0.000   0.022   0.000   0.000  -0.009   0.000   0.000  -0.013   0.068   0.000   0.000   0.000   0.017  -0.085   0.000
  0.016  -0.027  -0.000  -0.043   0.033   0.000   0.015  -0.006   0.000   0.000   0.119   0.051   0.020   0.000  -0.000  -0.150
 -0.008   0.008   0.000  -0.066  -0.006   0.000   0.016  -0.000   0.000   0.000   0.051   0.088   0.007  -0.000  -0.000  -0.071
  0.033  -0.063   0.000  -0.014  -0.050   0.000   0.005   0.008   0.000   0.000   0.020   0.007   0.092   0.000   0.000  -0.027
  0.000   0.000   0.069   0.000  -0.000  -0.030   0.000   0.000  -0.190   0.017   0.000   0.000  -0.000   0.271  -0.033   0.000
  0.000   0.000  -0.043  -0.000   0.000   0.013   0.000   0.000   0.019  -0.085   0.000   0.000   0.000  -0.033   0.116   0.000
 -0.008   0.038   0.000   0.043  -0.027   0.000  -0.022   0.008   0.000   0.000  -0.150  -0.071  -0.027   0.000  -0.000   0.210
  0.006  -0.026   0.000   0.055  -0.001   0.000  -0.023  -0.000   0.000   0.000  -0.070  -0.113  -0.010   0.000   0.000   0.108
 -0.025   0.078   0.000   0.022   0.042  -0.000  -0.008  -0.012  -0.000   0.000  -0.029  -0.012  -0.124   0.000   0.000   0.045


------------------------ aborting loop because EDIFF is reached ----------------------------------------


    CHARGE:  cpu time    0.1528: real time    0.1531
    FORLOC:  cpu time    0.0092: real time    0.0092
    FORNL :  cpu time    0.5360: real time    0.5375
    STRESS:  cpu time    1.6170: real time    1.6401
    FORCOR:  cpu time    2.4028: real time    2.4093
    FORHAR:  cpu time    0.0218: real time    0.0219
    MIXING:  cpu time    0.0102: real time    0.0103
    OFIELD:  cpu time    0.0000: real time    0.0000

  FORCE on cell =-STRESS in cart. coord.  units (eV):
  Direction    XX          YY          ZZ          XY          YZ          ZX
  --------------------------------------------------------------------------------------
  Alpha Z   170.45751   170.45751   170.45751
  Ewald  -18713.01386 15118.27611 14574.92132    -0.00002     0.00000   136.29080
  Hartree-15654.72520 16733.43681 16311.41891     0.00000    -0.00000   105.75108
  E(xc)    -460.64732  -461.82457  -461.86444    -0.00000     0.00000     0.03657
  Local   32953.35484-33287.06508-32314.17040     0.00001    -0.00000  -240.24424
  n-local   336.23099   336.00969   337.58820     0.06219    -0.21566    -1.13551
  augment  -167.47827  -167.92781  -167.91309    -0.00000    -0.00000     0.23991
  Kinetic  1523.22281  1544.03617  1535.39759    -0.05679    -0.84708    -0.70583
  Fock        0.00000     0.00000     0.00000     0.00000     0.00000     0.00000
  -------------------------------------------------------------------------------------
  Total     -12.59849   -14.60117   -14.16441     0.00000     0.00000     0.23277
  in kB     -10.69096   -12.39040   -12.01978     0.00000     0.00000     0.19753
  external pressure =      -11.70 kB  Pullay stress =        0.00 kB


 VOLUME and BASIS-vectors are now :
 -----------------------------------------------------------------------------
  energy-cutoff  :      500.00
  volume of cell :     1888.05
      direct lattice vectors                 reciprocal lattice vectors
    24.009468079  0.000000000  0.000000000     0.041650236  0.000000000  0.000000000
     0.000000000  6.777849674  0.000000000     0.000000000  0.147539419  0.000000000
     0.000000000  0.000000000 11.602143288     0.000000000  0.000000000  0.086190971

  length of vectors
    24.009468079  6.777849674 11.602143288     0.041650236  0.147539419  0.086190971


 FORCES acting on ions
    electron-ion (+dipol)            ewald-force                    non-local-force                 convergence-correction
 -----------------------------------------------------------------------------------------------
   0.761E+03 0.102E-04 0.434E+02   -.756E+03 0.989E-05 -.426E+02   -.405E+01 0.270E-18 -.769E+00   -.688E-03 -.397E-08 -.423E-04
   -.761E+03 -.631E-04 -.434E+02   0.756E+03 -.128E-04 0.426E+02   0.405E+01 0.301E-18 0.769E+00   0.688E-03 0.454E-08 0.423E-04
   0.884E+02 -.616E-04 -.384E+02   -.882E+02 -.173E-04 0.371E+02   0.253E+00 0.582E-18 0.128E+01   -.722E-04 0.686E-08 0.424E-03
   -.884E+02 0.106E-04 0.384E+02   0.882E+02 0.124E-04 -.371E+02   -.253E+00 0.551E-18 -.128E+01   0.722E-04 -.601E-08 -.424E-03
   0.609E+03 -.613E-04 -.483E+02   -.606E+03 -.162E-04 0.486E+02   -.166E+01 -.149E-18 -.316E+00   -.710E-03 0.564E-08 -.234E-03
   -.609E+03 0.900E-05 0.483E+02   0.606E+03 0.141E-04 -.486E+02   0.166E+01 0.369E-18 0.316E+00   0.710E-03 -.505E-08 0.234E-03
   0.348E+03 0.111E-04 -.104E+02   -.347E+03 0.129E-04 0.972E+01   -.300E+00 -.392E-17 0.635E+00   -.272E-03 -.570E-08 0.256E-03
   -.348E+03 -.623E-04 0.104E+02   0.347E+03 -.131E-04 -.972E+01   0.300E+00 -.467E-17 -.635E+00   0.272E-03 0.571E-08 -.256E-03
   0.269E+03 0.354E+02 -.458E+02   -.269E+03 -.371E+02 0.468E+02   -.115E+00 0.174E+01 -.917E+00   -.203E-03 -.834E-04 0.988E-04
   -.269E+03 -.354E+02 0.458E+02   0.269E+03 0.371E+02 -.468E+02   0.115E+00 -.174E+01 0.917E+00   0.203E-03 0.834E-04 -.988E-04
   0.114E+03 -.322E+02 0.203E+01   -.114E+03 0.336E+02 -.828E+00   0.979E-01 -.136E+01 -.120E+01   -.131E-03 0.502E-04 -.686E-04
   -.114E+03 0.322E+02 -.203E+01   0.114E+03 -.336E+02 0.828E+00   -.979E-01 0.136E+01 0.120E+01   0.131E-03 -.502E-04 0.686E-04
   -.269E+03 0.354E+02 0.458E+02   0.269E+03 -.371E+02 -.468E+02   0.115E+00 0.174E+01 0.917E+00   0.203E-03 -.834E-04 -.988E-04
   0.269E+03 -.354E+02 -.458E+02   -.269E+03 0.371E+02 0.468E+02   -.115E+00 -.174E+01 -.917E+00   -.203E-03 0.834E-04 0.988E-04
   -.114E+03 -.322E+02 -.203E+01   0.114E+03 0.336E+02 0.828E+00   -.979E-01 -.136E+01 0.120E+01   0.131E-03 0.502E-04 0.686E-04
   0.114E+03 0.322E+02 0.203E+01   -.114E+03 -.336E+02 -.828E+00   0.979E-01 0.136E+01 -.120E+01   -.131E-03 -.502E-04 -.686E-04
   0.323E+03 -.432E-05 0.460E+02   -.324E+03 -.609E-05 -.464E+02   0.149E+01 0.230E-18 0.434E+00   -.195E-03 0.163E-08 0.426E-04
   -.323E+03 0.617E-05 -.460E+02   0.324E+03 0.629E-05 0.464E+02   -.149E+01 -.126E-18 -.434E+00   0.195E-03 -.192E-08 -.426E-04
   0.335E+02 0.839E-05 -.971E+01   -.316E+02 0.736E-05 0.909E+01   -.152E+01 0.458E-19 0.615E+00   0.184E-05 -.260E-08 0.816E-04
   -.335E+02 -.287E-05 0.971E+01   0.316E+02 -.705E-05 -.909E+01   0.152E+01 -.452E-19 -.615E+00   -.183E-05 0.232E-08 -.816E-04
   0.233E+03 0.429E-05 0.136E+02   -.233E+03 0.800E-05 -.151E+02   -.413E-02 0.529E-18 0.147E+01   -.317E-03 -.229E-08 -.182E-03
   -.233E+03 -.562E-05 -.136E+02   0.233E+03 -.806E-05 0.151E+02   0.413E-02 -.499E-18 -.147E+01   0.317E-03 0.200E-08 0.182E-03
   0.150E+03 -.619E-05 0.567E+02   -.150E+03 -.742E-05 -.587E+02   -.611E+00 -.177E-17 0.196E+01   -.736E-04 0.209E-08 -.352E-05
   -.150E+03 0.369E-05 -.567E+02   0.150E+03 0.728E-05 0.587E+02   0.611E+00 0.387E-19 -.196E+01   0.736E-04 -.226E-08 0.353E-05
 -----------------------------------------------------------------------------------------------
   0.109E-03 -.214E-03 0.778E-04   -.227E-12 0.179E-13 0.497E-13   -.444E-15 0.442E-15 -.222E-15   0.363E-07 0.340E-09 -.936E-08
 
 
 POSITION                                       TOTAL-FORCE (eV/Angst)
 -----------------------------------------------------------------------------------
      0.13670      1.69446      8.16034         0.781242      0.000000      0.000146
      9.37277      5.08339      3.44180        -0.781242     -0.000000     -0.000146
      4.36803      5.08339      2.14487         0.437614      0.000000     -0.000403
      5.14143      1.69446      9.45727        -0.437614      0.000000      0.000403
      1.43529      5.08339     10.60538         0.668426     -0.000000      0.000162
      8.07418      1.69446      0.99676        -0.668426     -0.000000     -0.000162
      3.06944      1.69446      4.60040         0.516478     -0.000000      0.000585
      6.44002      5.08339      7.00174        -0.516478      0.000000     -0.000585
      1.75027      0.48862      1.64839        -0.113541     -0.000116      0.000042
      7.75920      6.28923      9.95375         0.113541      0.000116     -0.000042
      2.75446      6.30264      7.65389         0.334845     -0.000368     -0.000299
      6.75500      0.47521      3.94826        -0.334845      0.000368      0.000299
      7.75920      3.87754      9.95375         0.113541     -0.000116     -0.000042
      1.75027      2.90031      1.64839        -0.113541      0.000116      0.000042
      6.75500      2.91372      3.94826        -0.334845     -0.000368      0.000299
      2.75446      3.86413      7.65389         0.334845      0.000368     -0.000299
      0.74693      5.08339      6.96192        -0.259213      0.000000     -0.000090
      8.76254      1.69446      4.64022         0.259213     -0.000000      0.000090
      3.75780      1.69446      0.92411         0.378012     -0.000000      0.000109
      5.75166      5.08339     10.67803        -0.378012     -0.000000     -0.000109
      1.78112      1.69446     11.12625        -0.141035     -0.000000      0.000380
      7.72835      5.08339      0.47590         0.141035      0.000000     -0.000380
      2.72362      5.08339      5.52942        -0.100855      0.000000      0.000668
      6.78585      1.69446      6.07273         0.100855      0.000000     -0.000668
 -----------------------------------------------------------------------------------
    total drift:                                0.000109     -0.000214      0.000078


--------------------------------------------------------------------------------------------------------



  FREE ENERGIE OF THE ION-ELECTRON SYSTEM (eV)
  ---------------------------------------------------
  free  energy   TOTEN  =       -89.15934994 eV

  energy  without entropy=      -89.15934994  energy(sigma->0) =      -89.15934994
 


--------------------------------------------------------------------------------------------------------


    POTLOK:  cpu time    2.4873: real time    2.4936


--------------------------------------------------------------------------------------------------------


 writing wavefunctions
     LOOP+:  cpu time15234.0330: real time15273.0581
    4ORBIT:  cpu time    0.0000: real time    0.0000
 BZINTS: Fermi energy: -0.596046;144.000000 electrons
         Band energy:***********;  BLOECHL correction:  0.000000

 total amount of memory used by VASP MPI-rank0    79352. kBytes
=======================================================================

   base      :      30000. kBytes
   nonlr-proj:       2646. kBytes
   fftplans  :       5898. kBytes
   grid      :       8824. kBytes
   one-center:         93. kBytes
   wavefun   :      31891. kBytes
 
  
  
 General timing and accounting informations for this job:
 ========================================================
  
                  Total CPU time used (sec):    15241.806
                            User time (sec):    15183.092
                          System time (sec):       58.714
                         Elapsed time (sec):    15283.609
  
                   Maximum memory used (kb):      296360.
                   Average memory used (kb):           0.
  
                          Minor page faults:       111213
                          Major page faults:          171
                 Voluntary context switches:        14332
