 vasp.5.4.4.18Apr17-6-g9f103f2a35 (build Nov 21 2017 15:30:27) complex          
  
 executed on             LinuxIFC date 2020.09.15  12:20:29
 running on   64 total cores
 distrk:  each k-point on   32 cores,    2 groups
 distr:  one band on NCORES_PER_BAND=   4 cores,    8 groups


--------------------------------------------------------------------------------------------------------


 INCAR:
 POTCAR:   PAW_PBE Ba_sv 06Sep2000                
 POTCAR:   PAW_PBE Si 05Jan2001                   

 ----------------------------------------------------------------------------- 
|                                                                             |
|           W    W    AA    RRRRR   N    N  II  N    N   GGGG   !!!           |
|           W    W   A  A   R    R  NN   N  II  NN   N  G    G  !!!           |
|           W    W  A    A  R    R  N N  N  II  N N  N  G       !!!           |
|           W WW W  AAAAAA  RRRRR   N  N N  II  N  N N  G  GGG   !            |
|           WW  WW  A    A  R   R   N   NN  II  N   NN  G    G                |
|           W    W  A    A  R    R  N    N  II  N    N   GGGG   !!!           |
|                                                                             |
|      You have enabled k-point parallelism (KPAR>1).                         |
|      This developmental code was originally  written by Paul Kent at ORNL,  |
|      and carefully double checked in Vienna.                                |
|      GW as well as linear response parallelism added by Martijn Marsman     |
|      and Georg Kresse.                                                      |
|      Carefully verify results versus KPAR=1.                                |
|      Report problems to Paul Kent and Vienna.                               |
|                                                                             |
 ----------------------------------------------------------------------------- 


 ----------------------------------------------------------------------------- 
|                                                                             |
|  ADVICE TO THIS USER RUNNING 'VASP/VAMP'   (HEAR YOUR MASTER'S VOICE ...):  |
|                                                                             |
|      You have switched on vdW-DFT.                                          |
|      This routine was written and supplied by Jiri Klimes.                  |
|      We recommed that you carefully read and cite the following             |
|      publication                                                            |
|      J. Klimes, D.R. Bowler, A. Michelides                                  |
|        J. Phys.: Cond Matt. 22 022201 (2010)                                |
|      J. Klimes, D.R. Bowler, A. Michelides                                  |
|        Phys. Rev. B. 83, 195131 (2011)                                      |
|      and references therein.                                                |
|                                                                             |
 ----------------------------------------------------------------------------- 

 POTCAR:   PAW_PBE Ba_sv 06Sep2000                
   VRHFIN =Ba: 5s5p6s                                                           
   LEXCH  = PE                                                                  
   EATOM  =   700.2255 eV,   51.4651 Ry                                         
                                                                                
   TITEL  = PAW_PBE Ba_sv 06Sep2000                                             
   LULTRA =        F    use ultrasoft PP ?                                      
   IUNSCR =        1    unscreen: 0-lin 1-nonlin 2-no                           
   RPACOR =    2.400    partial core radius                                     
   POMASS =  137.327; ZVAL   =   10.000    mass and valenz                      
   RCORE  =    2.800    outmost cutoff radius                                   
   RWIGS  =    3.740; RWIGS  =    1.979    wigner-seitz radius (au A)           
   ENMAX  =  187.210; ENMIN  =  140.408 eV                                      
   RCLOC  =    2.516    cutoff for local pot                                    
   LCOR   =        T    correct aug charges                                     
   LPAW   =        T    paw PP                                                  
   EAUG   =  351.165                                                            
   DEXC   =     .000                                                            
   RMAX   =    3.370    core radius for proj-oper                               
   RAUG   =    1.300    factor for augmentation sphere                          
   RDEP   =    2.976    radius for radial grids                                 
   QCUT   =   -3.709; QGAM   =    7.419    optimization parameters              
                                                                                
   Description                                                                  
     l     E      TYP  RCUT    TYP  RCUT                                        
     0   .000     23  2.800                                                     
     0   .000     23  2.800                                                     
     1   .000     23  2.700                                                     
     1  2.000     23  2.700                                                     
     2   .000     23  2.700                                                     
     2   .000     23  2.700                                                     
  local pseudopotential read in
  partial core-charges read in
  atomic valenz-charges read in
  non local Contribution for L=           0  read in
    real space projection operators read in
  non local Contribution for L=           0  read in
    real space projection operators read in
  non local Contribution for L=           1  read in
    real space projection operators read in
  non local Contribution for L=           1  read in
    real space projection operators read in
  non local Contribution for L=           2  read in
    real space projection operators read in
  non local Contribution for L=           2  read in
    real space projection operators read in
    PAW grid and wavefunctions read in
 
   number of l-projection  operators is LMAX  =           6
   number of lm-projection operators is LMMAX =          18
 
 POTCAR:   PAW_PBE Si 05Jan2001                   
   VRHFIN =Si: s2p2                                                             
   LEXCH  = PE                                                                  
   EATOM  =   103.0669 eV,    7.5752 Ry                                         
                                                                                
   TITEL  = PAW_PBE Si 05Jan2001                                                
   LULTRA =        F    use ultrasoft PP ?                                      
   IUNSCR =        1    unscreen: 0-lin 1-nonlin 2-no                           
   RPACOR =    1.500    partial core radius                                     
   POMASS =   28.085; ZVAL   =    4.000    mass and valenz                      
   RCORE  =    1.900    outmost cutoff radius                                   
   RWIGS  =    2.480; RWIGS  =    1.312    wigner-seitz radius (au A)           
   ENMAX  =  245.345; ENMIN  =  184.009 eV                                      
   ICORE  =        2    local potential                                         
   LCOR   =        T    correct aug charges                                     
   LPAW   =        T    paw PP                                                  
   EAUG   =  322.069                                                            
   DEXC   =    -.007                                                            
   RMAX   =    2.944    core radius for proj-oper                               
   RAUG   =    1.300    factor for augmentation sphere                          
   RDEP   =    1.993    radius for radial grids                                 
   QCUT   =   -4.246; QGAM   =    8.493    optimization parameters              
                                                                                
   Description                                                                  
     l     E      TYP  RCUT    TYP  RCUT                                        
     0   .000     23  1.900                                                     
     0   .000     23  1.900                                                     
     1   .000     23  1.900                                                     
     1   .000     23  1.900                                                     
     2   .000      7  1.900                                                     
  local pseudopotential read in
  partial core-charges read in
  atomic valenz-charges read in
  non local Contribution for L=           0  read in
    real space projection operators read in
  non local Contribution for L=           0  read in
    real space projection operators read in
  non local Contribution for L=           1  read in
    real space projection operators read in
  non local Contribution for L=           1  read in
    real space projection operators read in
    PAW grid and wavefunctions read in
 
   number of l-projection  operators is LMAX  =           4
   number of lm-projection operators is LMMAX =           8
 
 Optimization of the real space projectors (new method)

 maximal supplied QI-value         = 13.42
 optimisation between [QCUT,QGAM] = [ 11.40, 22.81] = [ 36.42,145.68] Ry 
 Optimized for a Real-space Cutoff    1.56 Angstroem

   l    n(q)    QCUT    max X(q) W(low)/X(q) W(high)/X(q)  e(spline) 
   0     11    11.404     7.198    0.14E-04    0.26E-04    0.99E-07
   0     11    11.404    15.603    0.29E-04    0.72E-04    0.44E-06
   1     10    11.404     3.746    0.20E-04    0.24E-04    0.43E-07
   1     10    11.404     4.362    0.22E-03    0.97E-04    0.22E-06
   2     10    11.404     5.782    0.83E-04    0.62E-05    0.27E-06
   2     10    11.404    65.505    0.42E-03    0.31E-04    0.12E-05
 Optimization of the real space projectors (new method)

 maximal supplied QI-value         = 19.84
 optimisation between [QCUT,QGAM] = [ 11.31, 22.82] = [ 35.82,145.81] Ry 
 Optimized for a Real-space Cutoff    1.16 Angstroem

   l    n(q)    QCUT    max X(q) W(low)/X(q) W(high)/X(q)  e(spline) 
   0      8    11.310     8.708    0.14E-04    0.11E-04    0.43E-08
   0      8    11.310   106.241    0.27E-03    0.30E-03    0.38E-07
   1      7    11.310     5.901    0.82E-05    0.48E-04    0.19E-07
   1      7    11.310    73.241    0.27E-03    0.27E-03    0.74E-07

 ----------------------------------------------------------------------------- 
|                                                                             |
|  ADVICE TO THIS USER RUNNING 'VASP/VAMP'   (HEAR YOUR MASTER'S VOICE ...):  |
|                                                                             |
|      You enforced a specific xc-type in the INCAR file,                     |
|      a different type was found on the POTCAR file                          |
|          I HOPE YOU KNOW, WHAT YOU ARE  DOING                               |
|                                                                             |
 ----------------------------------------------------------------------------- 

 PAW_PBE Ba_sv 06Sep2000                :
 energy of atom  1       EATOM= -700.2255
 kinetic energy error for atom=    0.0005 (will be added to EATOM!!)
 PAW_PBE Si 05Jan2001                   :
 energy of atom  2       EATOM= -103.0669
 kinetic energy error for atom=    0.0006 (will be added to EATOM!!)
 
 
 POSCAR: ba8 si16                                
  positions in direct lattice
  velocities in cartesian coordinates
 exchange correlation table for  LEXCH =       43
   RHO(1)=    0.500       N(1)  =     2000
   RHO(2)=  100.500       N(2)  =     4000
 


--------------------------------------------------------------------------------------------------------


 ion  position               nearest neighbor table
   1  0.006  0.250  0.704-  21 3.39  16 3.44  11 3.44  17 3.65  17 3.65   5 4.38   5 4.38   7 4.61

   2  0.386  0.750  0.296-  22 3.39  12 3.44  15 3.44  18 3.65  18 3.65   6 4.38   6 4.38   8 4.61

   3  0.182  0.750  0.185-  20 3.35   9 3.44  14 3.44  12 3.63  15 3.63  19 3.65  19 3.65  22 3.67
                            23 3.76   5 4.29   7 4.38   7 4.38
   4  0.210  0.250  0.815-  19 3.35  13 3.44  10 3.44  16 3.63  11 3.63  20 3.65  20 3.65  21 3.67
                            24 3.76   6 4.29   8 4.38   8 4.38
   5  0.060  0.750  0.915-   9 3.44  14 3.44  21 3.45  21 3.45  11 3.46  16 3.46  17 3.72   3 4.29
                             1 4.38   1 4.38
   6  0.332  0.250  0.085-  13 3.44  10 3.44  22 3.45  22 3.45  15 3.46  12 3.46  18 3.72   4 4.29
                             2 4.38   2 4.38
   7  0.128  0.250  0.397-  14 3.45   9 3.45  23 3.53  23 3.53  19 3.73  16 3.75  11 3.75  15 3.84
                            12 3.84  24 3.90   3 4.38   3 4.38   1 4.61
   8  0.264  0.750  0.603-  10 3.45  13 3.45  24 3.53  24 3.53  20 3.73  12 3.75  15 3.75  11 3.84
                            16 3.84  23 3.90   4 4.38   4 4.38   2 4.61
   9  0.073  0.072  0.143-  14 2.41  21 2.44  19 2.45   5 3.44   3 3.44   7 3.45
  10  0.319  0.928  0.857-  13 2.41  22 2.44  20 2.45   6 3.44   4 3.44   8 3.45
  11  0.115  0.930  0.660-  16 2.44  17 2.45  23 2.45   1 3.44   5 3.46   4 3.63   7 3.75   8 3.84

  12  0.277  0.070  0.340-  15 2.44  18 2.45  24 2.45   2 3.44   6 3.46   3 3.63   8 3.75   7 3.84

  13  0.319  0.572  0.857-  10 2.41  22 2.44  20 2.45   6 3.44   4 3.44   8 3.45
  14  0.073  0.428  0.143-   9 2.41  21 2.44  19 2.45   5 3.44   3 3.44   7 3.45
  15  0.277  0.430  0.340-  12 2.44  18 2.45  24 2.45   2 3.44   6 3.46   3 3.63   8 3.75   7 3.84

  16  0.115  0.570  0.660-  11 2.44  17 2.45  23 2.45   1 3.44   5 3.46   4 3.63   7 3.75   8 3.84

  17  0.031  0.750  0.600-  23 2.44  11 2.45  16 2.45   1 3.65   1 3.65   5 3.72
  18  0.361  0.250  0.400-  24 2.44  15 2.45  12 2.45   2 3.65   2 3.65   6 3.72
  19  0.157  0.250  0.081-  21 2.43  14 2.45   9 2.45   4 3.35   3 3.65   3 3.65   7 3.73
  20  0.235  0.750  0.919-  22 2.43  10 2.45  13 2.45   3 3.35   4 3.65   4 3.65   8 3.73
  21  0.074  0.250  0.960-  19 2.43  14 2.44   9 2.44   1 3.39   5 3.45   5 3.45   4 3.67
  22  0.318  0.750  0.040-  20 2.43  10 2.44  13 2.44   2 3.39   6 3.45   6 3.45   3 3.67
  23  0.113  0.750  0.477-  17 2.44  11 2.45  16 2.45   7 3.53   7 3.53   3 3.76   8 3.90
  24  0.278  0.250  0.523-  18 2.44  15 2.45  12 2.45   8 3.53   8 3.53   4 3.76   7 3.90
 
  LATTYP: Found a simple orthorhombic cell.
 ALAT       =     6.7778496742
 B/A-ratio  =     1.7117734747
 C/A-ratio  =     3.5423429602
  
  Lattice vectors:
  
 A1 = (   0.0000000000,   6.7778496742,   0.0000000000)
 A2 = (   0.0000000000,   0.0000000000, -11.6021432877)
 A3 = ( -24.0094680786,   0.0000000000,   0.0000000000)


Analysis of symmetry for initial positions (statically):
=====================================================================
 Subroutine PRICEL returns:
 Original cell was already a primitive cell.
 

 Routine SETGRP: Setting up the symmetry group for a 
 simple orthorhombic supercell.


 Subroutine GETGRP returns: Found  4 space group operations
 (whereof  1 operations were pure point group operations)
 out of a pool of  8 trial point group operations.


The static configuration has the point symmetry C_1 .
 The point group associated with its full space group is C_2h.


Analysis of symmetry for dynamics (positions and initial velocities):
=====================================================================
 Subroutine PRICEL returns:
 Original cell was already a primitive cell.
 

 Routine SETGRP: Setting up the symmetry group for a 
 simple orthorhombic supercell.


 Subroutine GETGRP returns: Found  4 space group operations
 (whereof  1 operations were pure point group operations)
 out of a pool of  8 trial point group operations.


The dynamic configuration has the point symmetry C_1 .
 The point group associated with its full space group is C_2h.


Analysis of constrained symmetry for selective dynamics:
=====================================================================
 Subroutine PRICEL returns:
 Original cell was already a primitive cell.
 

 Routine SETGRP: Setting up the symmetry group for a 
 simple orthorhombic supercell.


 Subroutine GETGRP returns: Found  4 space group operations
 (whereof  1 operations were pure point group operations)
 out of a pool of  8 trial point group operations.


The constrained configuration has the point symmetry C_1 .
 The point group associated with its full space group is C_2h.


 Subroutine INISYM returns: Found  4 space group operations
 (whereof  1 operations are pure point group operations),
 and found     1 'primitive' translations

 
 
 KPOINTS: k-density: 8.0                          

Automatic generation of k-mesh.
Space group operators:
 irot       det(A)        alpha          n_x          n_y          n_z        tau_x        tau_y        tau_z
    1     1.000000     0.000000     1.000000     0.000000     0.000000     0.000000     0.000000     0.000000
    2    -1.000000     0.000000     1.000000     0.000000     0.000000    -0.608093     0.000000     0.000000
    3     1.000000   180.000000     0.000000     1.000000     0.000000    -0.608093     0.500000     0.000000
    4    -1.000000   180.000000     0.000000     1.000000     0.000000     0.000000     0.500000     0.000000
 
 Subroutine IBZKPT returns following result:
 ===========================================
 
 Found     15 irreducible k-points:
 
 Following reciprocal coordinates:
            Coordinates               Weight
  0.000000  0.000000  0.000000      1.000000
  0.000000  0.125000  0.000000      2.000000
  0.000000  0.250000  0.000000      2.000000
  0.000000  0.375000  0.000000      2.000000
  0.000000  0.500000  0.000000      1.000000
  0.000000  0.000000  0.200000      2.000000
  0.000000  0.125000  0.200000      4.000000
  0.000000  0.250000  0.200000      4.000000
  0.000000  0.375000  0.200000      4.000000
  0.000000  0.500000  0.200000      2.000000
  0.000000  0.000000  0.400000      2.000000
  0.000000  0.125000  0.400000      4.000000
  0.000000  0.250000  0.400000      4.000000
  0.000000  0.375000  0.400000      4.000000
  0.000000  0.500000  0.400000      2.000000
 
 Following cartesian coordinates:
            Coordinates               Weight
  0.000000  0.000000  0.000000      1.000000
  0.000000  0.018442  0.000000      2.000000
  0.000000  0.036885  0.000000      2.000000
  0.000000  0.055327  0.000000      2.000000
  0.000000  0.073770  0.000000      1.000000
  0.000000  0.000000  0.017238      2.000000
  0.000000  0.018442  0.017238      4.000000
  0.000000  0.036885  0.017238      4.000000
  0.000000  0.055327  0.017238      4.000000
  0.000000  0.073770  0.017238      2.000000
  0.000000  0.000000  0.034476      2.000000
  0.000000  0.018442  0.034476      4.000000
  0.000000  0.036885  0.034476      4.000000
  0.000000  0.055327  0.034476      4.000000
  0.000000  0.073770  0.034476      2.000000
 
 TETIRR: Found    108 inequivalent tetrahedra from      240


--------------------------------------------------------------------------------------------------------




 Dimension of arrays:
   k-points           NKPTS =     15   k-points in BZ     NKDIM =     15   number of bands    NBANDS=     88
   number of dos      NEDOS =    301   number of ions     NIONS =     24
   non local maximal  LDIM  =      6   non local SUM 2l+1 LMDIM =     18
   total plane-waves  NPLWV = 358400
   max r-space proj   IRMAX =   3093   max aug-charges    IRDMAX=  12081
   dimension x,y,z NGX =   140 NGY =   40 NGZ =   64
   dimension x,y,z NGXF=   280 NGYF=   80 NGZF=  128
   support grid    NGXF=   280 NGYF=   80 NGZF=  128
   ions per type =               8  16
   NGX,Y,Z   is equivalent  to a cutoff of   9.69,  9.81,  9.17 a.u.
   NGXF,Y,Z  is equivalent  to a cutoff of  19.39, 19.62, 18.34 a.u.

 SYSTEM =  unknown system                          
 POSCAR =  ba8 si16                                

 Startparameter for this run:
   NWRITE =      2    write-flag & timer
   PREC   = normal    normal or accurate (medium, high low for compatibility)
   ISTART =      0    job   : 0-new  1-cont  2-samecut
   ICHARG =      2    charge: 1-file 2-atom 10-const
   ISPIN  =      1    spin polarized calculation?
   LNONCOLLINEAR =      F non collinear calculations
   LSORBIT =      F    spin-orbit coupling
   INIWAV =      1    electr: 0-lowe 1-rand  2-diag
   LASPH  =      T    aspherical Exc in radial PAW
   METAGGA=      F    non-selfconsistent MetaGGA calc.

 Electronic Relaxation 1
   ENCUT  =  500.0 eV  36.75 Ry    6.06 a.u.  43.77 12.36 21.15*2*pi/ulx,y,z
   ENINI  =  500.0     initial cutoff
   ENAUG  =  351.2 eV  augmentation charge cutoff
   NELM   =    100;   NELMIN=  2; NELMDL= -5     # of ELM steps 
   EDIFF  = 0.1E-05   stopping-criterion for ELM
   LREAL  =      T    real-space projection
   NLSPLINE    = F    spline interpolate recip. space projectors
   LCOMPAT=      F    compatible to vasp.4.4
   GGA_COMPAT  = T    GGA compatible to vasp.4.4-vasp.4.6
   LMAXPAW     = -100 max onsite density
   LMAXMIX     =    2 max onsite mixed and CHGCAR
   VOSKOWN=      0    Vosko Wilk Nusair interpolation
   ROPT   =   -0.00050  -0.00050
 Ionic relaxation
   EDIFFG = -.1E-02   stopping-criterion for IOM
   NSW    =      0    number of steps for IOM
   NBLOCK =      1;   KBLOCK =      1    inner block; outer block 
   IBRION =     -1    ionic relax: 0-MD 1-quasi-New 2-CG
   NFREE  =      0    steps in history (QN), initial steepest desc. (CG)
   ISIF   =      2    stress and relaxation
   IWAVPR =     10    prediction:  0-non 1-charg 2-wave 3-comb
   ISYM   =      2    0-nonsym 1-usesym 2-fastsym
   LCORR  =      T    Harris-Foulkes like correction to forces

   POTIM  = 0.3000    time-step for ionic-motion
   TEIN   =    0.0    initial temperature
   TEBEG  =    0.0;   TEEND  =   0.0 temperature during run
   SMASS  =  -3.00    Nose mass-parameter (am)
   estimated Nose-frequenzy (Omega)   =  0.10E-29 period in steps =****** mass=  -0.132E-25a.u.
   SCALEE = 1.0000    scale energy and forces
   NPACO  =    256;   APACO  = 16.0  distance and # of slots for P.C.
   PSTRESS=    0.0 pullay stress

  Mass of Ions in am
   POMASS = 137.33 28.09
  Ionic Valenz
   ZVAL   =  10.00  4.00
  Atomic Wigner-Seitz radii
   RWIGS  =  -1.00 -1.00
  virtual crystal weights 
   VCA    =   1.00  1.00
   NELECT =     144.0000    total number of electrons
   NUPDOWN=      -1.0000    fix difference up-down

 DOS related values:
   EMIN   =  10.00;   EMAX   =-10.00  energy-range for DOS
   EFERMI =   0.00
   ISMEAR =    -5;   SIGMA  =   0.01  broadening in eV -4-tet -1-fermi 0-gaus

 Electronic relaxation 2 (details)
   IALGO  =     38    algorithm
   LDIAG  =      T    sub-space diagonalisation (order eigenvalues)
   LSUBROT=      F    optimize rotation matrix (better conditioning)
   TURBO    =      0    0=normal 1=particle mesh
   IRESTART =      0    0=no restart 2=restart with 2 vectors
   NREBOOT  =      0    no. of reboots
   NMIN     =      0    reboot dimension
   EREF     =   0.00    reference energy to select bands
   IMIX   =      4    mixing-type and parameters
     AMIX     =   0.40;   BMIX     =  1.00
     AMIX_MAG =   1.60;   BMIX_MAG =  1.00
     AMIN     =   0.10
     WC   =   100.;   INIMIX=   1;  MIXPRE=   1;  MAXMIX= -45

 Intra band minimization:
   WEIMIN = 0.0000     energy-eigenvalue tresh-hold
   EBREAK =  0.28E-08  absolut break condition
   DEPER  =   0.30     relativ break condition  

   TIME   =   0.40     timestep for ELM

  volume/ion in A,a.u.               =      78.67       530.88
  Fermi-wavevector in a.u.,A,eV,Ry     =   0.694264  1.311969  6.558046  0.482003
  Thomas-Fermi vector in A             =   1.776709
 
 Write flags
   LWAVE        =      T    write WAVECAR
   LDOWNSAMPLE  =      F    k-point downsampling of WAVECAR
   LCHARG       =      T    write CHGCAR
   LVTOT        =      F    write LOCPOT, total local potential
   LVHAR        =      F    write LOCPOT, Hartree potential only
   LELF         =      F    write electronic localiz. function (ELF)
   LORBIT       =      0    0 simple, 1 ext, 2 COOP (PROOUT), +10 PAW based schemes


 Dipole corrections
   LMONO  =      F    monopole corrections only (constant potential shift)
   LDIPOL =      F    correct potential (dipole corrections)
   IDIPOL =      0    1-x, 2-y, 3-z, 4-all directions 
   EPSILON=  1.0000000 bulk dielectric constant

 Exchange correlation treatment:
   GGA     =    MK    GGA type
   LEXCH   =    43    internal setting for exchange type
   VOSKOWN=      0    Vosko Wilk Nusair interpolation
   LHFCALC =     F    Hartree Fock is set to
   LHFONE  =     F    Hartree Fock one center treatment
   AEXX    =    0.0000 exact exchange contribution

 vdW DFT:
   LUSE_VDW   =     T    switch on vdW DFT
   Zab_VDW    =******    correlation parameter
   PARAM1     =0.1234
   PARAM2     =0.7114
   PARAM3     =0.0000
   -- rVV10 --
   BPARAM     = 6.3000
   CPARAM     = 0.0093

 Linear response parameters
   LEPSILON=     F    determine dielectric tensor
   LRPA    =     F    only Hartree local field effects (RPA)
   LNABLA  =     F    use nabla operator in PAW spheres
   LVEL    =     F    velocity operator in full k-point grid
   LINTERFAST=   F  fast interpolation
   KINTER  =     0    interpolate to denser k-point grid
   CSHIFT  =0.1000    complex shift for real part using Kramers Kronig
   OMEGAMAX=  -1.0    maximum frequency
   DEG_THRESHOLD= 0.2000000E-02 threshold for treating states as degnerate
   RTIME   =   -0.100 relaxation time in fs
  (WPLASMAI=    0.000 imaginary part of plasma frequency in eV, 0.658/RTIME)
   DFIELD  = 0.0000000 0.0000000 0.0000000 field for delta impulse in time
 
 Orbital magnetization related:
   ORBITALMAG=     F  switch on orbital magnetization
   LCHIMAG   =     F  perturbation theory with respect to B field
   DQ        =  0.001000  dq finite difference perturbation B field
   LLRAUG    =     F  two centre corrections for induced B field



--------------------------------------------------------------------------------------------------------


 Static calculation
 charge density and potential will be updated during run
 non-spin polarized calculation
 Variant of blocked Davidson
 Davidson routine will perform the subspace rotation
 perform sub-space diagonalisation
    after iterative eigenvector-optimisation
 modified Broyden-mixing scheme, WC =      100.0
 initial mixing is a Kerker type mixing with AMIX =  0.4000 and BMIX =      1.0000
 Hartree-type preconditioning will be used
 using additional bands           16
 real space projection scheme for non local part
 use partial core corrections
 calculate Harris-corrections to forces 
   (improved forces if not selfconsistent)
 use gradient corrections 
 use of overlap-Matrix (Vanderbilt PP)
 Fermi weights with tetrahedron method with Bloechl corrections


--------------------------------------------------------------------------------------------------------


  energy-cutoff  :      500.00
  volume of cell :     1888.05
      direct lattice vectors                 reciprocal lattice vectors
    24.009468079  0.000000000  0.000000000     0.041650236  0.000000000  0.000000000
     0.000000000  6.777849674  0.000000000     0.000000000  0.147539419  0.000000000
     0.000000000  0.000000000 11.602143288     0.000000000  0.000000000  0.086190971

  length of vectors
    24.009468079  6.777849674 11.602143288     0.041650236  0.147539419  0.086190971


 
 k-points in units of 2pi/SCALE and weight: k-density: 8.0                          
   0.00000000  0.00000000  0.00000000       0.025
   0.00000000  0.01844243  0.00000000       0.050
   0.00000000  0.03688485  0.00000000       0.050
   0.00000000  0.05532728  0.00000000       0.050
   0.00000000  0.07376971  0.00000000       0.025
   0.00000000  0.00000000  0.01723819       0.050
   0.00000000  0.01844243  0.01723819       0.100
   0.00000000  0.03688485  0.01723819       0.100
   0.00000000  0.05532728  0.01723819       0.100
   0.00000000  0.07376971  0.01723819       0.050
   0.00000000  0.00000000  0.03447639       0.050
   0.00000000  0.01844243  0.03447639       0.100
   0.00000000  0.03688485  0.03447639       0.100
   0.00000000  0.05532728  0.03447639       0.100
   0.00000000  0.07376971  0.03447639       0.050
 
 k-points in reciprocal lattice and weights: k-density: 8.0                          
   0.00000000  0.00000000  0.00000000       0.025
   0.00000000  0.12500000  0.00000000       0.050
   0.00000000  0.25000000  0.00000000       0.050
   0.00000000  0.37500000  0.00000000       0.050
   0.00000000  0.50000000  0.00000000       0.025
   0.00000000  0.00000000  0.20000000       0.050
   0.00000000  0.12500000  0.20000000       0.100
   0.00000000  0.25000000  0.20000000       0.100
   0.00000000  0.37500000  0.20000000       0.100
   0.00000000  0.50000000  0.20000000       0.050
   0.00000000  0.00000000  0.40000000       0.050
   0.00000000  0.12500000  0.40000000       0.100
   0.00000000  0.25000000  0.40000000       0.100
   0.00000000  0.37500000  0.40000000       0.100
   0.00000000  0.50000000  0.40000000       0.050
 
 position of ions in fractional coordinates (direct lattice) 
   0.00569361  0.25000000  0.70407665
   0.38621295  0.75000002  0.29592335
   0.18192962  0.75000002  0.18545566
   0.20997694  0.25000000  0.81454432
   0.05978014  0.75000002  0.91511142
   0.33212642  0.25000000  0.08488856
   0.12784309  0.25000000  0.39711244
   0.26406347  0.75000002  0.60288761
   0.07289913  0.07208035  0.14270297
   0.31900743  0.92791964  0.85729701
   0.11472410  0.92964970  0.65973844
   0.27718246  0.07035029  0.34026156
   0.31900743  0.57208036  0.85729701
   0.07289913  0.42791964  0.14270297
   0.27718246  0.42964970  0.34026156
   0.11472410  0.57035030  0.65973844
   0.03110981  0.75000002  0.60008184
   0.36079675  0.25000000  0.39991816
   0.15651343  0.25000000  0.08085944
   0.23539314  0.75000002  0.91914054
   0.07418398  0.25000000  0.95964533
   0.31772258  0.75000002  0.04035469
   0.11343925  0.75000002  0.47668506
   0.27846731  0.25000000  0.52331486
 
 position of ions in cartesian coordinates  (Angst):
   0.13670066  1.69446242  8.16879815
   9.27276745  5.08338737  3.43334514
   4.36803341  5.08338737  2.15168315
   5.04143467  1.69446242  9.45045990
   1.43528938  5.08338737 10.61725386
   7.97417870  1.69446242  0.98488919
   3.06944466  1.69446242  4.60735538
   6.34002342  5.08338737  6.99478839
   1.75026941  0.48854975  1.65566031
   7.65919867  6.28929986  9.94648274
   2.75446463  6.30102593  7.65437987
   6.65500345  0.47682369  3.94776342
   7.65919867  3.87747465  9.94648274
   1.75026941  2.90037502  1.65566031
   6.65500345  2.91210109  3.94776342
   2.75446463  3.86574859  7.65437987
   0.74692994  5.08338737  6.96223554
   8.66253796  1.69446242  4.63990774
   3.75780416  1.69446242  0.93814275
   5.65166416  5.08338737 10.66400030
   1.78111780  1.69446242 11.13394260
   7.62835016  5.08338737  0.46820086
   2.72361612  5.08338737  5.53056838
   6.68585196  1.69446242  6.07157395
 


--------------------------------------------------------------------------------------------------------


 k-point  1 :   0.0000 0.0000 0.0000  plane waves:   47989
 k-point  2 :   0.0000 0.1250 0.0000  plane waves:   47929
 k-point  3 :   0.0000 0.2500 0.0000  plane waves:   47901
 k-point  4 :   0.0000 0.3750 0.0000  plane waves:   47910
 k-point  5 :   0.0000 0.5000 0.0000  plane waves:   47868
 k-point  6 :   0.0000 0.0000 0.2000  plane waves:   48006
 k-point  7 :   0.0000 0.1250 0.2000  plane waves:   47967
 k-point  8 :   0.0000 0.2500 0.2000  plane waves:   47907
 k-point  9 :   0.0000 0.3750 0.2000  plane waves:   47884
 k-point 10 :   0.0000 0.5000 0.2000  plane waves:   47884
 k-point 11 :   0.0000 0.0000 0.4000  plane waves:   47922
 k-point 12 :   0.0000 0.1250 0.4000  plane waves:   47954
 k-point 13 :   0.0000 0.2500 0.4000  plane waves:   47967
 k-point 14 :   0.0000 0.3750 0.4000  plane waves:   47928
 k-point 15 :   0.0000 0.5000 0.4000  plane waves:   47890

 maximum and minimum number of plane-waves per node :     12077    11868

 maximum number of plane-waves:     48006
 maximum index in each direction: 
   IXMAX=   43   IYMAX=   12   IZMAX=   21
   IXMIN=  -43   IYMIN=  -12   IZMIN=  -21


 real space projection operators:
  total allocation   :       4538.69 KBytes
  max/ min on nodes  :       1141.17       1130.22


 parallel 3D FFT for wavefunctions:
    minimum data exchange during FFTs selected (reduces bandwidth)
 parallel 3D FFT for charge:
    minimum data exchange during FFTs selected (reduces bandwidth)


 total amount of memory used by VASP MPI-rank0    79353. kBytes
=======================================================================

   base      :      30000. kBytes
   nonlr-proj:       2647. kBytes
   fftplans  :       5898. kBytes
   grid      :       8824. kBytes
   one-center:         93. kBytes
   wavefun   :      31891. kBytes
 
     INWAV:  cpu time    0.0000: real time    0.0000
 Broyden mixing: mesh for mixing (old mesh)
   NGX = 87   NGY = 25   NGZ = 43
  (NGX  =280   NGY  = 80   NGZ  =128)
  gives a total of  93525 points

 initial charge density was supplied:
 charge density of overlapping atoms calculated
 number of electron     144.0000000 magnetization 
 keeping initial charge density in first step


--------------------------------------------------------------------------------------------------------


 Maximum index for non-local projection operator          743
 Maximum index for augmentation-charges          603 (set IRDMAX)


--------------------------------------------------------------------------------------------------------


 First call to EWALD:  gamma=   0.143
 Maximum number of real-space cells 2x 5x 3
 Maximum number of reciprocal cells 5x 2x 3

    FEWALD:  cpu time    0.0018: real time    0.0018


--------------------------------------- Iteration      1(   1)  ---------------------------------------


    POTLOK:  cpu time13751.4059: real time13783.8823
    SETDIJ:  cpu time    0.0036: real time    0.0228
     EDDAV:  cpu time    2.2982: real time    2.6013
 BZINTS: Fermi energy:  6.792597;144.000000 electrons
         Band energy:-475.579853;  BLOECHL correction: -0.034679
       DOS:  cpu time    0.0118: real time    0.0118
    --------------------------------------------
      LOOP:  cpu time13753.7195: real time13786.5182

 eigenvalue-minimisations  :  2768
 total energy-change (2. order) : 0.1189728E+04  (-0.4766061E+04)
 number of electron     144.0000000 magnetization 
 augmentation part      144.0000000 magnetization 

 Free energy of the ion-electron system (eV)
  ---------------------------------------------------
  alpha Z        PSCENC =       170.45750602
  Ewald energy   TEWEN  =     11310.28508206
  -Hartree energ DENC   =    -17431.65607533
  -exchange      EXHF   =         0.00000000
  -V(xc)+E(xc)   XCENC  =        36.84723047
  PAW double counting   =      3696.57165193    -3386.34934349
  entropy T*S    EENTRO =         0.00000000
  eigenvalues    EBANDS =      -475.57985311
  atomic energy  EATOM  =      7269.15145414
  Solvation  Ediel_sol  =         0.00000000
  ---------------------------------------------------
  free energy    TOTEN  =      1189.72765270 eV

  energy without entropy =     1189.72765270  energy(sigma->0) =     1189.72765270


--------------------------------------------------------------------------------------------------------




--------------------------------------- Iteration      1(   2)  ---------------------------------------


     EDDAV:  cpu time    2.9598: real time    2.9754
 BZINTS: Fermi energy: -1.957786;144.000000 electrons
         Band energy:***********;  BLOECHL correction:  0.000000
       DOS:  cpu time    0.0024: real time    0.0024
    --------------------------------------------
      LOOP:  cpu time    2.9622: real time    2.9778

 eigenvalue-minimisations  :  3864
 total energy-change (2. order) :-0.1114737E+04  (-0.1086781E+04)
 number of electron     144.0000000 magnetization 
 augmentation part      144.0000000 magnetization 

 Free energy of the ion-electron system (eV)
  ---------------------------------------------------
  alpha Z        PSCENC =       170.45750602
  Ewald energy   TEWEN  =     11310.28508206
  -Hartree energ DENC   =    -17431.65607533
  -exchange      EXHF   =         0.00000000
  -V(xc)+E(xc)   XCENC  =        36.84723047
  PAW double counting   =      3696.57165193    -3386.34934349
  entropy T*S    EENTRO =         0.00000000
  eigenvalues    EBANDS =     -1590.31704504
  atomic energy  EATOM  =      7269.15145414
  Solvation  Ediel_sol  =         0.00000000
  ---------------------------------------------------
  free energy    TOTEN  =        74.99046076 eV

  energy without entropy =       74.99046076  energy(sigma->0) =       74.99046076


--------------------------------------------------------------------------------------------------------




--------------------------------------- Iteration      1(   3)  ---------------------------------------


     EDDAV:  cpu time    2.5042: real time    2.5199
 BZINTS: Fermi energy: -3.307895;144.000000 electrons
         Band energy:***********;  BLOECHL correction:  0.000000
       DOS:  cpu time    0.0021: real time    0.0021
    --------------------------------------------
      LOOP:  cpu time    2.5063: real time    2.5220

 eigenvalue-minimisations  :  3224
 total energy-change (2. order) :-0.1680657E+03  (-0.1673883E+03)
 number of electron     144.0000000 magnetization 
 augmentation part      144.0000000 magnetization 

 Free energy of the ion-electron system (eV)
  ---------------------------------------------------
  alpha Z        PSCENC =       170.45750602
  Ewald energy   TEWEN  =     11310.28508206
  -Hartree energ DENC   =    -17431.65607533
  -exchange      EXHF   =         0.00000000
  -V(xc)+E(xc)   XCENC  =        36.84723047
  PAW double counting   =      3696.57165193    -3386.34934349
  entropy T*S    EENTRO =         0.00000000
  eigenvalues    EBANDS =     -1758.38273595
  atomic energy  EATOM  =      7269.15145414
  Solvation  Ediel_sol  =         0.00000000
  ---------------------------------------------------
  free energy    TOTEN  =       -93.07523015 eV

  energy without entropy =      -93.07523015  energy(sigma->0) =      -93.07523015


--------------------------------------------------------------------------------------------------------




--------------------------------------- Iteration      1(   4)  ---------------------------------------


     EDDAV:  cpu time    2.9118: real time    2.9294
 BZINTS: Fermi energy: -3.396304;144.000000 electrons
         Band energy:***********;  BLOECHL correction:  0.000000
       DOS:  cpu time    0.0019: real time    0.0019
    --------------------------------------------
      LOOP:  cpu time    2.9137: real time    2.9312

 eigenvalue-minimisations  :  3744
 total energy-change (2. order) :-0.5991535E+01  (-0.5974643E+01)
 number of electron     144.0000000 magnetization 
 augmentation part      144.0000000 magnetization 

 Free energy of the ion-electron system (eV)
  ---------------------------------------------------
  alpha Z        PSCENC =       170.45750602
  Ewald energy   TEWEN  =     11310.28508206
  -Hartree energ DENC   =    -17431.65607533
  -exchange      EXHF   =         0.00000000
  -V(xc)+E(xc)   XCENC  =        36.84723047
  PAW double counting   =      3696.57165193    -3386.34934349
  entropy T*S    EENTRO =         0.00000000
  eigenvalues    EBANDS =     -1764.37427073
  atomic energy  EATOM  =      7269.15145414
  Solvation  Ediel_sol  =         0.00000000
  ---------------------------------------------------
  free energy    TOTEN  =       -99.06676493 eV

  energy without entropy =      -99.06676493  energy(sigma->0) =      -99.06676493


--------------------------------------------------------------------------------------------------------




--------------------------------------- Iteration      1(   5)  ---------------------------------------


     EDDAV:  cpu time    3.1250: real time    3.1438
 BZINTS: Fermi energy: -3.358467;144.000000 electrons
         Band energy:***********;  BLOECHL correction:  0.000000
       DOS:  cpu time    0.0020: real time    0.0020
    CHARGE:  cpu time    0.1291: real time    0.1826
    MIXING:  cpu time    0.0060: real time    0.0064
    --------------------------------------------
      LOOP:  cpu time    3.2621: real time    3.3348

 eigenvalue-minimisations  :  4184
 total energy-change (2. order) :-0.2738929E+00  (-0.2738091E+00)
 number of electron     143.9999983 magnetization 
 augmentation part      -17.6463039 magnetization 

 Broyden mixing:
  rms(total) = 0.91117E+00    rms(broyden)= 0.91117E+00
  rms(prec ) = 0.11813E+01
  weight for this iteration     100.00

 Free energy of the ion-electron system (eV)
  ---------------------------------------------------
  alpha Z        PSCENC =       170.45750602
  Ewald energy   TEWEN  =     11310.28508206
  -Hartree energ DENC   =    -17431.65607533
  -exchange      EXHF   =         0.00000000
  -V(xc)+E(xc)   XCENC  =        36.84723047
  PAW double counting   =      3696.57165193    -3386.34934349
  entropy T*S    EENTRO =         0.00000000
  eigenvalues    EBANDS =     -1764.64816363
  atomic energy  EATOM  =      7269.15145414
  Solvation  Ediel_sol  =         0.00000000
  ---------------------------------------------------
  free energy    TOTEN  =       -99.34065783 eV

  energy without entropy =      -99.34065783  energy(sigma->0) =      -99.34065783


--------------------------------------------------------------------------------------------------------




--------------------------------------- Iteration      1(   6)  ---------------------------------------


    POTLOK:  cpu time    2.3462: real time    2.3640
    SETDIJ:  cpu time    0.1638: real time    0.1641
     EDDAV:  cpu time    2.4634: real time    2.4692
 BZINTS: Fermi energy: -2.286412;144.000000 electrons
         Band energy:***********;  BLOECHL correction:  0.000000
       DOS:  cpu time    0.0022: real time    0.0022
    CHARGE:  cpu time    0.1385: real time    0.1388
    MIXING:  cpu time    0.0072: real time    0.0072
    --------------------------------------------
      LOOP:  cpu time    5.1212: real time    5.1455

 eigenvalue-minimisations  :  3016
 total energy-change (2. order) : 0.8068843E+01  (-0.2029078E+01)
 number of electron     143.9999982 magnetization 
 augmentation part      -17.5265018 magnetization 

 Broyden mixing:
  rms(total) = 0.46366E+00    rms(broyden)= 0.46366E+00
  rms(prec ) = 0.57998E+00
  weight for this iteration     100.00

 eigenvalues of (default mixing * dielectric matrix)
  average eigenvalue GAMMA=   1.5444
  1.5444

 Free energy of the ion-electron system (eV)
  ---------------------------------------------------
  alpha Z        PSCENC =       170.45750602
  Ewald energy   TEWEN  =     11310.28508206
  -Hartree energ DENC   =    -17522.48655713
  -exchange      EXHF   =         0.00000000
  -V(xc)+E(xc)   XCENC  =        39.56359497
  PAW double counting   =      3728.44938405    -3425.28312038
  entropy T*S    EENTRO =         0.00000000
  eigenvalues    EBANDS =     -1661.40915859
  atomic energy  EATOM  =      7269.15145414
  Solvation  Ediel_sol  =         0.00000000
  ---------------------------------------------------
  free energy    TOTEN  =       -91.27181487 eV

  energy without entropy =      -91.27181487  energy(sigma->0) =      -91.27181487


--------------------------------------------------------------------------------------------------------




--------------------------------------- Iteration      1(   7)  ---------------------------------------


    POTLOK:  cpu time    2.5002: real time    2.5170
    SETDIJ:  cpu time    0.0165: real time    0.0165
     EDDAV:  cpu time    2.7440: real time    2.7505
 BZINTS: Fermi energy: -1.419185;144.000000 electrons
         Band energy:***********;  BLOECHL correction:  0.000000
       DOS:  cpu time    0.0025: real time    0.0025
    CHARGE:  cpu time    0.1308: real time    0.1311
    MIXING:  cpu time    0.0048: real time    0.0051
    --------------------------------------------
      LOOP:  cpu time    5.3988: real time    5.4227

 eigenvalue-minimisations  :  3480
 total energy-change (2. order) : 0.1261571E+01  (-0.9807268E+00)
 number of electron     143.9999982 magnetization 
 augmentation part      -17.5948451 magnetization 

 Broyden mixing:
  rms(total) = 0.24507E+00    rms(broyden)= 0.24507E+00
  rms(prec ) = 0.29356E+00
  weight for this iteration     100.00

 eigenvalues of (default mixing * dielectric matrix)
  average eigenvalue GAMMA=   1.8608
  1.8608  1.8608

 Free energy of the ion-electron system (eV)
  ---------------------------------------------------
  alpha Z        PSCENC =       170.45750602
  Ewald energy   TEWEN  =     11310.28508206
  -Hartree energ DENC   =    -17597.91246255
  -exchange      EXHF   =         0.00000000
  -V(xc)+E(xc)   XCENC  =        41.79170819
  PAW double counting   =      3770.92416859    -3473.48076287
  entropy T*S    EENTRO =         0.00000000
  eigenvalues    EBANDS =     -1581.22693704
  atomic energy  EATOM  =      7269.15145414
  Solvation  Ediel_sol  =         0.00000000
  ---------------------------------------------------
  free energy    TOTEN  =       -90.01024347 eV

  energy without entropy =      -90.01024347  energy(sigma->0) =      -90.01024347


--------------------------------------------------------------------------------------------------------




--------------------------------------- Iteration      1(   8)  ---------------------------------------


    POTLOK:  cpu time    2.3337: real time    2.3507
    SETDIJ:  cpu time    0.1485: real time    0.1489
     EDDAV:  cpu time    2.4880: real time    2.4938
 BZINTS: Fermi energy: -1.295613;144.000000 electrons
         Band energy:***********;  BLOECHL correction:  0.000000
       DOS:  cpu time    0.0027: real time    0.0028
    CHARGE:  cpu time    0.1372: real time    0.1375
    MIXING:  cpu time    0.0055: real time    0.0058
    --------------------------------------------
      LOOP:  cpu time    5.1156: real time    5.1395

 eigenvalue-minimisations  :  3120
 total energy-change (2. order) : 0.2426689E+00  (-0.3540394E+00)
 number of electron     143.9999982 magnetization 
 augmentation part      -17.7141015 magnetization 

 Broyden mixing:
  rms(total) = 0.11621E+00    rms(broyden)= 0.11621E+00
  rms(prec ) = 0.18550E+00
  weight for this iteration     100.00

 eigenvalues of (default mixing * dielectric matrix)
  average eigenvalue GAMMA=   1.6842
  2.6401  1.2063  1.2063

 Free energy of the ion-electron system (eV)
  ---------------------------------------------------
  alpha Z        PSCENC =       170.45750602
  Ewald energy   TEWEN  =     11310.28508206
  -Hartree energ DENC   =    -17630.72752352
  -exchange      EXHF   =         0.00000000
  -V(xc)+E(xc)   XCENC  =        42.71401614
  PAW double counting   =      3818.94907325    -3523.31432687
  entropy T*S    EENTRO =         0.00000000
  eigenvalues    EBANDS =     -1547.28285580
  atomic energy  EATOM  =      7269.15145414
  Solvation  Ediel_sol  =         0.00000000
  ---------------------------------------------------
  free energy    TOTEN  =       -89.76757457 eV

  energy without entropy =      -89.76757457  energy(sigma->0) =      -89.76757457


--------------------------------------------------------------------------------------------------------




--------------------------------------- Iteration      1(   9)  ---------------------------------------


    POTLOK:  cpu time    2.3505: real time    2.3679
    SETDIJ:  cpu time    0.1208: real time    0.1211
     EDDAV:  cpu time    2.4779: real time    2.4837
 BZINTS: Fermi energy: -0.973116;144.000000 electrons
         Band energy:***********;  BLOECHL correction:  0.000000
       DOS:  cpu time    0.0023: real time    0.0023
    CHARGE:  cpu time    0.1432: real time    0.1435
    MIXING:  cpu time    0.0078: real time    0.0078
    --------------------------------------------
      LOOP:  cpu time    5.1025: real time    5.1264

 eigenvalue-minimisations  :  3104
 total energy-change (2. order) : 0.2633181E+00  (-0.1098501E+00)
 number of electron     143.9999982 magnetization 
 augmentation part      -17.6796829 magnetization 

 Broyden mixing:
  rms(total) = 0.53790E-01    rms(broyden)= 0.53790E-01
  rms(prec ) = 0.76280E-01
  weight for this iteration     100.00

 eigenvalues of (default mixing * dielectric matrix)
  average eigenvalue GAMMA=   1.4086
  2.5838  1.2171  1.2171  0.6164

 Free energy of the ion-electron system (eV)
  ---------------------------------------------------
  alpha Z        PSCENC =       170.45750602
  Ewald energy   TEWEN  =     11310.28508206
  -Hartree energ DENC   =    -17669.16745359
  -exchange      EXHF   =         0.00000000
  -V(xc)+E(xc)   XCENC  =        43.61415929
  PAW double counting   =      3829.35224620    -3535.03836193
  entropy T*S    EENTRO =         0.00000000
  eigenvalues    EBANDS =     -1508.15888867
  atomic energy  EATOM  =      7269.15145414
  Solvation  Ediel_sol  =         0.00000000
  ---------------------------------------------------
  free energy    TOTEN  =       -89.50425648 eV

  energy without entropy =      -89.50425648  energy(sigma->0) =      -89.50425648


--------------------------------------------------------------------------------------------------------




--------------------------------------- Iteration      1(  10)  ---------------------------------------


    POTLOK:  cpu time    2.3581: real time    2.3753
    SETDIJ:  cpu time    0.1195: real time    0.1197
     EDDAV:  cpu time    2.8627: real time    2.8694
 BZINTS: Fermi energy: -0.841170;144.000000 electrons
         Band energy:***********;  BLOECHL correction:  0.000000
       DOS:  cpu time    0.0023: real time    0.0023
    CHARGE:  cpu time    0.1431: real time    0.1434
    MIXING:  cpu time    0.0070: real time    0.0070
    --------------------------------------------
      LOOP:  cpu time    5.4926: real time    5.5172

 eigenvalue-minimisations  :  3592
 total energy-change (2. order) : 0.1301411E-01  (-0.2392981E-01)
 number of electron     143.9999982 magnetization 
 augmentation part      -17.6921673 magnetization 

 Broyden mixing:
  rms(total) = 0.40438E-01    rms(broyden)= 0.40438E-01
  rms(prec ) = 0.59950E-01
  weight for this iteration     100.00

 eigenvalues of (default mixing * dielectric matrix)
  average eigenvalue GAMMA=   1.5735
  2.4756  2.3396  1.1668  0.9427  0.9427

 Free energy of the ion-electron system (eV)
  ---------------------------------------------------
  alpha Z        PSCENC =       170.45750602
  Ewald energy   TEWEN  =     11310.28508206
  -Hartree energ DENC   =    -17677.81617347
  -exchange      EXHF   =         0.00000000
  -V(xc)+E(xc)   XCENC  =        43.64623023
  PAW double counting   =      3824.61970928    -3530.02326060
  entropy T*S    EENTRO =         0.00000000
  eigenvalues    EBANDS =     -1499.81179002
  atomic energy  EATOM  =      7269.15145414
  Solvation  Ediel_sol  =         0.00000000
  ---------------------------------------------------
  free energy    TOTEN  =       -89.49124237 eV

  energy without entropy =      -89.49124237  energy(sigma->0) =      -89.49124237


--------------------------------------------------------------------------------------------------------




--------------------------------------- Iteration      1(  11)  ---------------------------------------


    POTLOK:  cpu time    2.3479: real time    2.3646
    SETDIJ:  cpu time    0.2295: real time    0.2300
     EDDAV:  cpu time    2.5258: real time    2.5318
 BZINTS: Fermi energy: -0.822450;144.000000 electrons
         Band energy:***********;  BLOECHL correction:  0.000000
       DOS:  cpu time    0.0020: real time    0.0021
    CHARGE:  cpu time    0.1411: real time    0.1414
    MIXING:  cpu time    0.0057: real time    0.0057
    --------------------------------------------
      LOOP:  cpu time    5.2520: real time    5.2756

 eigenvalue-minimisations  :  3200
 total energy-change (2. order) : 0.6351397E-01  (-0.6751498E-02)
 number of electron     143.9999982 magnetization 
 augmentation part      -17.6995479 magnetization 

 Broyden mixing:
  rms(total) = 0.15274E-01    rms(broyden)= 0.15274E-01
  rms(prec ) = 0.30069E-01
  weight for this iteration     100.00

 eigenvalues of (default mixing * dielectric matrix)
  average eigenvalue GAMMA=   1.5999
  2.7803  2.7803  1.1877  0.9782  0.9364  0.9364

 Free energy of the ion-electron system (eV)
  ---------------------------------------------------
  alpha Z        PSCENC =       170.45750602
  Ewald energy   TEWEN  =     11310.28508206
  -Hartree energ DENC   =    -17693.43452944
  -exchange      EXHF   =         0.00000000
  -V(xc)+E(xc)   XCENC  =        43.83106066
  PAW double counting   =      3825.45571109    -3530.57112293
  entropy T*S    EENTRO =         0.00000000
  eigenvalues    EBANDS =     -1484.60289000
  atomic energy  EATOM  =      7269.15145414
  Solvation  Ediel_sol  =         0.00000000
  ---------------------------------------------------
  free energy    TOTEN  =       -89.42772840 eV

  energy without entropy =      -89.42772840  energy(sigma->0) =      -89.42772840


--------------------------------------------------------------------------------------------------------




--------------------------------------- Iteration      1(  12)  ---------------------------------------


    POTLOK:  cpu time    2.3390: real time    2.3557
    SETDIJ:  cpu time    0.2098: real time    0.2103
     EDDAV:  cpu time    2.6648: real time    2.6711
 BZINTS: Fermi energy: -0.754412;144.000000 electrons
         Band energy:***********;  BLOECHL correction:  0.000000
       DOS:  cpu time    0.0019: real time    0.0019
    CHARGE:  cpu time    0.1447: real time    0.1450
    MIXING:  cpu time    0.0058: real time    0.0058
    --------------------------------------------
      LOOP:  cpu time    5.3660: real time    5.3898

 eigenvalue-minimisations  :  3376
 total energy-change (2. order) :-0.2296023E-03  (-0.1388257E-02)
 number of electron     143.9999982 magnetization 
 augmentation part      -17.6951096 magnetization 

 Broyden mixing:
  rms(total) = 0.11361E-01    rms(broyden)= 0.11361E-01
  rms(prec ) = 0.19520E-01
  weight for this iteration     100.00

 eigenvalues of (default mixing * dielectric matrix)
  average eigenvalue GAMMA=   1.7108
  3.3733  2.6296  1.9692  1.1190  1.1190  0.8826  0.8826

 Free energy of the ion-electron system (eV)
  ---------------------------------------------------
  alpha Z        PSCENC =       170.45750602
  Ewald energy   TEWEN  =     11310.28508206
  -Hartree energ DENC   =    -17704.30040521
  -exchange      EXHF   =         0.00000000
  -V(xc)+E(xc)   XCENC  =        43.87183265
  PAW double counting   =      3823.07666712    -3528.02163849
  entropy T*S    EENTRO =         0.00000000
  eigenvalues    EBANDS =     -1473.94845630
  atomic energy  EATOM  =      7269.15145414
  Solvation  Ediel_sol  =         0.00000000
  ---------------------------------------------------
  free energy    TOTEN  =       -89.42795800 eV

  energy without entropy =      -89.42795800  energy(sigma->0) =      -89.42795800


--------------------------------------------------------------------------------------------------------




--------------------------------------- Iteration      1(  13)  ---------------------------------------


    POTLOK:  cpu time    2.3291: real time    2.3460
    SETDIJ:  cpu time    0.1534: real time    0.1537
     EDDAV:  cpu time    2.7017: real time    2.7080
 BZINTS: Fermi energy: -0.618625;144.000000 electrons
         Band energy:***********;  BLOECHL correction:  0.000000
       DOS:  cpu time    0.0024: real time    0.0024
    CHARGE:  cpu time    0.1352: real time    0.1355
    MIXING:  cpu time    0.0061: real time    0.0062
    --------------------------------------------
      LOOP:  cpu time    5.3279: real time    5.3518

 eigenvalue-minimisations  :  3400
 total energy-change (2. order) : 0.1749140E-02  (-0.7078015E-03)
 number of electron     143.9999982 magnetization 
 augmentation part      -17.6958667 magnetization 

 Broyden mixing:
  rms(total) = 0.58385E-02    rms(broyden)= 0.58385E-02
  rms(prec ) = 0.10343E-01
  weight for this iteration     100.00

 eigenvalues of (default mixing * dielectric matrix)
  average eigenvalue GAMMA=   1.7815
  3.9639  2.8331  2.4055  1.2109  1.2109  0.8901  0.8689  0.8689

 Free energy of the ion-electron system (eV)
  ---------------------------------------------------
  alpha Z        PSCENC =       170.45750602
  Ewald energy   TEWEN  =     11310.28508206
  -Hartree energ DENC   =    -17712.92298894
  -exchange      EXHF   =         0.00000000
  -V(xc)+E(xc)   XCENC  =        43.92073273
  PAW double counting   =      3821.68073919    -3526.72338130
  entropy T*S    EENTRO =         0.00000000
  eigenvalues    EBANDS =     -1465.27535275
  atomic energy  EATOM  =      7269.15145414
  Solvation  Ediel_sol  =         0.00000000
  ---------------------------------------------------
  free energy    TOTEN  =       -89.42620886 eV

  energy without entropy =      -89.42620886  energy(sigma->0) =      -89.42620886


--------------------------------------------------------------------------------------------------------




--------------------------------------- Iteration      1(  14)  ---------------------------------------


    POTLOK:  cpu time    2.3420: real time    2.3601
    SETDIJ:  cpu time    0.1362: real time    0.1366
     EDDAV:  cpu time    2.2516: real time    2.2569
 BZINTS: Fermi energy: -0.598787;144.000000 electrons
         Band energy:***********;  BLOECHL correction:  0.000000
       DOS:  cpu time    0.0023: real time    0.0023
    CHARGE:  cpu time    0.1261: real time    0.1264
    MIXING:  cpu time    0.0056: real time    0.0057
    --------------------------------------------
      LOOP:  cpu time    4.8639: real time    4.8880

 eigenvalue-minimisations  :  2952
 total energy-change (2. order) : 0.4862440E-02  (-0.2559371E-03)
 number of electron     143.9999982 magnetization 
 augmentation part      -17.6966467 magnetization 

 Broyden mixing:
  rms(total) = 0.46546E-02    rms(broyden)= 0.46546E-02
  rms(prec ) = 0.75519E-02
  weight for this iteration     100.00

 eigenvalues of (default mixing * dielectric matrix)
  average eigenvalue GAMMA=   1.8420
  4.5499  3.0341  2.0789  1.7594  0.8871  0.8871  1.1715  1.1715  1.0382

 Free energy of the ion-electron system (eV)
  ---------------------------------------------------
  alpha Z        PSCENC =       170.45750602
  Ewald energy   TEWEN  =     11310.28508206
  -Hartree energ DENC   =    -17716.44366520
  -exchange      EXHF   =         0.00000000
  -V(xc)+E(xc)   XCENC  =        43.93111165
  PAW double counting   =      3820.99450999    -3526.04800197
  entropy T*S    EENTRO =         0.00000000
  eigenvalues    EBANDS =     -1461.74934312
  atomic energy  EATOM  =      7269.15145414
  Solvation  Ediel_sol  =         0.00000000
  ---------------------------------------------------
  free energy    TOTEN  =       -89.42134642 eV

  energy without entropy =      -89.42134642  energy(sigma->0) =      -89.42134642


--------------------------------------------------------------------------------------------------------




--------------------------------------- Iteration      1(  15)  ---------------------------------------


    POTLOK:  cpu time    2.3642: real time    2.3814
    SETDIJ:  cpu time    0.1346: real time    0.1349
     EDDAV:  cpu time    2.5666: real time    2.5727
 BZINTS: Fermi energy: -0.585674;144.000000 electrons
         Band energy:***********;  BLOECHL correction:  0.000000
       DOS:  cpu time    0.0022: real time    0.0022
    CHARGE:  cpu time    0.1626: real time    0.1630
    MIXING:  cpu time    0.0069: real time    0.0070
    --------------------------------------------
      LOOP:  cpu time    5.2372: real time    5.2612

 eigenvalue-minimisations  :  2880
 total energy-change (2. order) : 0.3532341E-03  (-0.2535706E-03)
 number of electron     143.9999982 magnetization 
 augmentation part      -17.6979080 magnetization 

 Broyden mixing:
  rms(total) = 0.18401E-02    rms(broyden)= 0.18401E-02
  rms(prec ) = 0.36564E-02
  weight for this iteration     100.00

 eigenvalues of (default mixing * dielectric matrix)
  average eigenvalue GAMMA=   1.9320
  5.4033  3.2195  2.5805  1.7825  0.8865  0.8865  1.2637  1.2637  1.0170  1.0170

 Free energy of the ion-electron system (eV)
  ---------------------------------------------------
  alpha Z        PSCENC =       170.45750602
  Ewald energy   TEWEN  =     11310.28508206
  -Hartree energ DENC   =    -17718.51157634
  -exchange      EXHF   =         0.00000000
  -V(xc)+E(xc)   XCENC  =        43.92791386
  PAW double counting   =      3821.40481741    -3526.43418011
  entropy T*S    EENTRO =         0.00000000
  eigenvalues    EBANDS =     -1459.70201023
  atomic energy  EATOM  =      7269.15145414
  Solvation  Ediel_sol  =         0.00000000
  ---------------------------------------------------
  free energy    TOTEN  =       -89.42099319 eV

  energy without entropy =      -89.42099319  energy(sigma->0) =      -89.42099319


--------------------------------------------------------------------------------------------------------




--------------------------------------- Iteration      1(  16)  ---------------------------------------


    POTLOK:  cpu time    2.3673: real time    2.3833
    SETDIJ:  cpu time    0.1230: real time    0.1233
     EDDAV:  cpu time    2.4397: real time    2.4454
 BZINTS: Fermi energy: -0.576003;144.000000 electrons
         Band energy:***********;  BLOECHL correction:  0.000000
       DOS:  cpu time    0.0023: real time    0.0023
    CHARGE:  cpu time    0.1300: real time    0.1304
    MIXING:  cpu time    0.0066: real time    0.0066
    --------------------------------------------
      LOOP:  cpu time    5.0690: real time    5.0913

 eigenvalue-minimisations  :  3072
 total energy-change (2. order) : 0.1904746E-03  (-0.1565431E-03)
 number of electron     143.9999982 magnetization 
 augmentation part      -17.6976882 magnetization 

 Broyden mixing:
  rms(total) = 0.13550E-02    rms(broyden)= 0.13550E-02
  rms(prec ) = 0.25057E-02
  weight for this iteration     100.00

 eigenvalues of (default mixing * dielectric matrix)
  average eigenvalue GAMMA=   2.0009
  5.8153  3.5748  2.4939  2.1656  0.8885  0.8885  1.5744  1.2971  1.2971  1.0076
  1.0076

 Free energy of the ion-electron system (eV)
  ---------------------------------------------------
  alpha Z        PSCENC =       170.45750602
  Ewald energy   TEWEN  =     11310.28508206
  -Hartree energ DENC   =    -17720.12273074
  -exchange      EXHF   =         0.00000000
  -V(xc)+E(xc)   XCENC  =        43.93128606
  PAW double counting   =      3821.62999340    -3526.67288724
  entropy T*S    EENTRO =         0.00000000
  eigenvalues    EBANDS =     -1458.08050640
  atomic energy  EATOM  =      7269.15145414
  Solvation  Ediel_sol  =         0.00000000
  ---------------------------------------------------
  free energy    TOTEN  =       -89.42080271 eV

  energy without entropy =      -89.42080271  energy(sigma->0) =      -89.42080271


--------------------------------------------------------------------------------------------------------




--------------------------------------- Iteration      1(  17)  ---------------------------------------


    POTLOK:  cpu time    2.3464: real time    2.3626
    SETDIJ:  cpu time    0.1349: real time    0.1353
     EDDAV:  cpu time    2.3209: real time    2.3264
 BZINTS: Fermi energy: -0.569016;144.000000 electrons
         Band energy:***********;  BLOECHL correction:  0.000000
       DOS:  cpu time    0.0027: real time    0.0027
    CHARGE:  cpu time    0.1323: real time    0.1326
    MIXING:  cpu time    0.0072: real time    0.0072
    --------------------------------------------
      LOOP:  cpu time    4.9444: real time    4.9668

 eigenvalue-minimisations  :  2920
 total energy-change (2. order) : 0.3319102E-03  (-0.8428713E-04)
 number of electron     143.9999982 magnetization 
 augmentation part      -17.6976469 magnetization 

 Broyden mixing:
  rms(total) = 0.78903E-03    rms(broyden)= 0.78903E-03
  rms(prec ) = 0.15051E-02
  weight for this iteration     100.00

 eigenvalues of (default mixing * dielectric matrix)
  average eigenvalue GAMMA=   2.0192
  6.2238  3.7349  2.7634  2.2807  1.4840  1.4840  0.8878  0.8878  1.3011  0.9703
  1.1065  1.1065

 Free energy of the ion-electron system (eV)
  ---------------------------------------------------
  alpha Z        PSCENC =       170.45750602
  Ewald energy   TEWEN  =     11310.28508206
  -Hartree energ DENC   =    -17721.30870876
  -exchange      EXHF   =         0.00000000
  -V(xc)+E(xc)   XCENC  =        43.93535834
  PAW double counting   =      3821.64348173    -3526.68286317
  entropy T*S    EENTRO =         0.00000000
  eigenvalues    EBANDS =     -1456.90178116
  atomic energy  EATOM  =      7269.15145414
  Solvation  Ediel_sol  =         0.00000000
  ---------------------------------------------------
  free energy    TOTEN  =       -89.42047080 eV

  energy without entropy =      -89.42047080  energy(sigma->0) =      -89.42047080


--------------------------------------------------------------------------------------------------------




--------------------------------------- Iteration      1(  18)  ---------------------------------------


    POTLOK:  cpu time    2.3428: real time    2.3599
    SETDIJ:  cpu time    0.1527: real time    0.1531
     EDDAV:  cpu time    2.1425: real time    2.1475
 BZINTS: Fermi energy: -0.567499;144.000000 electrons
         Band energy:***********;  BLOECHL correction:  0.000000
       DOS:  cpu time    0.0023: real time    0.0023
    CHARGE:  cpu time    0.1413: real time    0.1416
    MIXING:  cpu time    0.0065: real time    0.0065
    --------------------------------------------
      LOOP:  cpu time    4.7880: real time    4.8109

 eigenvalue-minimisations  :  2592
 total energy-change (2. order) :-0.7367051E-03  (-0.2164924E-04)
 number of electron     143.9999982 magnetization 
 augmentation part      -17.6976485 magnetization 

 Broyden mixing:
  rms(total) = 0.53880E-03    rms(broyden)= 0.53880E-03
  rms(prec ) = 0.92651E-03
  weight for this iteration     100.00

 eigenvalues of (default mixing * dielectric matrix)
  average eigenvalue GAMMA=   2.1068
  6.6542  4.3936  2.7617  2.7617  1.9797  0.8876  0.8876  1.3699  1.3699  1.1884
  1.1884  0.9728  0.9728

 Free energy of the ion-electron system (eV)
  ---------------------------------------------------
  alpha Z        PSCENC =       170.45750602
  Ewald energy   TEWEN  =     11310.28508206
  -Hartree energ DENC   =    -17721.88805473
  -exchange      EXHF   =         0.00000000
  -V(xc)+E(xc)   XCENC  =        43.93754181
  PAW double counting   =      3821.61689655    -3526.65465948
  entropy T*S    EENTRO =         0.00000000
  eigenvalues    EBANDS =     -1456.32697389
  atomic energy  EATOM  =      7269.15145414
  Solvation  Ediel_sol  =         0.00000000
  ---------------------------------------------------
  free energy    TOTEN  =       -89.42120751 eV

  energy without entropy =      -89.42120751  energy(sigma->0) =      -89.42120751


--------------------------------------------------------------------------------------------------------




--------------------------------------- Iteration      1(  19)  ---------------------------------------


    POTLOK:  cpu time    2.3007: real time    2.3177
    SETDIJ:  cpu time    0.1794: real time    0.1799
     EDDAV:  cpu time    2.4333: real time    2.4390
 BZINTS: Fermi energy: -0.568790;144.000000 electrons
         Band energy:***********;  BLOECHL correction:  0.000000
       DOS:  cpu time    0.0024: real time    0.0024
    CHARGE:  cpu time    0.1642: real time    0.1645
    MIXING:  cpu time    0.0063: real time    0.0063
    --------------------------------------------
      LOOP:  cpu time    5.0862: real time    5.1098

 eigenvalue-minimisations  :  2616
 total energy-change (2. order) :-0.7325722E-03  (-0.2012455E-04)
 number of electron     143.9999982 magnetization 
 augmentation part      -17.6978332 magnetization 

 Broyden mixing:
  rms(total) = 0.42408E-03    rms(broyden)= 0.42408E-03
  rms(prec ) = 0.63419E-03
  weight for this iteration     100.00

 eigenvalues of (default mixing * dielectric matrix)
  average eigenvalue GAMMA=   2.1936
  7.0925  5.1631  2.9167  2.9167  2.0227  1.6629  1.6629  0.8876  0.8876  1.2656
  1.2656  1.0115  1.0115  0.9435

 Free energy of the ion-electron system (eV)
  ---------------------------------------------------
  alpha Z        PSCENC =       170.45750602
  Ewald energy   TEWEN  =     11310.28508206
  -Hartree energ DENC   =    -17722.06087690
  -exchange      EXHF   =         0.00000000
  -V(xc)+E(xc)   XCENC  =        43.93591854
  PAW double counting   =      3821.53445553    -3526.57031450
  entropy T*S    EENTRO =         0.00000000
  eigenvalues    EBANDS =     -1456.15516498
  atomic energy  EATOM  =      7269.15145414
  Solvation  Ediel_sol  =         0.00000000
  ---------------------------------------------------
  free energy    TOTEN  =       -89.42194008 eV

  energy without entropy =      -89.42194008  energy(sigma->0) =      -89.42194008


--------------------------------------------------------------------------------------------------------




--------------------------------------- Iteration      1(  20)  ---------------------------------------


    POTLOK:  cpu time    2.4255: real time    2.4427
    SETDIJ:  cpu time    0.0514: real time    0.0516
     EDDAV:  cpu time    2.3189: real time    2.3243
 BZINTS: Fermi energy: -0.570859;144.000000 electrons
         Band energy:***********;  BLOECHL correction:  0.000000
       DOS:  cpu time    0.0026: real time    0.0026
    CHARGE:  cpu time    0.1244: real time    0.1247
    MIXING:  cpu time    0.0071: real time    0.0072
    --------------------------------------------
      LOOP:  cpu time    4.9300: real time    4.9531

 eigenvalue-minimisations  :  2728
 total energy-change (2. order) :-0.2867671E-03  (-0.8696645E-05)
 number of electron     143.9999982 magnetization 
 augmentation part      -17.6978964 magnetization 

 Broyden mixing:
  rms(total) = 0.20377E-03    rms(broyden)= 0.20377E-03
  rms(prec ) = 0.31097E-03
  weight for this iteration     100.00

 eigenvalues of (default mixing * dielectric matrix)
  average eigenvalue GAMMA=   2.3146
  7.8154  6.4809  3.1163  3.1163  2.5246  1.5597  1.5597  0.8877  0.8877  1.2918
  1.2918  0.9617  0.9617  1.1317  1.1317

 Free energy of the ion-electron system (eV)
  ---------------------------------------------------
  alpha Z        PSCENC =       170.45750602
  Ewald energy   TEWEN  =     11310.28508206
  -Hartree energ DENC   =    -17722.08056895
  -exchange      EXHF   =         0.00000000
  -V(xc)+E(xc)   XCENC  =        43.93577145
  PAW double counting   =      3821.54900495    -3526.58440038
  entropy T*S    EENTRO =         0.00000000
  eigenvalues    EBANDS =     -1456.13607613
  atomic energy  EATOM  =      7269.15145414
  Solvation  Ediel_sol  =         0.00000000
  ---------------------------------------------------
  free energy    TOTEN  =       -89.42222685 eV

  energy without entropy =      -89.42222685  energy(sigma->0) =      -89.42222685


--------------------------------------------------------------------------------------------------------




--------------------------------------- Iteration      1(  21)  ---------------------------------------


    POTLOK:  cpu time    2.3227: real time    2.3398
    SETDIJ:  cpu time    0.1605: real time    0.1609
     EDDAV:  cpu time    1.9605: real time    1.9651
 BZINTS: Fermi energy: -0.573687;144.000000 electrons
         Band energy:***********;  BLOECHL correction:  0.000000
       DOS:  cpu time    0.0024: real time    0.0024
    CHARGE:  cpu time    0.1251: real time    0.1254
    MIXING:  cpu time    0.0065: real time    0.0065
    --------------------------------------------
      LOOP:  cpu time    4.5776: real time    4.6000

 eigenvalue-minimisations  :  2376
 total energy-change (2. order) :-0.1214329E-03  (-0.3185770E-05)
 number of electron     143.9999982 magnetization 
 augmentation part      -17.6978864 magnetization 

 Broyden mixing:
  rms(total) = 0.10532E-03    rms(broyden)= 0.10532E-03
  rms(prec ) = 0.12917E-03
  weight for this iteration     100.00

 eigenvalues of (default mixing * dielectric matrix)
  average eigenvalue GAMMA=   2.3458
  8.6494  6.5805  3.1955  3.1955  2.4478  1.8928  1.8928  0.8877  0.8877  1.2968
  1.2968  1.1842  1.0997  1.0997  0.9629  0.9629

 Free energy of the ion-electron system (eV)
  ---------------------------------------------------
  alpha Z        PSCENC =       170.45750602
  Ewald energy   TEWEN  =     11310.28508206
  -Hartree energ DENC   =    -17721.97719909
  -exchange      EXHF   =         0.00000000
  -V(xc)+E(xc)   XCENC  =        43.93463511
  PAW double counting   =      3821.55493013    -3526.59133603
  entropy T*S    EENTRO =         0.00000000
  eigenvalues    EBANDS =     -1456.23742061
  atomic energy  EATOM  =      7269.15145414
  Solvation  Ediel_sol  =         0.00000000
  ---------------------------------------------------
  free energy    TOTEN  =       -89.42234828 eV

  energy without entropy =      -89.42234828  energy(sigma->0) =      -89.42234828


--------------------------------------------------------------------------------------------------------




--------------------------------------- Iteration      1(  22)  ---------------------------------------


    POTLOK:  cpu time    2.3360: real time    2.3530
    SETDIJ:  cpu time    0.1586: real time    0.1590
     EDDAV:  cpu time    2.1062: real time    2.1112
 BZINTS: Fermi energy: -0.575532;144.000000 electrons
         Band energy:***********;  BLOECHL correction:  0.000000
       DOS:  cpu time    0.0023: real time    0.0023
    CHARGE:  cpu time    0.1315: real time    0.1318
    MIXING:  cpu time    0.0074: real time    0.0074
    --------------------------------------------
      LOOP:  cpu time    4.7419: real time    4.7646

 eigenvalue-minimisations  :  2512
 total energy-change (2. order) :-0.1615619E-04  (-0.2939378E-06)
 number of electron     143.9999982 magnetization 
 augmentation part      -17.6978452 magnetization 

 Broyden mixing:
  rms(total) = 0.64258E-04    rms(broyden)= 0.64258E-04
  rms(prec ) = 0.83294E-04
  weight for this iteration     100.00

 eigenvalues of (default mixing * dielectric matrix)
  average eigenvalue GAMMA=   2.3201
  8.7722  6.9301  3.2594  3.2594  2.5996  1.9225  1.9225  0.8877  0.8877  1.4035
  1.2487  1.2487  0.9552  0.9552  1.0652  1.0624  1.0624

 Free energy of the ion-electron system (eV)
  ---------------------------------------------------
  alpha Z        PSCENC =       170.45750602
  Ewald energy   TEWEN  =     11310.28508206
  -Hartree energ DENC   =    -17721.99714350
  -exchange      EXHF   =         0.00000000
  -V(xc)+E(xc)   XCENC  =        43.93457810
  PAW double counting   =      3821.54070513    -3526.57669154
  entropy T*S    EENTRO =         0.00000000
  eigenvalues    EBANDS =     -1456.21785486
  atomic energy  EATOM  =      7269.15145414
  Solvation  Ediel_sol  =         0.00000000
  ---------------------------------------------------
  free energy    TOTEN  =       -89.42236444 eV

  energy without entropy =      -89.42236444  energy(sigma->0) =      -89.42236444


--------------------------------------------------------------------------------------------------------




--------------------------------------- Iteration      1(  23)  ---------------------------------------


    POTLOK:  cpu time    2.3401: real time    2.3579
    SETDIJ:  cpu time    0.1457: real time    0.1461
     EDDAV:  cpu time    1.7861: real time    1.7903
 BZINTS: Fermi energy: -0.577537;144.000000 electrons
         Band energy:***********;  BLOECHL correction:  0.000000
       DOS:  cpu time    0.0022: real time    0.0022
    CHARGE:  cpu time    0.1307: real time    0.1310
    MIXING:  cpu time    0.0081: real time    0.0082
    --------------------------------------------
      LOOP:  cpu time    4.4130: real time    4.4357

 eigenvalue-minimisations  :  1984
 total energy-change (2. order) :-0.4558950E-05  (-0.5228535E-07)
 number of electron     143.9999982 magnetization 
 augmentation part      -17.6978445 magnetization 

 Broyden mixing:
  rms(total) = 0.34194E-04    rms(broyden)= 0.34194E-04
  rms(prec ) = 0.47086E-04
  weight for this iteration     100.00

 eigenvalues of (default mixing * dielectric matrix)
  average eigenvalue GAMMA=   2.3241
  8.8899  7.0391  3.3647  3.3647  2.6794  2.0612  1.8846  1.8846  0.8877  0.8877
  1.2583  1.2583  1.2622  1.0985  1.0985  0.9589  0.9589  0.9963

 Free energy of the ion-electron system (eV)
  ---------------------------------------------------
  alpha Z        PSCENC =       170.45750602
  Ewald energy   TEWEN  =     11310.28508206
  -Hartree energ DENC   =    -17721.97617003
  -exchange      EXHF   =         0.00000000
  -V(xc)+E(xc)   XCENC  =        43.93438957
  PAW double counting   =      3821.54135627    -3526.57754287
  entropy T*S    EENTRO =         0.00000000
  eigenvalues    EBANDS =     -1456.23844415
  atomic energy  EATOM  =      7269.15145414
  Solvation  Ediel_sol  =         0.00000000
  ---------------------------------------------------
  free energy    TOTEN  =       -89.42236900 eV

  energy without entropy =      -89.42236900  energy(sigma->0) =      -89.42236900


--------------------------------------------------------------------------------------------------------




--------------------------------------- Iteration      1(  24)  ---------------------------------------


    POTLOK:  cpu time    2.3341: real time    2.3527
    SETDIJ:  cpu time    0.1442: real time    0.1446
     EDDAV:  cpu time    1.7642: real time    1.7684
 BZINTS: Fermi energy: -0.579230;144.000000 electrons
         Band energy:***********;  BLOECHL correction:  0.000000
       DOS:  cpu time    0.0029: real time    0.0029
    CHARGE:  cpu time    0.1638: real time    0.1642
    MIXING:  cpu time    0.0082: real time    0.0082
    --------------------------------------------
      LOOP:  cpu time    4.4174: real time    4.4410

 eigenvalue-minimisations  :  1936
 total energy-change (2. order) :-0.1184075E-05  (-0.2705725E-07)
 number of electron     143.9999982 magnetization 
 augmentation part      -17.6978449 magnetization 

 Broyden mixing:
  rms(total) = 0.15827E-04    rms(broyden)= 0.15827E-04
  rms(prec ) = 0.23816E-04
  weight for this iteration     100.00

 eigenvalues of (default mixing * dielectric matrix)
  average eigenvalue GAMMA=   2.3047
  8.7944  7.1456  3.4355  3.4355  2.8967  2.1714  2.1714  1.8950  0.8877  0.8877
  1.2484  1.2484  1.2431  1.2431  1.0948  1.0948  0.9564  0.9694  0.9694

 Free energy of the ion-electron system (eV)
  ---------------------------------------------------
[...]
      7     -28.1662      2.00000
      8     -28.1659      2.00000
      9     -14.9533      2.00000
     10     -14.9531      2.00000
     11     -14.8903      2.00000
     12     -14.8903      2.00000
     13     -14.8236      2.00000
     14     -14.8235      2.00000
     15     -14.0997      2.00000
     16     -14.0991      2.00000
     17     -14.0757      2.00000
     18     -14.0687      2.00000
     19     -14.0197      2.00000
     20     -14.0190      2.00000
     21     -13.9713      2.00000
     22     -13.9635      2.00000
     23     -13.9361      2.00000
     24     -13.9331      2.00000
     25     -13.9320      2.00000
     26     -13.9311      2.00000
     27     -13.5026      2.00000
     28     -13.4950      2.00000
     29     -13.4499      2.00000
     30     -13.4421      2.00000
     31     -13.4268      2.00000
     32     -13.4241      2.00000
     33     -11.0444      2.00000
     34     -11.0351      2.00000
     35     -10.7272      2.00000
     36     -10.7137      2.00000
     37      -6.5073      2.00000
     38      -6.4939      2.00000
     39      -6.2602      2.00000
     40      -6.2477      2.00000
     41      -6.1722      2.00000
     42      -6.1689      2.00000
     43      -5.9720      2.00000
     44      -5.9585      2.00000
     45      -5.9145      2.00000
     46      -5.8745      2.00000
     47      -5.8377      2.00000
     48      -5.7282      2.00000
     49      -2.8494      2.00000
     50      -2.7638      2.00000
     51      -2.6346      2.00000
     52      -2.5901      2.00000
     53      -2.2713      2.00000
     54      -2.1982      2.00000
     55      -2.1825      2.00000
     56      -2.1520      2.00000
     57      -2.0218      2.00000
     58      -1.9996      2.00000
     59      -1.8850      2.00000
     60      -1.8073      2.00000
     61      -1.7464      2.00000
     62      -1.6586      2.00000
     63      -1.5529      2.00000
     64      -1.5094      2.00000
     65      -1.3666      2.00000
     66      -1.3037      2.00000
     67      -1.2554      2.00000
     68      -1.1234      2.00000
     69      -1.0224      2.00000
     70      -0.9696      2.00000
     71      -0.9192      2.00000
     72      -0.8657      2.00000
     73       0.1948      0.00000
     74       0.2347      0.00000
     75       0.3945      0.00000
     76       0.4401      0.00000
     77       0.5497      0.00000
     78       0.6198      0.00000
     79       0.7575      0.00000
     80       0.7751      0.00000
     81       0.8296      0.00000
     82       0.8713      0.00000
     83       1.0245      0.00000
     84       1.0536      0.00000
     85       1.1720      0.00000
     86       1.3145      0.00000
     87       1.4088      0.00000
     88       1.5259      0.00000

 k-point    15 :       0.0000    0.5000    0.4000
  band No.  band energies     occupation 
      1     -29.6367      2.00000
      2     -29.6367      2.00000
      3     -28.7364      2.00000
      4     -28.7364      2.00000
      5     -28.6879      2.00000
      6     -28.6879      2.00000
      7     -28.1661      2.00000
      8     -28.1660      2.00000
      9     -14.9527      2.00000
     10     -14.9527      2.00000
     11     -14.8910      2.00000
     12     -14.8910      2.00000
     13     -14.8256      2.00000
     14     -14.8256      2.00000
     15     -14.0988      2.00000
     16     -14.0988      2.00000
     17     -14.0731      2.00000
     18     -14.0731      2.00000
     19     -14.0217      2.00000
     20     -14.0217      2.00000
     21     -13.9696      2.00000
     22     -13.9696      2.00000
     23     -13.9340      2.00000
     24     -13.9340      2.00000
     25     -13.9326      2.00000
     26     -13.9326      2.00000
     27     -13.4985      2.00000
     28     -13.4984      2.00000
     29     -13.4467      2.00000
     30     -13.4467      2.00000
     31     -13.4245      2.00000
     32     -13.4245      2.00000
     33     -11.0338      2.00000
     34     -11.0338      2.00000
     35     -10.7111      2.00000
     36     -10.7111      2.00000
     37      -6.5303      2.00000
     38      -6.5303      2.00000
     39      -6.2354      2.00000
     40      -6.2354      2.00000
     41      -6.1655      2.00000
     42      -6.1655      2.00000
     43      -5.9415      2.00000
     44      -5.9415      2.00000
     45      -5.9050      2.00000
     46      -5.9050      2.00000
     47      -5.7758      2.00000
     48      -5.7758      2.00000
     49      -2.7583      2.00000
     50      -2.7583      2.00000
     51      -2.6325      2.00000
     52      -2.6325      2.00000
     53      -2.2295      2.00000
     54      -2.2294      2.00000
     55      -2.1778      2.00000
     56      -2.1778      2.00000
     57      -2.0207      2.00000
     58      -2.0207      2.00000
     59      -1.7926      2.00000
     60      -1.7926      2.00000
     61      -1.6064      2.00000
     62      -1.6064      2.00000
     63      -1.5853      2.00000
     64      -1.5853      2.00000
     65      -1.3496      2.00000
     66      -1.3496      2.00000
     67      -1.1959      2.00000
     68      -1.1959      2.00000
     69      -1.0115      2.00000
     70      -1.0115      2.00000
     71      -0.8992      2.00000
     72      -0.8992      2.00000
     73       0.1415      0.00000
     74       0.1415      0.00000
     75       0.3799      0.00000
     76       0.3799      0.00000
     77       0.6012      0.00000
     78       0.6012      0.00000
     79       0.7112      0.00000
     80       0.7113      0.00000
     81       0.7929      0.00000
     82       0.7930      0.00000
     83       1.0568      0.00000
     84       1.0569      0.00000
     85       1.2482      0.00000
     86       1.2482      0.00000
     87       1.3898      0.00000
     88       1.3900      0.00000


--------------------------------------------------------------------------------------------------------


 soft charge-density along one line, spin component           1
         0         1         2         3         4         5         6         7         8         9
 total charge-density along one line
 
 pseudopotential strength for first ion, spin component:           1
  4.866  -5.561  -0.000  -0.006  -0.024  -0.000  -0.004  -0.020
 -5.561  -2.761   0.000   0.001   0.004  -0.000  -0.001  -0.004
 -0.000   0.000  -6.823  -0.000  -0.000   1.881  -0.000  -0.000
 -0.006   0.001  -0.000  -6.818  -0.002  -0.000   1.892  -0.003
 -0.024   0.004  -0.000  -0.002  -6.819  -0.000  -0.003   1.891
 -0.000  -0.000   1.881  -0.000  -0.000   7.262  -0.000  -0.000
 -0.004  -0.001  -0.000   1.892  -0.003  -0.000   7.264  -0.000
 -0.020  -0.004  -0.000  -0.003   1.891  -0.000  -0.000   7.264
 -0.000   0.000  -0.012  -0.000  -0.000  -0.009  -0.000  -0.000
 -0.000   0.000  -0.001  -0.000  -0.000  -0.000  -0.000  -0.000
  0.002  -0.001   0.000  -0.004   0.007   0.000  -0.003   0.005
 -0.002   0.001  -0.000  -0.011  -0.002  -0.000  -0.008  -0.002
  0.003  -0.001   0.000  -0.001  -0.011   0.000  -0.001  -0.008
  0.000   0.000   0.001   0.000   0.000   0.000   0.000   0.000
  0.000   0.000   0.000   0.000   0.000  -0.000   0.000   0.000
 -0.000  -0.000  -0.000   0.000  -0.000  -0.000   0.000  -0.000
  0.000   0.000   0.000   0.001   0.000   0.000   0.000   0.000
 -0.000  -0.000  -0.000   0.000   0.000  -0.000   0.000   0.000
 total augmentation occupancy for first ion, spin component:           1
  2.108  -0.260   0.000   0.012   0.052   0.000  -0.005  -0.019   0.000   0.000   0.015  -0.008   0.032   0.000  -0.000  -0.008
 -0.260   0.636   0.000  -0.032  -0.134   0.000   0.012   0.032   0.000   0.000  -0.025   0.008  -0.062   0.000   0.000   0.036
  0.000   0.000   2.012   0.000   0.000  -0.015   0.000   0.000  -0.081   0.022   0.000   0.000   0.000   0.069  -0.043   0.000
  0.012  -0.032   0.000   1.999   0.003   0.000  -0.006  -0.002   0.000   0.000  -0.044  -0.065  -0.014   0.000   0.000   0.043
  0.052  -0.134   0.000   0.003   1.994  -0.000  -0.002  -0.004  -0.000   0.000   0.033  -0.006  -0.050   0.000   0.000  -0.027
  0.000   0.000  -0.015   0.000   0.000   0.008  -0.000   0.000   0.022  -0.009   0.000   0.000   0.000  -0.030   0.013   0.000
 -0.005   0.012   0.000  -0.006  -0.002   0.000   0.005   0.001   0.000   0.000   0.015   0.016   0.005   0.000   0.000  -0.022
 -0.019   0.032   0.000  -0.002  -0.004   0.000   0.001   0.004   0.000   0.000  -0.006   0.000   0.009   0.000   0.000   0.009
  0.000  -0.000  -0.081   0.000  -0.000   0.022   0.000   0.000   0.148  -0.013   0.000   0.000   0.000  -0.188   0.019   0.000
 -0.000  -0.000   0.022   0.000   0.000  -0.009   0.000   0.000  -0.013   0.068  -0.000   0.000   0.000   0.018  -0.085   0.000
  0.015  -0.025   0.000  -0.044   0.033   0.000   0.015  -0.006   0.000   0.000   0.119   0.051   0.020   0.000  -0.000  -0.150
 -0.008   0.008   0.000  -0.065  -0.006   0.000   0.016   0.000  -0.000   0.000   0.051   0.088   0.008   0.000   0.000  -0.071
  0.032  -0.062  -0.000  -0.014  -0.050   0.000   0.005   0.009   0.000   0.000   0.020   0.008   0.092   0.000   0.000  -0.027
  0.000   0.000   0.069   0.000   0.000  -0.030   0.000   0.000  -0.188   0.018   0.000   0.000   0.000   0.269  -0.033  -0.000
  0.000  -0.000  -0.043   0.000   0.000   0.013   0.000   0.000   0.019  -0.085   0.000   0.000   0.000  -0.033   0.117   0.000
 -0.008   0.036   0.000   0.043  -0.027   0.000  -0.022   0.009   0.000   0.000  -0.150  -0.071  -0.027   0.000   0.000   0.209
  0.006  -0.026   0.000   0.055  -0.001   0.000  -0.023  -0.001   0.000   0.000  -0.069  -0.113  -0.011  -0.000   0.000   0.108
 -0.024   0.076   0.000   0.022   0.042   0.000  -0.008  -0.012  -0.000   0.000  -0.028  -0.012  -0.124   0.000   0.000   0.044


------------------------ aborting loop because EDIFF is reached ----------------------------------------


    CHARGE:  cpu time    0.1642: real time    0.1646
    FORLOC:  cpu time    0.0094: real time    0.0095
    FORNL :  cpu time    0.5374: real time    0.5387
    STRESS:  cpu time    1.6211: real time    1.6250
    FORCOR:  cpu time    2.3900: real time    2.3956
    FORHAR:  cpu time    0.0222: real time    0.0223
    MIXING:  cpu time    0.0081: real time    0.0082
    OFIELD:  cpu time    0.0000: real time    0.0000

  FORCE on cell =-STRESS in cart. coord.  units (eV):
  Direction    XX          YY          ZZ          XY          YZ          ZX
  --------------------------------------------------------------------------------------
  Alpha Z   170.45751   170.45751   170.45751
  Ewald  -19053.95961 15453.19631 14911.03509    -0.00002     0.00000   138.50699
  Hartree-15989.28404 17066.61113 16644.64748     0.00000    -0.00000   106.68906
  E(xc)    -460.86280  -462.06612  -462.09058    -0.00000    -0.00000     0.04948
  Local   33628.05984-33955.09843-32983.36504     0.00001    -0.00000  -243.16807
  n-local   336.38549   336.22866   337.50160     0.06209    -0.21415    -1.30214
  augment  -167.52667  -167.94508  -167.89132    -0.00000    -0.00000     0.27557
  Kinetic  1524.81942  1544.66393  1536.26475    -0.04886    -0.85024    -0.89582
  Fock        0.00000     0.00000     0.00000     0.00000     0.00000     0.00000
  -------------------------------------------------------------------------------------
  Total     -11.91087   -13.95209   -13.44050     0.00000     0.00000     0.15507
  in kB     -10.10744   -11.83960   -11.40548     0.00000     0.00000     0.13159
  external pressure =      -11.12 kB  Pullay stress =        0.00 kB


 VOLUME and BASIS-vectors are now :
 -----------------------------------------------------------------------------
  energy-cutoff  :      500.00
  volume of cell :     1888.05
      direct lattice vectors                 reciprocal lattice vectors
    24.009468079  0.000000000  0.000000000     0.041650236  0.000000000  0.000000000
     0.000000000  6.777849674  0.000000000     0.000000000  0.147539419  0.000000000
     0.000000000  0.000000000 11.602143288     0.000000000  0.000000000  0.086190971

  length of vectors
    24.009468079  6.777849674 11.602143288     0.041650236  0.147539419  0.086190971


 FORCES acting on ions
    electron-ion (+dipol)            ewald-force                    non-local-force                 convergence-correction
 -----------------------------------------------------------------------------------------------
   0.769E+03 0.102E-04 0.437E+02   -.764E+03 0.988E-05 -.429E+02   -.404E+01 0.598E-18 -.785E+00   -.132E-03 -.194E-08 0.873E-05
   -.769E+03 -.631E-04 -.437E+02   0.764E+03 -.128E-04 0.429E+02   0.404E+01 0.600E-18 0.785E+00   0.132E-03 0.209E-08 -.873E-05
   0.867E+02 -.612E-04 -.378E+02   -.865E+02 -.177E-04 0.366E+02   0.108E+00 -.238E-18 0.126E+01   0.879E-04 0.323E-08 -.321E-04
   -.867E+02 0.109E-04 0.378E+02   0.865E+02 0.126E-04 -.366E+02   -.108E+00 -.236E-18 -.126E+01   -.879E-04 -.300E-08 0.321E-04
   0.616E+03 -.612E-04 -.487E+02   -.614E+03 -.164E-04 0.491E+02   -.171E+01 0.115E-17 -.375E+00   -.324E-04 0.261E-08 -.148E-03
   -.616E+03 0.901E-05 0.487E+02   0.614E+03 0.143E-04 -.491E+02   0.171E+01 -.135E-17 0.375E+00   0.324E-04 -.248E-08 0.148E-03
   0.354E+03 0.113E-04 -.911E+01   -.353E+03 0.130E-04 0.846E+01   -.486E+00 0.110E-18 0.654E+00   0.988E-04 -.285E-08 0.738E-04
   -.354E+03 -.621E-04 0.911E+01   0.353E+03 -.132E-04 -.846E+01   0.486E+00 0.508E-18 -.654E+00   -.988E-04 0.272E-08 -.737E-04
   0.271E+03 0.354E+02 -.461E+02   -.271E+03 -.371E+02 0.470E+02   -.140E+00 0.174E+01 -.916E+00   0.563E-04 0.423E-04 -.221E-04
   -.271E+03 -.354E+02 0.461E+02   0.271E+03 0.371E+02 -.470E+02   0.140E+00 -.174E+01 0.916E+00   -.562E-04 -.423E-04 0.221E-04
   0.117E+03 -.318E+02 0.242E+01   -.117E+03 0.332E+02 -.124E+01   -.319E-01 -.137E+01 -.119E+01   -.123E-04 -.825E-04 -.379E-04
   -.117E+03 0.318E+02 -.242E+01   0.117E+03 -.332E+02 0.124E+01   0.319E-01 0.137E+01 0.119E+01   0.123E-04 0.825E-04 0.379E-04
   -.271E+03 0.354E+02 0.461E+02   0.271E+03 -.371E+02 -.470E+02   0.140E+00 0.174E+01 0.916E+00   -.562E-04 0.423E-04 0.221E-04
   0.271E+03 -.354E+02 -.461E+02   -.271E+03 0.371E+02 0.470E+02   -.140E+00 -.174E+01 -.916E+00   0.563E-04 -.423E-04 -.221E-04
   -.117E+03 -.318E+02 -.242E+01   0.117E+03 0.332E+02 0.124E+01   0.319E-01 -.137E+01 0.119E+01   0.123E-04 -.825E-04 0.379E-04
   0.117E+03 0.318E+02 0.242E+01   -.117E+03 -.332E+02 -.124E+01   -.319E-01 0.137E+01 -.119E+01   -.123E-04 0.825E-04 -.379E-04
   0.326E+03 -.434E-05 0.460E+02   -.327E+03 -.609E-05 -.465E+02   0.149E+01 0.193E-18 0.449E+00   0.771E-04 0.804E-09 0.448E-04
   -.326E+03 0.617E-05 -.460E+02   0.327E+03 0.629E-05 0.465E+02   -.149E+01 -.279E-18 -.449E+00   -.771E-04 -.909E-09 -.448E-04
   0.335E+02 0.876E-05 -.104E+02   -.317E+02 0.745E-05 0.972E+01   -.149E+01 0.654E-19 0.647E+00   -.792E-05 -.125E-08 0.105E-04
   -.335E+02 -.250E-05 0.104E+02   0.317E+02 -.713E-05 -.972E+01   0.149E+01 -.558E-19 -.647E+00   0.793E-05 0.114E-08 -.105E-04
   0.236E+03 0.431E-05 0.124E+02   -.236E+03 0.803E-05 -.139E+02   -.107E+00 -.440E-18 0.149E+01   0.206E-04 -.108E-08 0.681E-05
   -.236E+03 -.565E-05 -.124E+02   0.236E+03 -.809E-05 0.139E+02   0.107E+00 0.784E-18 -.149E+01   -.206E-04 0.982E-09 -.682E-05
   0.153E+03 -.623E-05 0.576E+02   -.153E+03 -.748E-05 -.595E+02   -.655E+00 -.713E-17 0.195E+01   0.883E-05 0.105E-08 0.124E-03
   -.153E+03 0.370E-05 -.576E+02   0.153E+03 0.733E-05 0.595E+02   0.655E+00 -.869E-17 -.195E+01   -.882E-05 -.109E-08 -.124E-03
 -----------------------------------------------------------------------------------------------
   -.105E-03 -.213E-03 0.406E-04   0.000E+00 0.159E-13 -.711E-14   0.666E-15 0.206E-15 0.222E-15   0.639E-07 -.208E-09 -.512E-08
 
 
 POSITION                                       TOTAL-FORCE (eV/Angst)
 -----------------------------------------------------------------------------------
      0.13670      1.69446      8.16880         0.778878      0.000000      0.000214
      9.27277      5.08339      3.43335        -0.778878      0.000000     -0.000214
      4.36803      5.08339      2.15168         0.342064     -0.000000     -0.000102
      5.04143      1.69446      9.45046        -0.342064      0.000000      0.000102
      1.43529      5.08339     10.61725         0.695628      0.000000     -0.000010
      7.97418      1.69446      0.98489        -0.695628      0.000000      0.000010
      3.06944      1.69446      4.60736         0.516380     -0.000000     -0.000495
      6.34002      5.08339      6.99479        -0.516380      0.000000      0.000495
      1.75027      0.48855      1.65566        -0.127261      0.000169      0.000047
      7.65920      6.28930      9.94648         0.127261     -0.000169     -0.000047
      2.75446      6.30103      7.65438         0.291037     -0.000268      0.000511
      6.65500      0.47682      3.94776        -0.291037      0.000268     -0.000511
      7.65920      3.87747      9.94648         0.127261      0.000169     -0.000047
      1.75027      2.90038      1.65566        -0.127261     -0.000169      0.000047
      6.65500      2.91210      3.94776        -0.291037     -0.000268     -0.000511
      2.75446      3.86575      7.65438         0.291037      0.000268      0.000511
      0.74693      5.08339      6.96224        -0.257632     -0.000000     -0.000076
      8.66254      1.69446      4.63991         0.257632     -0.000000      0.000076
      3.75780      1.69446      0.93814         0.354804      0.000000     -0.000229
      5.65166      5.08339     10.66400        -0.354804     -0.000000      0.000229
      1.78112      1.69446     11.13394        -0.147983      0.000000      0.000166
      7.62835      5.08339      0.46820         0.147983      0.000000     -0.000166
      2.72362      5.08339      5.53057        -0.112998     -0.000000      0.000534
      6.68585      1.69446      6.07157         0.112998      0.000000     -0.000534
 -----------------------------------------------------------------------------------
    total drift:                               -0.000105     -0.000213      0.000041


--------------------------------------------------------------------------------------------------------



  FREE ENERGIE OF THE ION-ELECTRON SYSTEM (eV)
  ---------------------------------------------------
  free  energy   TOTEN  =       -89.42237039 eV

  energy  without entropy=      -89.42237039  energy(sigma->0) =      -89.42237039
 


--------------------------------------------------------------------------------------------------------


    POTLOK:  cpu time    2.4806: real time    2.4864


--------------------------------------------------------------------------------------------------------


 writing wavefunctions
     LOOP+:  cpu time13878.3584: real time13912.5414
    4ORBIT:  cpu time    0.0000: real time    0.0000
 BZINTS: Fermi energy: -0.580750;144.000000 electrons
         Band energy:***********;  BLOECHL correction:  0.000000

 total amount of memory used by VASP MPI-rank0    79353. kBytes
=======================================================================

   base      :      30000. kBytes
   nonlr-proj:       2647. kBytes
   fftplans  :       5898. kBytes
   grid      :       8824. kBytes
   one-center:         93. kBytes
   wavefun   :      31891. kBytes
 
  
  
 General timing and accounting informations for this job:
 ========================================================
  
                  Total CPU time used (sec):    13886.863
                            User time (sec):    13880.652
                          System time (sec):        6.211
                         Elapsed time (sec):    13924.344
  
                   Maximum memory used (kb):      298480.
                   Average memory used (kb):           0.
  
                          Minor page faults:       102581
                          Major page faults:          233
                 Voluntary context switches:        14241
