 vasp.5.4.4.18Apr17-6-g9f103f2a35 (build Nov 21 2017 15:30:27) complex          
  
 executed on             LinuxIFC date 2020.09.15  08:28:14
 running on   64 total cores
 distrk:  each k-point on   32 cores,    2 groups
 distr:  one band on NCORES_PER_BAND=   4 cores,    8 groups


--------------------------------------------------------------------------------------------------------


 INCAR:
 POTCAR:   PAW_PBE Ba_sv 06Sep2000                
 POTCAR:   PAW_PBE Si 05Jan2001                   

 ----------------------------------------------------------------------------- 
|                                                                             |
|           W    W    AA    RRRRR   N    N  II  N    N   GGGG   !!!           |
|           W    W   A  A   R    R  NN   N  II  NN   N  G    G  !!!           |
|           W    W  A    A  R    R  N N  N  II  N N  N  G       !!!           |
|           W WW W  AAAAAA  RRRRR   N  N N  II  N  N N  G  GGG   !            |
|           WW  WW  A    A  R   R   N   NN  II  N   NN  G    G                |
|           W    W  A    A  R    R  N    N  II  N    N   GGGG   !!!           |
|                                                                             |
|      You have enabled k-point parallelism (KPAR>1).                         |
|      This developmental code was originally  written by Paul Kent at ORNL,  |
|      and carefully double checked in Vienna.                                |
|      GW as well as linear response parallelism added by Martijn Marsman     |
|      and Georg Kresse.                                                      |
|      Carefully verify results versus KPAR=1.                                |
|      Report problems to Paul Kent and Vienna.                               |
|                                                                             |
 ----------------------------------------------------------------------------- 


 ----------------------------------------------------------------------------- 
|                                                                             |
|  ADVICE TO THIS USER RUNNING 'VASP/VAMP'   (HEAR YOUR MASTER'S VOICE ...):  |
|                                                                             |
|      You have switched on vdW-DFT.                                          |
|      This routine was written and supplied by Jiri Klimes.                  |
|      We recommed that you carefully read and cite the following             |
|      publication                                                            |
|      J. Klimes, D.R. Bowler, A. Michelides                                  |
|        J. Phys.: Cond Matt. 22 022201 (2010)                                |
|      J. Klimes, D.R. Bowler, A. Michelides                                  |
|        Phys. Rev. B. 83, 195131 (2011)                                      |
|      and references therein.                                                |
|                                                                             |
 ----------------------------------------------------------------------------- 

 POTCAR:   PAW_PBE Ba_sv 06Sep2000                
   VRHFIN =Ba: 5s5p6s                                                           
   LEXCH  = PE                                                                  
   EATOM  =   700.2255 eV,   51.4651 Ry                                         
                                                                                
   TITEL  = PAW_PBE Ba_sv 06Sep2000                                             
   LULTRA =        F    use ultrasoft PP ?                                      
   IUNSCR =        1    unscreen: 0-lin 1-nonlin 2-no                           
   RPACOR =    2.400    partial core radius                                     
   POMASS =  137.327; ZVAL   =   10.000    mass and valenz                      
   RCORE  =    2.800    outmost cutoff radius                                   
   RWIGS  =    3.740; RWIGS  =    1.979    wigner-seitz radius (au A)           
   ENMAX  =  187.210; ENMIN  =  140.408 eV                                      
   RCLOC  =    2.516    cutoff for local pot                                    
   LCOR   =        T    correct aug charges                                     
   LPAW   =        T    paw PP                                                  
   EAUG   =  351.165                                                            
   DEXC   =     .000                                                            
   RMAX   =    3.370    core radius for proj-oper                               
   RAUG   =    1.300    factor for augmentation sphere                          
   RDEP   =    2.976    radius for radial grids                                 
   QCUT   =   -3.709; QGAM   =    7.419    optimization parameters              
                                                                                
   Description                                                                  
     l     E      TYP  RCUT    TYP  RCUT                                        
     0   .000     23  2.800                                                     
     0   .000     23  2.800                                                     
     1   .000     23  2.700                                                     
     1  2.000     23  2.700                                                     
     2   .000     23  2.700                                                     
     2   .000     23  2.700                                                     
  local pseudopotential read in
  partial core-charges read in
  atomic valenz-charges read in
  non local Contribution for L=           0  read in
    real space projection operators read in
  non local Contribution for L=           0  read in
    real space projection operators read in
  non local Contribution for L=           1  read in
    real space projection operators read in
  non local Contribution for L=           1  read in
    real space projection operators read in
  non local Contribution for L=           2  read in
    real space projection operators read in
  non local Contribution for L=           2  read in
    real space projection operators read in
    PAW grid and wavefunctions read in
 
   number of l-projection  operators is LMAX  =           6
   number of lm-projection operators is LMMAX =          18
 
 POTCAR:   PAW_PBE Si 05Jan2001                   
   VRHFIN =Si: s2p2                                                             
   LEXCH  = PE                                                                  
   EATOM  =   103.0669 eV,    7.5752 Ry                                         
                                                                                
   TITEL  = PAW_PBE Si 05Jan2001                                                
   LULTRA =        F    use ultrasoft PP ?                                      
   IUNSCR =        1    unscreen: 0-lin 1-nonlin 2-no                           
   RPACOR =    1.500    partial core radius                                     
   POMASS =   28.085; ZVAL   =    4.000    mass and valenz                      
   RCORE  =    1.900    outmost cutoff radius                                   
   RWIGS  =    2.480; RWIGS  =    1.312    wigner-seitz radius (au A)           
   ENMAX  =  245.345; ENMIN  =  184.009 eV                                      
   ICORE  =        2    local potential                                         
   LCOR   =        T    correct aug charges                                     
   LPAW   =        T    paw PP                                                  
   EAUG   =  322.069                                                            
   DEXC   =    -.007                                                            
   RMAX   =    2.944    core radius for proj-oper                               
   RAUG   =    1.300    factor for augmentation sphere                          
   RDEP   =    1.993    radius for radial grids                                 
   QCUT   =   -4.246; QGAM   =    8.493    optimization parameters              
                                                                                
   Description                                                                  
     l     E      TYP  RCUT    TYP  RCUT                                        
     0   .000     23  1.900                                                     
     0   .000     23  1.900                                                     
     1   .000     23  1.900                                                     
     1   .000     23  1.900                                                     
     2   .000      7  1.900                                                     
  local pseudopotential read in
  partial core-charges read in
  atomic valenz-charges read in
  non local Contribution for L=           0  read in
    real space projection operators read in
  non local Contribution for L=           0  read in
    real space projection operators read in
  non local Contribution for L=           1  read in
    real space projection operators read in
  non local Contribution for L=           1  read in
    real space projection operators read in
    PAW grid and wavefunctions read in
 
   number of l-projection  operators is LMAX  =           4
   number of lm-projection operators is LMMAX =           8
 
 Optimization of the real space projectors (new method)

 maximal supplied QI-value         = 13.42
 optimisation between [QCUT,QGAM] = [ 11.40, 22.81] = [ 36.42,145.68] Ry 
 Optimized for a Real-space Cutoff    1.56 Angstroem

   l    n(q)    QCUT    max X(q) W(low)/X(q) W(high)/X(q)  e(spline) 
   0     11    11.404     7.198    0.14E-04    0.26E-04    0.99E-07
   0     11    11.404    15.603    0.29E-04    0.72E-04    0.44E-06
   1     10    11.404     3.746    0.20E-04    0.24E-04    0.43E-07
   1     10    11.404     4.362    0.22E-03    0.97E-04    0.22E-06
   2     10    11.404     5.782    0.83E-04    0.62E-05    0.27E-06
   2     10    11.404    65.505    0.42E-03    0.31E-04    0.12E-05
 Optimization of the real space projectors (new method)

 maximal supplied QI-value         = 19.84
 optimisation between [QCUT,QGAM] = [ 11.31, 22.82] = [ 35.82,145.81] Ry 
 Optimized for a Real-space Cutoff    1.16 Angstroem

   l    n(q)    QCUT    max X(q) W(low)/X(q) W(high)/X(q)  e(spline) 
   0      8    11.310     8.708    0.14E-04    0.11E-04    0.43E-08
   0      8    11.310   106.241    0.27E-03    0.30E-03    0.38E-07
   1      7    11.310     5.901    0.82E-05    0.48E-04    0.19E-07
   1      7    11.310    73.241    0.27E-03    0.27E-03    0.74E-07

 ----------------------------------------------------------------------------- 
|                                                                             |
|  ADVICE TO THIS USER RUNNING 'VASP/VAMP'   (HEAR YOUR MASTER'S VOICE ...):  |
|                                                                             |
|      You enforced a specific xc-type in the INCAR file,                     |
|      a different type was found on the POTCAR file                          |
|          I HOPE YOU KNOW, WHAT YOU ARE  DOING                               |
|                                                                             |
 ----------------------------------------------------------------------------- 

 PAW_PBE Ba_sv 06Sep2000                :
 energy of atom  1       EATOM= -700.2255
 kinetic energy error for atom=    0.0005 (will be added to EATOM!!)
 PAW_PBE Si 05Jan2001                   :
 energy of atom  2       EATOM= -103.0669
 kinetic energy error for atom=    0.0006 (will be added to EATOM!!)
 
 
 POSCAR: ba8 si16                                
  positions in direct lattice
  velocities in cartesian coordinates
 exchange correlation table for  LEXCH =       43
   RHO(1)=    0.500       N(1)  =     2000
   RHO(2)=  100.500       N(2)  =     4000
 


--------------------------------------------------------------------------------------------------------


 ion  position               nearest neighbor table
   1  0.006  0.250  0.706-  21 3.40  16 3.45  11 3.45  17 3.66  17 3.66   5 4.38   5 4.38   7 4.62

   2  0.376  0.750  0.294-  22 3.40  12 3.45  15 3.45  18 3.66  18 3.66   6 4.38   6 4.38   8 4.62

   3  0.182  0.750  0.187-  20 3.32   9 3.44  14 3.44  22 3.47  12 3.48  15 3.48  19 3.64  19 3.64
                            23 3.74   5 4.28   7 4.38   7 4.38
   4  0.200  0.250  0.813-  19 3.32  13 3.44  10 3.44  21 3.47  16 3.48  11 3.48  20 3.64  20 3.64
                            24 3.74   6 4.28   8 4.38   8 4.38
   5  0.060  0.750  0.918-   9 3.44  14 3.44  21 3.45  21 3.45  11 3.49  16 3.49  17 3.75   3 4.28
                             1 4.38   1 4.38
   6  0.322  0.250  0.082-  13 3.44  10 3.44  22 3.45  22 3.45  15 3.49  12 3.49  18 3.75   4 4.28
                             2 4.38   2 4.38
   7  0.128  0.250  0.399-  14 3.44   9 3.44  23 3.52  23 3.52  15 3.61  12 3.61  24 3.66  19 3.71
                            16 3.74  11 3.74   3 4.38   3 4.38   1 4.62
   8  0.254  0.750  0.601-  10 3.44  13 3.44  24 3.52  24 3.52  11 3.61  16 3.61  23 3.66  20 3.71
                            12 3.74  15 3.74   4 4.38   4 4.38   2 4.62
   9  0.073  0.072  0.145-  14 2.41  21 2.44  19 2.44   7 3.44   5 3.44   3 3.44
  10  0.309  0.928  0.855-  13 2.41  22 2.44  20 2.44   8 3.44   6 3.44   4 3.44
  11  0.115  0.929  0.659-  16 2.43  23 2.44  17 2.44   1 3.45   4 3.48   5 3.49   8 3.61   7 3.74

  12  0.267  0.071  0.341-  15 2.43  24 2.44  18 2.44   2 3.45   3 3.48   6 3.49   7 3.61   8 3.74

  13  0.309  0.572  0.855-  10 2.41  22 2.44  20 2.44   8 3.44   6 3.44   4 3.44
  14  0.073  0.428  0.145-   9 2.41  21 2.44  19 2.44   7 3.44   5 3.44   3 3.44
  15  0.267  0.429  0.341-  12 2.43  24 2.44  18 2.44   2 3.45   3 3.48   6 3.49   7 3.61   8 3.74

  16  0.115  0.571  0.659-  11 2.43  23 2.44  17 2.44   1 3.45   4 3.48   5 3.49   8 3.61   7 3.74

  17  0.031  0.750  0.600-  23 2.44  11 2.44  16 2.44   1 3.66   1 3.66   5 3.75
  18  0.350  0.250  0.400-  24 2.44  15 2.44  12 2.44   2 3.66   2 3.66   6 3.75
  19  0.157  0.250  0.085-  21 2.43  14 2.44   9 2.44   4 3.32   3 3.64   3 3.64   7 3.71
  20  0.225  0.750  0.915-  22 2.43  10 2.44  13 2.44   3 3.32   4 3.64   4 3.64   8 3.71
  21  0.074  0.250  0.962-  19 2.43  14 2.44   9 2.44   1 3.40   5 3.45   5 3.45   4 3.47
  22  0.307  0.750  0.038-  20 2.43  10 2.44  13 2.44   2 3.40   6 3.45   6 3.45   3 3.47
  23  0.113  0.750  0.476-  17 2.44  11 2.44  16 2.44   7 3.52   7 3.52   8 3.66   3 3.74
  24  0.268  0.250  0.524-  18 2.44  15 2.44  12 2.44   8 3.52   8 3.52   7 3.66   4 3.74
 
  LATTYP: Found a simple orthorhombic cell.
 ALAT       =     6.7778496742
 B/A-ratio  =     1.7117734747
 C/A-ratio  =     3.5423429602
  
  Lattice vectors:
  
 A1 = (   0.0000000000,   6.7778496742,   0.0000000000)
 A2 = (   0.0000000000,   0.0000000000, -11.6021432877)
 A3 = ( -24.0094680786,   0.0000000000,   0.0000000000)


Analysis of symmetry for initial positions (statically):
=====================================================================
 Subroutine PRICEL returns:
 Original cell was already a primitive cell.
 

 Routine SETGRP: Setting up the symmetry group for a 
 simple orthorhombic supercell.


 Subroutine GETGRP returns: Found  4 space group operations
 (whereof  1 operations were pure point group operations)
 out of a pool of  8 trial point group operations.


The static configuration has the point symmetry C_1 .
 The point group associated with its full space group is C_2h.


Analysis of symmetry for dynamics (positions and initial velocities):
=====================================================================
 Subroutine PRICEL returns:
 Original cell was already a primitive cell.
 

 Routine SETGRP: Setting up the symmetry group for a 
 simple orthorhombic supercell.


 Subroutine GETGRP returns: Found  4 space group operations
 (whereof  1 operations were pure point group operations)
 out of a pool of  8 trial point group operations.


The dynamic configuration has the point symmetry C_1 .
 The point group associated with its full space group is C_2h.


Analysis of constrained symmetry for selective dynamics:
=====================================================================
 Subroutine PRICEL returns:
 Original cell was already a primitive cell.
 

 Routine SETGRP: Setting up the symmetry group for a 
 simple orthorhombic supercell.


 Subroutine GETGRP returns: Found  4 space group operations
 (whereof  1 operations were pure point group operations)
 out of a pool of  8 trial point group operations.


The constrained configuration has the point symmetry C_1 .
 The point group associated with its full space group is C_2h.


 Subroutine INISYM returns: Found  4 space group operations
 (whereof  1 operations are pure point group operations),
 and found     1 'primitive' translations

 
 
 KPOINTS: k-density: 8.0                          

Automatic generation of k-mesh.
Space group operators:
 irot       det(A)        alpha          n_x          n_y          n_z        tau_x        tau_y        tau_z
    1     1.000000     0.000000     1.000000     0.000000     0.000000     0.000000     0.000000     0.000000
    2    -1.000000     0.000000     1.000000     0.000000     0.000000    -0.618506     0.000000     0.000000
    3     1.000000   180.000000     0.000000     1.000000     0.000000    -0.618506     0.500000     0.000000
    4    -1.000000   180.000000     0.000000     1.000000     0.000000     0.000000     0.500000     0.000000
 
 Subroutine IBZKPT returns following result:
 ===========================================
 
 Found     15 irreducible k-points:
 
 Following reciprocal coordinates:
            Coordinates               Weight
  0.000000  0.000000  0.000000      1.000000
  0.000000  0.125000  0.000000      2.000000
  0.000000  0.250000  0.000000      2.000000
  0.000000  0.375000  0.000000      2.000000
  0.000000  0.500000  0.000000      1.000000
  0.000000  0.000000  0.200000      2.000000
  0.000000  0.125000  0.200000      4.000000
  0.000000  0.250000  0.200000      4.000000
  0.000000  0.375000  0.200000      4.000000
  0.000000  0.500000  0.200000      2.000000
  0.000000  0.000000  0.400000      2.000000
  0.000000  0.125000  0.400000      4.000000
  0.000000  0.250000  0.400000      4.000000
  0.000000  0.375000  0.400000      4.000000
  0.000000  0.500000  0.400000      2.000000
 
 Following cartesian coordinates:
            Coordinates               Weight
  0.000000  0.000000  0.000000      1.000000
  0.000000  0.018442  0.000000      2.000000
  0.000000  0.036885  0.000000      2.000000
  0.000000  0.055327  0.000000      2.000000
  0.000000  0.073770  0.000000      1.000000
  0.000000  0.000000  0.017238      2.000000
  0.000000  0.018442  0.017238      4.000000
  0.000000  0.036885  0.017238      4.000000
  0.000000  0.055327  0.017238      4.000000
  0.000000  0.073770  0.017238      2.000000
  0.000000  0.000000  0.034476      2.000000
  0.000000  0.018442  0.034476      4.000000
  0.000000  0.036885  0.034476      4.000000
  0.000000  0.055327  0.034476      4.000000
  0.000000  0.073770  0.034476      2.000000
 
 TETIRR: Found    108 inequivalent tetrahedra from      240


--------------------------------------------------------------------------------------------------------




 Dimension of arrays:
   k-points           NKPTS =     15   k-points in BZ     NKDIM =     15   number of bands    NBANDS=     88
   number of dos      NEDOS =    301   number of ions     NIONS =     24
   non local maximal  LDIM  =      6   non local SUM 2l+1 LMDIM =     18
   total plane-waves  NPLWV = 358400
   max r-space proj   IRMAX =   3093   max aug-charges    IRDMAX=  12081
   dimension x,y,z NGX =   140 NGY =   40 NGZ =   64
   dimension x,y,z NGXF=   280 NGYF=   80 NGZF=  128
   support grid    NGXF=   280 NGYF=   80 NGZF=  128
   ions per type =               8  16
   NGX,Y,Z   is equivalent  to a cutoff of   9.69,  9.81,  9.17 a.u.
   NGXF,Y,Z  is equivalent  to a cutoff of  19.39, 19.62, 18.34 a.u.

 SYSTEM =  unknown system                          
 POSCAR =  ba8 si16                                

 Startparameter for this run:
   NWRITE =      2    write-flag & timer
   PREC   = normal    normal or accurate (medium, high low for compatibility)
   ISTART =      0    job   : 0-new  1-cont  2-samecut
   ICHARG =      2    charge: 1-file 2-atom 10-const
   ISPIN  =      1    spin polarized calculation?
   LNONCOLLINEAR =      F non collinear calculations
   LSORBIT =      F    spin-orbit coupling
   INIWAV =      1    electr: 0-lowe 1-rand  2-diag
   LASPH  =      T    aspherical Exc in radial PAW
   METAGGA=      F    non-selfconsistent MetaGGA calc.

 Electronic Relaxation 1
   ENCUT  =  500.0 eV  36.75 Ry    6.06 a.u.  43.77 12.36 21.15*2*pi/ulx,y,z
   ENINI  =  500.0     initial cutoff
   ENAUG  =  351.2 eV  augmentation charge cutoff
   NELM   =    100;   NELMIN=  2; NELMDL= -5     # of ELM steps 
   EDIFF  = 0.1E-05   stopping-criterion for ELM
   LREAL  =      T    real-space projection
   NLSPLINE    = F    spline interpolate recip. space projectors
   LCOMPAT=      F    compatible to vasp.4.4
   GGA_COMPAT  = T    GGA compatible to vasp.4.4-vasp.4.6
   LMAXPAW     = -100 max onsite density
   LMAXMIX     =    2 max onsite mixed and CHGCAR
   VOSKOWN=      0    Vosko Wilk Nusair interpolation
   ROPT   =   -0.00050  -0.00050
 Ionic relaxation
   EDIFFG = -.1E-02   stopping-criterion for IOM
   NSW    =      0    number of steps for IOM
   NBLOCK =      1;   KBLOCK =      1    inner block; outer block 
   IBRION =     -1    ionic relax: 0-MD 1-quasi-New 2-CG
   NFREE  =      0    steps in history (QN), initial steepest desc. (CG)
   ISIF   =      2    stress and relaxation
   IWAVPR =     10    prediction:  0-non 1-charg 2-wave 3-comb
   ISYM   =      2    0-nonsym 1-usesym 2-fastsym
   LCORR  =      T    Harris-Foulkes like correction to forces

   POTIM  = 0.3000    time-step for ionic-motion
   TEIN   =    0.0    initial temperature
   TEBEG  =    0.0;   TEEND  =   0.0 temperature during run
   SMASS  =  -3.00    Nose mass-parameter (am)
   estimated Nose-frequenzy (Omega)   =  0.10E-29 period in steps =****** mass=  -0.132E-25a.u.
   SCALEE = 1.0000    scale energy and forces
   NPACO  =    256;   APACO  = 16.0  distance and # of slots for P.C.
   PSTRESS=    0.0 pullay stress

  Mass of Ions in am
   POMASS = 137.33 28.09
  Ionic Valenz
   ZVAL   =  10.00  4.00
  Atomic Wigner-Seitz radii
   RWIGS  =  -1.00 -1.00
  virtual crystal weights 
   VCA    =   1.00  1.00
   NELECT =     144.0000    total number of electrons
   NUPDOWN=      -1.0000    fix difference up-down

 DOS related values:
   EMIN   =  10.00;   EMAX   =-10.00  energy-range for DOS
   EFERMI =   0.00
   ISMEAR =    -5;   SIGMA  =   0.01  broadening in eV -4-tet -1-fermi 0-gaus

 Electronic relaxation 2 (details)
   IALGO  =     38    algorithm
   LDIAG  =      T    sub-space diagonalisation (order eigenvalues)
   LSUBROT=      F    optimize rotation matrix (better conditioning)
   TURBO    =      0    0=normal 1=particle mesh
   IRESTART =      0    0=no restart 2=restart with 2 vectors
   NREBOOT  =      0    no. of reboots
   NMIN     =      0    reboot dimension
   EREF     =   0.00    reference energy to select bands
   IMIX   =      4    mixing-type and parameters
     AMIX     =   0.40;   BMIX     =  1.00
     AMIX_MAG =   1.60;   BMIX_MAG =  1.00
     AMIN     =   0.10
     WC   =   100.;   INIMIX=   1;  MIXPRE=   1;  MAXMIX= -45

 Intra band minimization:
   WEIMIN = 0.0000     energy-eigenvalue tresh-hold
   EBREAK =  0.28E-08  absolut break condition
   DEPER  =   0.30     relativ break condition  

   TIME   =   0.40     timestep for ELM

  volume/ion in A,a.u.               =      78.67       530.88
  Fermi-wavevector in a.u.,A,eV,Ry     =   0.694264  1.311969  6.558046  0.482003
  Thomas-Fermi vector in A             =   1.776709
 
 Write flags
   LWAVE        =      T    write WAVECAR
   LDOWNSAMPLE  =      F    k-point downsampling of WAVECAR
   LCHARG       =      T    write CHGCAR
   LVTOT        =      F    write LOCPOT, total local potential
   LVHAR        =      F    write LOCPOT, Hartree potential only
   LELF         =      F    write electronic localiz. function (ELF)
   LORBIT       =      0    0 simple, 1 ext, 2 COOP (PROOUT), +10 PAW based schemes


 Dipole corrections
   LMONO  =      F    monopole corrections only (constant potential shift)
   LDIPOL =      F    correct potential (dipole corrections)
   IDIPOL =      0    1-x, 2-y, 3-z, 4-all directions 
   EPSILON=  1.0000000 bulk dielectric constant

 Exchange correlation treatment:
   GGA     =    MK    GGA type
   LEXCH   =    43    internal setting for exchange type
   VOSKOWN=      0    Vosko Wilk Nusair interpolation
   LHFCALC =     F    Hartree Fock is set to
   LHFONE  =     F    Hartree Fock one center treatment
   AEXX    =    0.0000 exact exchange contribution

 vdW DFT:
   LUSE_VDW   =     T    switch on vdW DFT
   Zab_VDW    =******    correlation parameter
   PARAM1     =0.1234
   PARAM2     =0.7114
   PARAM3     =0.0000
   -- rVV10 --
   BPARAM     = 6.3000
   CPARAM     = 0.0093

 Linear response parameters
   LEPSILON=     F    determine dielectric tensor
   LRPA    =     F    only Hartree local field effects (RPA)
   LNABLA  =     F    use nabla operator in PAW spheres
   LVEL    =     F    velocity operator in full k-point grid
   LINTERFAST=   F  fast interpolation
   KINTER  =     0    interpolate to denser k-point grid
   CSHIFT  =0.1000    complex shift for real part using Kramers Kronig
   OMEGAMAX=  -1.0    maximum frequency
   DEG_THRESHOLD= 0.2000000E-02 threshold for treating states as degnerate
   RTIME   =   -0.100 relaxation time in fs
  (WPLASMAI=    0.000 imaginary part of plasma frequency in eV, 0.658/RTIME)
   DFIELD  = 0.0000000 0.0000000 0.0000000 field for delta impulse in time
 
 Orbital magnetization related:
   ORBITALMAG=     F  switch on orbital magnetization
   LCHIMAG   =     F  perturbation theory with respect to B field
   DQ        =  0.001000  dq finite difference perturbation B field
   LLRAUG    =     F  two centre corrections for induced B field



--------------------------------------------------------------------------------------------------------


 Static calculation
 charge density and potential will be updated during run
 non-spin polarized calculation
 Variant of blocked Davidson
 Davidson routine will perform the subspace rotation
 perform sub-space diagonalisation
    after iterative eigenvector-optimisation
 modified Broyden-mixing scheme, WC =      100.0
 initial mixing is a Kerker type mixing with AMIX =  0.4000 and BMIX =      1.0000
 Hartree-type preconditioning will be used
 using additional bands           16
 real space projection scheme for non local part
 use partial core corrections
 calculate Harris-corrections to forces 
   (improved forces if not selfconsistent)
 use gradient corrections 
 use of overlap-Matrix (Vanderbilt PP)
 Fermi weights with tetrahedron method with Bloechl corrections


--------------------------------------------------------------------------------------------------------


  energy-cutoff  :      500.00
  volume of cell :     1888.05
      direct lattice vectors                 reciprocal lattice vectors
    24.009468079  0.000000000  0.000000000     0.041650236  0.000000000  0.000000000
     0.000000000  6.777849674  0.000000000     0.000000000  0.147539419  0.000000000
     0.000000000  0.000000000 11.602143288     0.000000000  0.000000000  0.086190971

  length of vectors
    24.009468079  6.777849674 11.602143288     0.041650236  0.147539419  0.086190971


 
 k-points in units of 2pi/SCALE and weight: k-density: 8.0                          
   0.00000000  0.00000000  0.00000000       0.025
   0.00000000  0.01844243  0.00000000       0.050
   0.00000000  0.03688485  0.00000000       0.050
   0.00000000  0.05532728  0.00000000       0.050
   0.00000000  0.07376971  0.00000000       0.025
   0.00000000  0.00000000  0.01723819       0.050
   0.00000000  0.01844243  0.01723819       0.100
   0.00000000  0.03688485  0.01723819       0.100
   0.00000000  0.05532728  0.01723819       0.100
   0.00000000  0.07376971  0.01723819       0.050
   0.00000000  0.00000000  0.03447639       0.050
   0.00000000  0.01844243  0.03447639       0.100
   0.00000000  0.03688485  0.03447639       0.100
   0.00000000  0.05532728  0.03447639       0.100
   0.00000000  0.07376971  0.03447639       0.050
 
 k-points in reciprocal lattice and weights: k-density: 8.0                          
   0.00000000  0.00000000  0.00000000       0.025
   0.00000000  0.12500000  0.00000000       0.050
   0.00000000  0.25000000  0.00000000       0.050
   0.00000000  0.37500000  0.00000000       0.050
   0.00000000  0.50000000  0.00000000       0.025
   0.00000000  0.00000000  0.20000000       0.050
   0.00000000  0.12500000  0.20000000       0.100
   0.00000000  0.25000000  0.20000000       0.100
   0.00000000  0.37500000  0.20000000       0.100
   0.00000000  0.50000000  0.20000000       0.050
   0.00000000  0.00000000  0.40000000       0.050
   0.00000000  0.12500000  0.40000000       0.100
   0.00000000  0.25000000  0.40000000       0.100
   0.00000000  0.37500000  0.40000000       0.100
   0.00000000  0.50000000  0.40000000       0.050
 
 position of ions in fractional coordinates (direct lattice) 
   0.00569361  0.25000000  0.70592566
   0.37580039  0.75000002  0.29407434
   0.18192962  0.75000002  0.18670154
   0.19956438  0.25000000  0.81329843
   0.05978014  0.75000002  0.91750176
   0.32171386  0.25000000  0.08249822
   0.12784309  0.25000000  0.39877903
   0.25365091  0.75000002  0.60122101
   0.07289913  0.07203296  0.14527279
   0.30859487  0.92796703  0.85472719
   0.11472410  0.92896934  0.65914953
   0.26676990  0.07103065  0.34085047
   0.30859487  0.57203297  0.85472719
   0.07289913  0.42796703  0.14527279
   0.26676990  0.42896934  0.34085047
   0.11472410  0.57103066  0.65914953
   0.03110981  0.75000002  0.60008440
   0.35038419  0.25000000  0.39991560
   0.15651343  0.25000000  0.08483795
   0.22498058  0.75000002  0.91516203
   0.07418398  0.25000000  0.96244458
   0.30731002  0.75000002  0.03755543
   0.11343925  0.75000002  0.47643692
   0.26805475  0.25000000  0.52356300
 
 position of ions in cartesian coordinates  (Angst):
   0.13670066  1.69446242  8.19025061
   9.02276745  5.08338737  3.41189268
   4.36803341  5.08338737  2.16613807
   4.79143467  1.69446242  9.43600497
   1.43528938  5.08338737 10.64498693
   7.72417870  1.69446242  0.95715612
   3.06944466  1.69446242  4.62669144
   6.09002342  5.08338737  6.97545233
   1.75026941  0.48822861  1.68547567
   7.40919867  6.28962101  9.91666738
   2.75446463  6.29641456  7.64754727
   6.40500345  0.48143505  3.95459602
   7.40919867  3.87715350  9.91666738
   1.75026941  2.90069617  1.68547567
   6.40500345  2.90748972  3.95459602
   2.75446463  3.87035995  7.64754727
   0.74692994  5.08338737  6.96226517
   8.41253796  1.69446242  4.63987812
   3.75780416  1.69446242  0.98430202
   5.40166416  5.08338737 10.61784103
   1.78111780  1.69446242 11.16641996
   7.37835016  5.08338737  0.43572350
   2.72361612  5.08338737  5.52768941
   6.43585196  1.69446242  6.07445292
 


--------------------------------------------------------------------------------------------------------


 k-point  1 :   0.0000 0.0000 0.0000  plane waves:   47989
 k-point  2 :   0.0000 0.1250 0.0000  plane waves:   47929
 k-point  3 :   0.0000 0.2500 0.0000  plane waves:   47901
 k-point  4 :   0.0000 0.3750 0.0000  plane waves:   47910
 k-point  5 :   0.0000 0.5000 0.0000  plane waves:   47868
 k-point  6 :   0.0000 0.0000 0.2000  plane waves:   48006
 k-point  7 :   0.0000 0.1250 0.2000  plane waves:   47967
 k-point  8 :   0.0000 0.2500 0.2000  plane waves:   47907
 k-point  9 :   0.0000 0.3750 0.2000  plane waves:   47884
 k-point 10 :   0.0000 0.5000 0.2000  plane waves:   47884
 k-point 11 :   0.0000 0.0000 0.4000  plane waves:   47922
 k-point 12 :   0.0000 0.1250 0.4000  plane waves:   47954
 k-point 13 :   0.0000 0.2500 0.4000  plane waves:   47967
 k-point 14 :   0.0000 0.3750 0.4000  plane waves:   47928
 k-point 15 :   0.0000 0.5000 0.4000  plane waves:   47890

 maximum and minimum number of plane-waves per node :     12077    11868

 maximum number of plane-waves:     48006
 maximum index in each direction: 
   IXMAX=   43   IYMAX=   12   IZMAX=   21
   IXMIN=  -43   IYMIN=  -12   IZMIN=  -21


 real space projection operators:
  total allocation   :       4531.50 KBytes
  max/ min on nodes  :       1135.48       1129.55


 parallel 3D FFT for wavefunctions:
    minimum data exchange during FFTs selected (reduces bandwidth)
 parallel 3D FFT for charge:
    minimum data exchange during FFTs selected (reduces bandwidth)


 total amount of memory used by VASP MPI-rank0    79346. kBytes
=======================================================================

   base      :      30000. kBytes
   nonlr-proj:       2640. kBytes
   fftplans  :       5898. kBytes
   grid      :       8824. kBytes
   one-center:         93. kBytes
   wavefun   :      31891. kBytes
 
     INWAV:  cpu time    0.0000: real time    0.0000
 Broyden mixing: mesh for mixing (old mesh)
   NGX = 87   NGY = 25   NGZ = 43
  (NGX  =280   NGY  = 80   NGZ  =128)
  gives a total of  93525 points

 initial charge density was supplied:
 charge density of overlapping atoms calculated
 number of electron     144.0000000 magnetization 
 keeping initial charge density in first step


--------------------------------------------------------------------------------------------------------


 Maximum index for non-local projection operator          753
 Maximum index for augmentation-charges          601 (set IRDMAX)


--------------------------------------------------------------------------------------------------------


 First call to EWALD:  gamma=   0.143
 Maximum number of real-space cells 2x 5x 3
 Maximum number of reciprocal cells 5x 2x 3

    FEWALD:  cpu time    0.0022: real time    0.0022


--------------------------------------- Iteration      1(   1)  ---------------------------------------


    POTLOK:  cpu time14148.9230: real time14182.3242
    SETDIJ:  cpu time    0.0068: real time    0.0073
     EDDAV:  cpu time    3.1201: real time    3.1445
 BZINTS: Fermi energy:  6.853377;144.000000 electrons
         Band energy:-475.994473;  BLOECHL correction: -0.028117
       DOS:  cpu time    0.0130: real time    0.0130
    --------------------------------------------
      LOOP:  cpu time14152.0630: real time14185.4890

 eigenvalue-minimisations  :  2768
 total energy-change (2. order) : 0.1198698E+04  (-0.4771657E+04)
 number of electron     144.0000000 magnetization 
 augmentation part      144.0000000 magnetization 

 Free energy of the ion-electron system (eV)
  ---------------------------------------------------
  alpha Z        PSCENC =       170.45750602
  Ewald energy   TEWEN  =     12149.07610932
  -Hartree energ DENC   =    -18261.97095239
  -exchange      EXHF   =         0.00000000
  -V(xc)+E(xc)   XCENC  =        37.75621937
  PAW double counting   =      3696.57165193    -3386.34934349
  entropy T*S    EENTRO =         0.00000000
  eigenvalues    EBANDS =      -475.99447323
  atomic energy  EATOM  =      7269.15145414
  Solvation  Ediel_sol  =         0.00000000
  ---------------------------------------------------
  free energy    TOTEN  =      1198.69817167 eV

  energy without entropy =     1198.69817167  energy(sigma->0) =     1198.69817167


--------------------------------------------------------------------------------------------------------




--------------------------------------- Iteration      1(   2)  ---------------------------------------


     EDDAV:  cpu time    3.7667: real time    3.8617
 BZINTS: Fermi energy: -1.984466;144.000000 electrons
         Band energy:***********;  BLOECHL correction:  0.000000
       DOS:  cpu time    0.0024: real time    0.0023
    --------------------------------------------
      LOOP:  cpu time    3.7691: real time    3.8641

 eigenvalue-minimisations  :  3856
 total energy-change (2. order) :-0.1122618E+04  (-0.1093806E+04)
 number of electron     144.0000000 magnetization 
 augmentation part      144.0000000 magnetization 

 Free energy of the ion-electron system (eV)
  ---------------------------------------------------
  alpha Z        PSCENC =       170.45750602
  Ewald energy   TEWEN  =     12149.07610932
  -Hartree energ DENC   =    -18261.97095239
  -exchange      EXHF   =         0.00000000
  -V(xc)+E(xc)   XCENC  =        37.75621937
  PAW double counting   =      3696.57165193    -3386.34934349
  entropy T*S    EENTRO =         0.00000000
  eigenvalues    EBANDS =     -1598.61232149
  atomic energy  EATOM  =      7269.15145414
  Solvation  Ediel_sol  =         0.00000000
  ---------------------------------------------------
  free energy    TOTEN  =        76.08032341 eV

  energy without entropy =       76.08032341  energy(sigma->0) =       76.08032341


--------------------------------------------------------------------------------------------------------




--------------------------------------- Iteration      1(   3)  ---------------------------------------


     EDDAV:  cpu time    2.8858: real time    2.8972
 BZINTS: Fermi energy: -3.347685;144.000000 electrons
         Band energy:***********;  BLOECHL correction:  0.000000
       DOS:  cpu time    0.0026: real time    0.0026
    --------------------------------------------
      LOOP:  cpu time    2.8884: real time    2.8997

 eigenvalue-minimisations  :  3232
 total energy-change (2. order) :-0.1697259E+03  (-0.1690293E+03)
 number of electron     144.0000000 magnetization 
 augmentation part      144.0000000 magnetization 

 Free energy of the ion-electron system (eV)
  ---------------------------------------------------
  alpha Z        PSCENC =       170.45750602
  Ewald energy   TEWEN  =     12149.07610932
  -Hartree energ DENC   =    -18261.97095239
  -exchange      EXHF   =         0.00000000
  -V(xc)+E(xc)   XCENC  =        37.75621937
  PAW double counting   =      3696.57165193    -3386.34934349
  entropy T*S    EENTRO =         0.00000000
  eigenvalues    EBANDS =     -1768.33820837
  atomic energy  EATOM  =      7269.15145414
  Solvation  Ediel_sol  =         0.00000000
  ---------------------------------------------------
  free energy    TOTEN  =       -93.64556347 eV

  energy without entropy =      -93.64556347  energy(sigma->0) =      -93.64556347


--------------------------------------------------------------------------------------------------------




--------------------------------------- Iteration      1(   4)  ---------------------------------------


     EDDAV:  cpu time    3.3513: real time    3.3996
 BZINTS: Fermi energy: -3.396663;144.000000 electrons
         Band energy:***********;  BLOECHL correction:  0.000000
       DOS:  cpu time    0.0024: real time    0.0024
    --------------------------------------------
      LOOP:  cpu time    3.3537: real time    3.4020

 eigenvalue-minimisations  :  3752
 total energy-change (2. order) :-0.6002509E+01  (-0.5986471E+01)
 number of electron     144.0000000 magnetization 
 augmentation part      144.0000000 magnetization 

 Free energy of the ion-electron system (eV)
  ---------------------------------------------------
  alpha Z        PSCENC =       170.45750602
  Ewald energy   TEWEN  =     12149.07610932
  -Hartree energ DENC   =    -18261.97095239
  -exchange      EXHF   =         0.00000000
  -V(xc)+E(xc)   XCENC  =        37.75621937
  PAW double counting   =      3696.57165193    -3386.34934349
  entropy T*S    EENTRO =         0.00000000
  eigenvalues    EBANDS =     -1774.34071747
  atomic energy  EATOM  =      7269.15145414
  Solvation  Ediel_sol  =         0.00000000
  ---------------------------------------------------
  free energy    TOTEN  =       -99.64807257 eV

  energy without entropy =      -99.64807257  energy(sigma->0) =      -99.64807257


--------------------------------------------------------------------------------------------------------




--------------------------------------- Iteration      1(   5)  ---------------------------------------


     EDDAV:  cpu time    3.6056: real time    3.6332
 BZINTS: Fermi energy: -3.439671;144.000000 electrons
         Band energy:***********;  BLOECHL correction:  0.000000
       DOS:  cpu time    0.0021: real time    0.0021
    CHARGE:  cpu time    0.1524: real time    0.1528
    MIXING:  cpu time    0.0053: real time    0.0223
    --------------------------------------------
      LOOP:  cpu time    3.7654: real time    3.8104

 eigenvalue-minimisations  :  4168
 total energy-change (2. order) :-0.2730691E+00  (-0.2729846E+00)
 number of electron     143.9999989 magnetization 
 augmentation part      -17.6670757 magnetization 

 Broyden mixing:
  rms(total) = 0.90286E+00    rms(broyden)= 0.90286E+00
  rms(prec ) = 0.11841E+01
  weight for this iteration     100.00

 Free energy of the ion-electron system (eV)
  ---------------------------------------------------
  alpha Z        PSCENC =       170.45750602
  Ewald energy   TEWEN  =     12149.07610932
  -Hartree energ DENC   =    -18261.97095239
  -exchange      EXHF   =         0.00000000
  -V(xc)+E(xc)   XCENC  =        37.75621937
  PAW double counting   =      3696.57165193    -3386.34934349
  entropy T*S    EENTRO =         0.00000000
  eigenvalues    EBANDS =     -1774.61378653
  atomic energy  EATOM  =      7269.15145414
  Solvation  Ediel_sol  =         0.00000000
  ---------------------------------------------------
  free energy    TOTEN  =       -99.92114163 eV

  energy without entropy =      -99.92114163  energy(sigma->0) =      -99.92114163


--------------------------------------------------------------------------------------------------------




--------------------------------------- Iteration      1(   6)  ---------------------------------------


    POTLOK:  cpu time    2.5333: real time    2.5488
    SETDIJ:  cpu time    0.0051: real time    0.0051
     EDDAV:  cpu time    2.6887: real time    2.6951
 BZINTS: Fermi energy: -2.291796;144.000000 electrons
         Band energy:***********;  BLOECHL correction:  0.000000
       DOS:  cpu time    0.0024: real time    0.0024
    CHARGE:  cpu time    0.1433: real time    0.1436
    MIXING:  cpu time    0.0103: real time    0.0104
    --------------------------------------------
      LOOP:  cpu time    5.3831: real time    5.4054

 eigenvalue-minimisations  :  3008
 total energy-change (2. order) : 0.8058202E+01  (-0.2015714E+01)
 number of electron     143.9999988 magnetization 
 augmentation part      -17.5517843 magnetization 

 Broyden mixing:
  rms(total) = 0.46229E+00    rms(broyden)= 0.46229E+00
  rms(prec ) = 0.58193E+00
  weight for this iteration     100.00

 eigenvalues of (default mixing * dielectric matrix)
  average eigenvalue GAMMA=   1.5381
  1.5381

 Free energy of the ion-electron system (eV)
  ---------------------------------------------------
  alpha Z        PSCENC =       170.45750602
  Ewald energy   TEWEN  =     12149.07610932
  -Hartree energ DENC   =    -18359.08051054
  -exchange      EXHF   =         0.00000000
  -V(xc)+E(xc)   XCENC  =        40.36726030
  PAW double counting   =      3732.70247040    -3429.53951706
  entropy T*S    EENTRO =         0.00000000
  eigenvalues    EBANDS =     -1664.99771250
  atomic energy  EATOM  =      7269.15145414
  Solvation  Ediel_sol  =         0.00000000
  ---------------------------------------------------
  free energy    TOTEN  =       -91.86293991 eV

  energy without entropy =      -91.86293991  energy(sigma->0) =      -91.86293991


--------------------------------------------------------------------------------------------------------




--------------------------------------- Iteration      1(   7)  ---------------------------------------


    POTLOK:  cpu time    2.4780: real time    2.4938
    SETDIJ:  cpu time    0.0526: real time    0.0528
     EDDAV:  cpu time    2.9577: real time    2.9647
 BZINTS: Fermi energy: -1.429521;144.000000 electrons
         Band energy:***********;  BLOECHL correction:  0.000000
       DOS:  cpu time    0.0021: real time    0.0021
    CHARGE:  cpu time    0.1532: real time    0.1535
    MIXING:  cpu time    0.0057: real time    0.0059
    --------------------------------------------
      LOOP:  cpu time    5.6493: real time    5.6728

 eigenvalue-minimisations  :  3480
 total energy-change (2. order) : 0.1309253E+01  (-0.9582480E+00)
 number of electron     143.9999988 magnetization 
 augmentation part      -17.6171400 magnetization 

 Broyden mixing:
  rms(total) = 0.24507E+00    rms(broyden)= 0.24507E+00
  rms(prec ) = 0.29422E+00
  weight for this iteration     100.00

 eigenvalues of (default mixing * dielectric matrix)
  average eigenvalue GAMMA=   1.8431
  1.8431  1.8431

 Free energy of the ion-electron system (eV)
  ---------------------------------------------------
  alpha Z        PSCENC =       170.45750602
  Ewald energy   TEWEN  =     12149.07610932
  -Hartree energ DENC   =    -18437.68999704
  -exchange      EXHF   =         0.00000000
  -V(xc)+E(xc)   XCENC  =        42.56007607
  PAW double counting   =      3778.90955422    -3481.49766764
  entropy T*S    EENTRO =         0.00000000
  eigenvalues    EBANDS =     -1581.52072162
  atomic energy  EATOM  =      7269.15145414
  Solvation  Ediel_sol  =         0.00000000
  ---------------------------------------------------
  free energy    TOTEN  =       -90.55368653 eV

  energy without entropy =      -90.55368653  energy(sigma->0) =      -90.55368653


--------------------------------------------------------------------------------------------------------




--------------------------------------- Iteration      1(   8)  ---------------------------------------


    POTLOK:  cpu time    2.4827: real time    2.4968
    SETDIJ:  cpu time    0.0445: real time    0.0446
     EDDAV:  cpu time    2.6493: real time    2.6556
 BZINTS: Fermi energy: -1.290033;144.000000 electrons
         Band energy:***********;  BLOECHL correction:  0.000000
       DOS:  cpu time    0.0026: real time    0.0026
    CHARGE:  cpu time    0.1482: real time    0.1486
    MIXING:  cpu time    0.0051: real time    0.0054
    --------------------------------------------
      LOOP:  cpu time    5.3324: real time    5.3535

 eigenvalue-minimisations  :  3120
 total energy-change (2. order) : 0.2554502E+00  (-0.3492455E+00)
 number of electron     143.9999988 magnetization 
 augmentation part      -17.7305912 magnetization 

 Broyden mixing:
  rms(total) = 0.11560E+00    rms(broyden)= 0.11560E+00
  rms(prec ) = 0.18814E+00
  weight for this iteration     100.00

 eigenvalues of (default mixing * dielectric matrix)
  average eigenvalue GAMMA=   1.6786
  2.6348  1.2005  1.2005

 Free energy of the ion-electron system (eV)
  ---------------------------------------------------
  alpha Z        PSCENC =       170.45750602
  Ewald energy   TEWEN  =     12149.07610932
  -Hartree energ DENC   =    -18471.10035117
  -exchange      EXHF   =         0.00000000
  -V(xc)+E(xc)   XCENC  =        43.50095662
  PAW double counting   =      3826.97855983    -3531.41191544
  entropy T*S    EENTRO =         0.00000000
  eigenvalues    EBANDS =     -1546.95055564
  atomic energy  EATOM  =      7269.15145414
  Solvation  Ediel_sol  =         0.00000000
  ---------------------------------------------------
  free energy    TOTEN  =       -90.29823632 eV

  energy without entropy =      -90.29823632  energy(sigma->0) =      -90.29823632


--------------------------------------------------------------------------------------------------------




--------------------------------------- Iteration      1(   9)  ---------------------------------------


    POTLOK:  cpu time    2.5607: real time    2.5768
    SETDIJ:  cpu time    0.0048: real time    0.0048
     EDDAV:  cpu time    2.8479: real time    2.8547
 BZINTS: Fermi energy: -0.929626;144.000000 electrons
         Band energy:***********;  BLOECHL correction:  0.000000
       DOS:  cpu time    0.0023: real time    0.0023
    CHARGE:  cpu time    0.1361: real time    0.1364
    MIXING:  cpu time    0.0055: real time    0.0055
    --------------------------------------------
      LOOP:  cpu time    5.5573: real time    5.5806

 eigenvalue-minimisations  :  3112
 total energy-change (2. order) : 0.2646755E+00  (-0.1169151E+00)
 number of electron     143.9999988 magnetization 
 augmentation part      -17.6992260 magnetization 

 Broyden mixing:
  rms(total) = 0.55351E-01    rms(broyden)= 0.55350E-01
  rms(prec ) = 0.76920E-01
  weight for this iteration     100.00

 eigenvalues of (default mixing * dielectric matrix)
  average eigenvalue GAMMA=   1.4056
  2.5708  1.2108  1.2108  0.6302

 Free energy of the ion-electron system (eV)
  ---------------------------------------------------
  alpha Z        PSCENC =       170.45750602
  Ewald energy   TEWEN  =     12149.07610932
  -Hartree energ DENC   =    -18512.24998305
  -exchange      EXHF   =         0.00000000
  -V(xc)+E(xc)   XCENC  =        44.39870608
  PAW double counting   =      3838.41496117    -3544.21204860
  entropy T*S    EENTRO =         0.00000000
  eigenvalues    EBANDS =     -1505.07026591
  atomic energy  EATOM  =      7269.15145414
  Solvation  Ediel_sol  =         0.00000000
  ---------------------------------------------------
  free energy    TOTEN  =       -90.03356083 eV

  energy without entropy =      -90.03356083  energy(sigma->0) =      -90.03356083


--------------------------------------------------------------------------------------------------------




--------------------------------------- Iteration      1(  10)  ---------------------------------------


    POTLOK:  cpu time    2.5068: real time    2.5233
    SETDIJ:  cpu time    0.0242: real time    0.0243
     EDDAV:  cpu time    3.2992: real time    3.3070
 BZINTS: Fermi energy: -0.806619;144.000000 electrons
         Band energy:***********;  BLOECHL correction:  0.000000
       DOS:  cpu time    0.0025: real time    0.0025
    CHARGE:  cpu time    0.1505: real time    0.1509
    MIXING:  cpu time    0.0047: real time    0.0047
    --------------------------------------------
      LOOP:  cpu time    5.9879: real time    6.0126

 eigenvalue-minimisations  :  3544
 total energy-change (2. order) : 0.1194548E-01  (-0.2243827E-01)
 number of electron     143.9999988 magnetization 
 augmentation part      -17.7151305 magnetization 

 Broyden mixing:
  rms(total) = 0.40102E-01    rms(broyden)= 0.40102E-01
  rms(prec ) = 0.59977E-01
  weight for this iteration     100.00

 eigenvalues of (default mixing * dielectric matrix)
  average eigenvalue GAMMA=   1.5598
  2.4497  2.3153  1.1487  0.9427  0.9427

 Free energy of the ion-electron system (eV)
  ---------------------------------------------------
  alpha Z        PSCENC =       170.45750602
  Ewald energy   TEWEN  =     12149.07610932
  -Hartree energ DENC   =    -18519.54505907
  -exchange      EXHF   =         0.00000000
  -V(xc)+E(xc)   XCENC  =        44.39672847
  PAW double counting   =      3833.46715932    -3538.92659016
  entropy T*S    EENTRO =         0.00000000
  eigenvalues    EBANDS =     -1498.09892339
  atomic energy  EATOM  =      7269.15145414
  Solvation  Ediel_sol  =         0.00000000
  ---------------------------------------------------
  free energy    TOTEN  =       -90.02161536 eV

  energy without entropy =      -90.02161536  energy(sigma->0) =      -90.02161536


--------------------------------------------------------------------------------------------------------




--------------------------------------- Iteration      1(  11)  ---------------------------------------


    POTLOK:  cpu time    2.5023: real time    2.5187
    SETDIJ:  cpu time    0.0267: real time    0.0267
     EDDAV:  cpu time    3.2807: real time    3.2898
 BZINTS: Fermi energy: -0.790203;144.000000 electrons
         Band energy:***********;  BLOECHL correction:  0.000000
       DOS:  cpu time    0.0021: real time    0.0021
    CHARGE:  cpu time    0.1685: real time    0.1689
    MIXING:  cpu time    0.0057: real time    0.0057
    --------------------------------------------
      LOOP:  cpu time    5.9860: real time    6.0119

 eigenvalue-minimisations  :  3184
 total energy-change (2. order) : 0.6875011E-01  (-0.6381551E-02)
 number of electron     143.9999988 magnetization 
 augmentation part      -17.7190720 magnetization 

 Broyden mixing:
  rms(total) = 0.15791E-01    rms(broyden)= 0.15791E-01
  rms(prec ) = 0.31136E-01
  weight for this iteration     100.00

 eigenvalues of (default mixing * dielectric matrix)
  average eigenvalue GAMMA=   1.5923
  2.7408  2.7408  1.2637  0.9015  0.9536  0.9536

 Free energy of the ion-electron system (eV)
  ---------------------------------------------------
  alpha Z        PSCENC =       170.45750602
  Ewald energy   TEWEN  =     12149.07610932
  -Hartree energ DENC   =    -18535.41647489
  -exchange      EXHF   =         0.00000000
  -V(xc)+E(xc)   XCENC  =        44.59243692
  PAW double counting   =      3834.09746654    -3539.28015634
  entropy T*S    EENTRO =         0.00000000
  eigenvalues    EBANDS =     -1482.63120696
  atomic energy  EATOM  =      7269.15145414
  Solvation  Ediel_sol  =         0.00000000
  ---------------------------------------------------
  free energy    TOTEN  =       -89.95286525 eV

  energy without entropy =      -89.95286525  energy(sigma->0) =      -89.95286525


--------------------------------------------------------------------------------------------------------




--------------------------------------- Iteration      1(  12)  ---------------------------------------


    POTLOK:  cpu time    2.5566: real time    2.5730
    SETDIJ:  cpu time    0.0024: real time    0.0024
     EDDAV:  cpu time    3.2246: real time    3.2323
 BZINTS: Fermi energy: -0.723231;144.000000 electrons
         Band energy:***********;  BLOECHL correction:  0.000000
       DOS:  cpu time    0.0019: real time    0.0019
    CHARGE:  cpu time    0.1539: real time    0.1542
    MIXING:  cpu time    0.0050: real time    0.0050
    --------------------------------------------
      LOOP:  cpu time    5.9444: real time    5.9688

 eigenvalue-minimisations  :  3376
 total energy-change (2. order) :-0.3400342E-03  (-0.1434899E-02)
 number of electron     143.9999988 magnetization 
 augmentation part      -17.7137770 magnetization 

 Broyden mixing:
  rms(total) = 0.11436E-01    rms(broyden)= 0.11436E-01
  rms(prec ) = 0.19743E-01
  weight for this iteration     100.00

 eigenvalues of (default mixing * dielectric matrix)
  average eigenvalue GAMMA=   1.7173
  3.4003  2.6223  1.9937  1.1183  1.1183  0.8841  0.8841

 Free energy of the ion-electron system (eV)
  ---------------------------------------------------
  alpha Z        PSCENC =       170.45750602
  Ewald energy   TEWEN  =     12149.07610932
  -Hartree energ DENC   =    -18546.87376938
  -exchange      EXHF   =         0.00000000
  -V(xc)+E(xc)   XCENC  =        44.64250170
  PAW double counting   =      3831.62490247    -3536.65010302
  entropy T*S    EENTRO =         0.00000000
  eigenvalues    EBANDS =     -1471.38180652
  atomic energy  EATOM  =      7269.15145414
  Solvation  Ediel_sol  =         0.00000000
  ---------------------------------------------------
  free energy    TOTEN  =       -89.95320528 eV

  energy without entropy =      -89.95320528  energy(sigma->0) =      -89.95320528


--------------------------------------------------------------------------------------------------------




--------------------------------------- Iteration      1(  13)  ---------------------------------------


    POTLOK:  cpu time    2.7312: real time    2.7482
    SETDIJ:  cpu time    0.0017: real time    0.0017
     EDDAV:  cpu time    3.3089: real time    3.3168
 BZINTS: Fermi energy: -0.595407;144.000000 electrons
         Band energy:***********;  BLOECHL correction:  0.000000
       DOS:  cpu time    0.0023: real time    0.0023
    CHARGE:  cpu time    0.1557: real time    0.1561
    MIXING:  cpu time    0.0086: real time    0.0087
    --------------------------------------------
      LOOP:  cpu time    6.2085: real time    6.2338

 eigenvalue-minimisations  :  3536
 total energy-change (2. order) :-0.1117996E-02  (-0.6753493E-03)
 number of electron     143.9999988 magnetization 
 augmentation part      -17.7152139 magnetization 

 Broyden mixing:
  rms(total) = 0.56540E-02    rms(broyden)= 0.56540E-02
  rms(prec ) = 0.97887E-02
  weight for this iteration     100.00

 eigenvalues of (default mixing * dielectric matrix)
  average eigenvalue GAMMA=   1.7764
  3.9567  2.8352  2.3455  1.2199  1.2199  0.8894  0.8721  0.8721

 Free energy of the ion-electron system (eV)
  ---------------------------------------------------
  alpha Z        PSCENC =       170.45750602
  Ewald energy   TEWEN  =     12149.07610932
  -Hartree energ DENC   =    -18555.78178429
  -exchange      EXHF   =         0.00000000
  -V(xc)+E(xc)   XCENC  =        44.68382758
  PAW double counting   =      3830.16207852    -3535.27648666
  entropy T*S    EENTRO =         0.00000000
  eigenvalues    EBANDS =     -1462.42702790
  atomic energy  EATOM  =      7269.15145414
  Solvation  Ediel_sol  =         0.00000000
  ---------------------------------------------------
  free energy    TOTEN  =       -89.95432328 eV

  energy without entropy =      -89.95432328  energy(sigma->0) =      -89.95432328


--------------------------------------------------------------------------------------------------------




--------------------------------------- Iteration      1(  14)  ---------------------------------------


    POTLOK:  cpu time    2.5285: real time    2.5447
    SETDIJ:  cpu time    0.0130: real time    0.0130
     EDDAV:  cpu time    3.1666: real time    3.1742
 BZINTS: Fermi energy: -0.578478;144.000000 electrons
         Band energy:***********;  BLOECHL correction:  0.000000
       DOS:  cpu time    0.0024: real time    0.0024
    CHARGE:  cpu time    0.1935: real time    0.1939
    MIXING:  cpu time    0.0060: real time    0.0060
    --------------------------------------------
      LOOP:  cpu time    5.9100: real time    5.9343

 eigenvalue-minimisations  :  2920
 total energy-change (2. order) : 0.6868131E-02  (-0.2515169E-03)
 number of electron     143.9999988 magnetization 
 augmentation part      -17.7152793 magnetization 

 Broyden mixing:
  rms(total) = 0.45677E-02    rms(broyden)= 0.45677E-02
  rms(prec ) = 0.73953E-02
  weight for this iteration     100.00

 eigenvalues of (default mixing * dielectric matrix)
  average eigenvalue GAMMA=   1.8638
  4.5355  3.0834  2.0289  2.0289  0.8890  0.8890  1.1426  1.1426  1.0343

 Free energy of the ion-electron system (eV)
  ---------------------------------------------------
  alpha Z        PSCENC =       170.45750602
  Ewald energy   TEWEN  =     12149.07610932
  -Hartree energ DENC   =    -18559.36859845
  -exchange      EXHF   =         0.00000000
  -V(xc)+E(xc)   XCENC  =        44.69799601
  PAW double counting   =      3829.48663829    -3534.60967524
  entropy T*S    EENTRO =         0.00000000
  eigenvalues    EBANDS =     -1458.83888524
  atomic energy  EATOM  =      7269.15145414
  Solvation  Ediel_sol  =         0.00000000
  ---------------------------------------------------
  free energy    TOTEN  =       -89.94745515 eV

  energy without entropy =      -89.94745515  energy(sigma->0) =      -89.94745515


--------------------------------------------------------------------------------------------------------




--------------------------------------- Iteration      1(  15)  ---------------------------------------


    POTLOK:  cpu time    2.8174: real time    2.8346
    SETDIJ:  cpu time    0.0018: real time    0.0018
     EDDAV:  cpu time    2.9790: real time    2.9861
 BZINTS: Fermi energy: -0.569730;144.000000 electrons
         Band energy:***********;  BLOECHL correction:  0.000000
       DOS:  cpu time    0.0025: real time    0.0025
    CHARGE:  cpu time    0.1970: real time    0.1974
    MIXING:  cpu time    0.0058: real time    0.0058
    --------------------------------------------
      LOOP:  cpu time    6.0034: real time    6.0282

 eigenvalue-minimisations  :  2896
 total energy-change (2. order) : 0.4443797E-03  (-0.2412963E-03)
 number of electron     143.9999988 magnetization 
 augmentation part      -17.7164701 magnetization 

 Broyden mixing:
  rms(total) = 0.17059E-02    rms(broyden)= 0.17059E-02
  rms(prec ) = 0.33775E-02
  weight for this iteration     100.00

 eigenvalues of (default mixing * dielectric matrix)
  average eigenvalue GAMMA=   1.9338
  5.4299  3.2382  2.5703  1.7786  0.8896  0.8896  1.2747  1.2747  0.9964  0.9964

 Free energy of the ion-electron system (eV)
  ---------------------------------------------------
  alpha Z        PSCENC =       170.45750602
  Ewald energy   TEWEN  =     12149.07610932
  -Hartree energ DENC   =    -18561.44213964
  -exchange      EXHF   =         0.00000000
  -V(xc)+E(xc)   XCENC  =        44.69564056
  PAW double counting   =      3829.94719369    -3535.05192931
  entropy T*S    EENTRO =         0.00000000
  eigenvalues    EBANDS =     -1456.78084553
  atomic energy  EATOM  =      7269.15145414
  Solvation  Ediel_sol  =         0.00000000
  ---------------------------------------------------
  free energy    TOTEN  =       -89.94701077 eV

  energy without entropy =      -89.94701077  energy(sigma->0) =      -89.94701077


--------------------------------------------------------------------------------------------------------




--------------------------------------- Iteration      1(  16)  ---------------------------------------


    POTLOK:  cpu time    2.8751: real time    2.8905
    SETDIJ:  cpu time    0.0018: real time    0.0018
     EDDAV:  cpu time    3.2978: real time    3.3056
 BZINTS: Fermi energy: -0.560793;144.000000 electrons
         Band energy:***********;  BLOECHL correction:  0.000000
       DOS:  cpu time    0.0025: real time    0.0025
    CHARGE:  cpu time    0.1798: real time    0.1802
    MIXING:  cpu time    0.0079: real time    0.0079
    --------------------------------------------
      LOOP:  cpu time    6.3647: real time    6.3884

 eigenvalue-minimisations  :  3056
 total energy-change (2. order) : 0.2871349E-04  (-0.1497547E-03)
 number of electron     143.9999988 magnetization 
 augmentation part      -17.7163701 magnetization 

 Broyden mixing:
  rms(total) = 0.12846E-02    rms(broyden)= 0.12846E-02
  rms(prec ) = 0.23837E-02
  weight for this iteration     100.00

 eigenvalues of (default mixing * dielectric matrix)
  average eigenvalue GAMMA=   2.0128
  5.8481  3.5210  2.3922  2.3922  1.6335  0.8912  0.8912  1.2837  1.2837  1.0017
  1.0017

 Free energy of the ion-electron system (eV)
  ---------------------------------------------------
  alpha Z        PSCENC =       170.45750602
  Ewald energy   TEWEN  =     12149.07610932
  -Hartree energ DENC   =    -18562.88886500
  -exchange      EXHF   =         0.00000000
  -V(xc)+E(xc)   XCENC  =        44.69846406
  PAW double counting   =      3830.10273531    -3535.21968577
  entropy T*S    EENTRO =         0.00000000
  eigenvalues    EBANDS =     -1455.32470013
  atomic energy  EATOM  =      7269.15145414
  Solvation  Ediel_sol  =         0.00000000
  ---------------------------------------------------
  free energy    TOTEN  =       -89.94698205 eV

  energy without entropy =      -89.94698205  energy(sigma->0) =      -89.94698205


--------------------------------------------------------------------------------------------------------




--------------------------------------- Iteration      1(  17)  ---------------------------------------


    POTLOK:  cpu time    2.8422: real time    2.8593
    SETDIJ:  cpu time    0.0022: real time    0.0022
     EDDAV:  cpu time    3.0605: real time    3.0677
 BZINTS: Fermi energy: -0.549874;144.000000 electrons
         Band energy:***********;  BLOECHL correction:  0.000000
       DOS:  cpu time    0.0026: real time    0.0026
    CHARGE:  cpu time    0.1901: real time    0.1905
    MIXING:  cpu time    0.0060: real time    0.0060
    --------------------------------------------
      LOOP:  cpu time    6.1034: real time    6.1282

 eigenvalue-minimisations  :  2872
 total energy-change (2. order) : 0.1781017E-03  (-0.7469477E-04)
 number of electron     143.9999988 magnetization 
 augmentation part      -17.7163726 magnetization 

 Broyden mixing:
  rms(total) = 0.71933E-03    rms(broyden)= 0.71933E-03
  rms(prec ) = 0.13986E-02
  weight for this iteration     100.00

 eigenvalues of (default mixing * dielectric matrix)
  average eigenvalue GAMMA=   1.9961
  6.1655  3.6937  2.7238  2.2109  1.4855  1.4855  0.8909  0.8909  1.3566  1.0441
  1.0441  0.9613

 Free energy of the ion-electron system (eV)
  ---------------------------------------------------
  alpha Z        PSCENC =       170.45750602
  Ewald energy   TEWEN  =     12149.07610932
  -Hartree energ DENC   =    -18564.17898401
  -exchange      EXHF   =         0.00000000
  -V(xc)+E(xc)   XCENC  =        44.70328018
  PAW double counting   =      3830.09808253    -3535.21107369
  entropy T*S    EENTRO =         0.00000000
  eigenvalues    EBANDS =     -1454.04317844
  atomic energy  EATOM  =      7269.15145414
  Solvation  Ediel_sol  =         0.00000000
  ---------------------------------------------------
  free energy    TOTEN  =       -89.94680395 eV

  energy without entropy =      -89.94680395  energy(sigma->0) =      -89.94680395


--------------------------------------------------------------------------------------------------------




--------------------------------------- Iteration      1(  18)  ---------------------------------------


    POTLOK:  cpu time    2.8458: real time    2.8625
    SETDIJ:  cpu time    0.0017: real time    0.0017
     EDDAV:  cpu time    2.8269: real time    2.8336
 BZINTS: Fermi energy: -0.550953;144.000000 electrons
         Band energy:***********;  BLOECHL correction:  0.000000
       DOS:  cpu time    0.0023: real time    0.0023
    CHARGE:  cpu time    0.1862: real time    0.1866
    MIXING:  cpu time    0.0067: real time    0.0067
    --------------------------------------------
      LOOP:  cpu time    5.8696: real time    5.8936

 eigenvalue-minimisations  :  2568
 total energy-change (2. order) :-0.4310852E-03  (-0.1343737E-04)
 number of electron     143.9999988 magnetization 
 augmentation part      -17.7164072 magnetization 

 Broyden mixing:
  rms(total) = 0.51041E-03    rms(broyden)= 0.51041E-03
  rms(prec ) = 0.95603E-03
  weight for this iteration     100.00

 eigenvalues of (default mixing * dielectric matrix)
  average eigenvalue GAMMA=   2.0905
  6.5884  4.2606  2.7655  2.7655  1.9611  1.3933  1.3933  0.8905  0.8905  1.1579
  1.1579  0.9760  0.9760

 Free energy of the ion-electron system (eV)
  ---------------------------------------------------
  alpha Z        PSCENC =       170.45750602
  Ewald energy   TEWEN  =     12149.07610932
  -Hartree energ DENC   =    -18564.48467733
  -exchange      EXHF   =         0.00000000
  -V(xc)+E(xc)   XCENC  =        44.70437193
  PAW double counting   =      3830.13343658    -3535.24672868
  entropy T*S    EENTRO =         0.00000000
  eigenvalues    EBANDS =     -1453.73870701
  atomic energy  EATOM  =      7269.15145414
  Solvation  Ediel_sol  =         0.00000000
  ---------------------------------------------------
  free energy    TOTEN  =       -89.94723504 eV

  energy without entropy =      -89.94723504  energy(sigma->0) =      -89.94723504


--------------------------------------------------------------------------------------------------------




--------------------------------------- Iteration      1(  19)  ---------------------------------------


    POTLOK:  cpu time    2.8271: real time    2.8431
    SETDIJ:  cpu time    0.0017: real time    0.0017
     EDDAV:  cpu time    2.8851: real time    2.8919
 BZINTS: Fermi energy: -0.551533;144.000000 electrons
         Band energy:***********;  BLOECHL correction:  0.000000
       DOS:  cpu time    0.0024: real time    0.0025
    CHARGE:  cpu time    0.1953: real time    0.1958
    MIXING:  cpu time    0.0106: real time    0.0106
    --------------------------------------------
      LOOP:  cpu time    5.9223: real time    5.9456

 eigenvalue-minimisations  :  2624
 total energy-change (2. order) :-0.7092680E-03  (-0.1602842E-04)
 number of electron     143.9999988 magnetization 
 augmentation part      -17.7165579 magnetization 

 Broyden mixing:
  rms(total) = 0.39444E-03    rms(broyden)= 0.39444E-03
  rms(prec ) = 0.60359E-03
  weight for this iteration     100.00

 eigenvalues of (default mixing * dielectric matrix)
  average eigenvalue GAMMA=   2.1259
  6.8007  4.8190  2.8723  2.8723  1.8403  1.6247  1.6247  0.8906  0.8906  1.2892
  1.2892  1.0102  1.0102  0.9279

 Free energy of the ion-electron system (eV)
  ---------------------------------------------------
  alpha Z        PSCENC =       170.45750602
  Ewald energy   TEWEN  =     12149.07610932
  -Hartree energ DENC   =    -18564.89371897
  -exchange      EXHF   =         0.00000000
  -V(xc)+E(xc)   XCENC  =        44.70384112
  PAW double counting   =      3830.04408542    -3535.15394219
  entropy T*S    EENTRO =         0.00000000
  eigenvalues    EBANDS =     -1453.33327916
  atomic energy  EATOM  =      7269.15145414
  Solvation  Ediel_sol  =         0.00000000
  ---------------------------------------------------
  free energy    TOTEN  =       -89.94794430 eV

  energy without entropy =      -89.94794430  energy(sigma->0) =      -89.94794430


--------------------------------------------------------------------------------------------------------




--------------------------------------- Iteration      1(  20)  ---------------------------------------


    POTLOK:  cpu time    2.8325: real time    2.8494
    SETDIJ:  cpu time    0.0019: real time    0.0019
     EDDAV:  cpu time    2.8452: real time    2.8520
 BZINTS: Fermi energy: -0.556114;144.000000 electrons
         Band energy:***********;  BLOECHL correction:  0.000000
       DOS:  cpu time    0.0026: real time    0.0026
    CHARGE:  cpu time    0.1953: real time    0.1957
    MIXING:  cpu time    0.0069: real time    0.0069
    --------------------------------------------
      LOOP:  cpu time    5.8843: real time    5.9085

 eigenvalue-minimisations  :  2584
 total energy-change (2. order) :-0.2617158E-03  (-0.7107012E-05)
 number of electron     143.9999988 magnetization 
 augmentation part      -17.7166206 magnetization 

 Broyden mixing:
  rms(total) = 0.22101E-03    rms(broyden)= 0.22101E-03
  rms(prec ) = 0.34409E-03
  weight for this iteration     100.00

 eigenvalues of (default mixing * dielectric matrix)
  average eigenvalue GAMMA=   2.2901
  7.5123  6.4641  3.1428  3.1428  2.4977  1.5523  1.5523  0.8906  0.8906  1.2973
  1.2973  0.9635  0.9635  1.0921  1.0921

 Free energy of the ion-electron system (eV)
  ---------------------------------------------------
  alpha Z        PSCENC =       170.45750602
  Ewald energy   TEWEN  =     12149.07610932
  -Hartree energ DENC   =    -18564.91718575
  -exchange      EXHF   =         0.00000000
  -V(xc)+E(xc)   XCENC  =        44.70372961
  PAW double counting   =      3830.05723883    -3535.16685925
  entropy T*S    EENTRO =         0.00000000
  eigenvalues    EBANDS =     -1453.31019894
  atomic energy  EATOM  =      7269.15145414
  Solvation  Ediel_sol  =         0.00000000
  ---------------------------------------------------
  free energy    TOTEN  =       -89.94820602 eV

  energy without entropy =      -89.94820602  energy(sigma->0) =      -89.94820602


--------------------------------------------------------------------------------------------------------




--------------------------------------- Iteration      1(  21)  ---------------------------------------


    POTLOK:  cpu time    2.8440: real time    2.8614
    SETDIJ:  cpu time    0.0018: real time    0.0018
     EDDAV:  cpu time    2.7963: real time    2.8030
 BZINTS: Fermi energy: -0.561476;144.000000 electrons
         Band energy:***********;  BLOECHL correction:  0.000000
       DOS:  cpu time    0.0024: real time    0.0024
    CHARGE:  cpu time    0.1956: real time    0.1961
    MIXING:  cpu time    0.0079: real time    0.0079
    --------------------------------------------
      LOOP:  cpu time    5.8480: real time    5.8726

 eigenvalue-minimisations  :  2480
 total energy-change (2. order) :-0.1639374E-03  (-0.4848621E-05)
 number of electron     143.9999988 magnetization 
 augmentation part      -17.7166111 magnetization 

 Broyden mixing:
  rms(total) = 0.10672E-03    rms(broyden)= 0.10672E-03
  rms(prec ) = 0.13081E-03
  weight for this iteration     100.00

 eigenvalues of (default mixing * dielectric matrix)
  average eigenvalue GAMMA=   2.3160
  8.0329  6.7806  3.1949  3.1949  2.4703  1.8584  1.8584  0.8906  0.8906  1.3113
  1.3113  1.0741  1.0741  1.1374  0.9711  1.0056

 Free energy of the ion-electron system (eV)
  ---------------------------------------------------
  alpha Z        PSCENC =       170.45750602
  Ewald energy   TEWEN  =     12149.07610932
  -Hartree energ DENC   =    -18564.81948011
  -exchange      EXHF   =         0.00000000
  -V(xc)+E(xc)   XCENC  =        44.70250425
  PAW double counting   =      3830.05515875    -3535.16601039
  entropy T*S    EENTRO =         0.00000000
  eigenvalues    EBANDS =     -1453.40561194
  atomic energy  EATOM  =      7269.15145414
  Solvation  Ediel_sol  =         0.00000000
  ---------------------------------------------------
  free energy    TOTEN  =       -89.94836996 eV

  energy without entropy =      -89.94836996  energy(sigma->0) =      -89.94836996


--------------------------------------------------------------------------------------------------------




--------------------------------------- Iteration      1(  22)  ---------------------------------------


    POTLOK:  cpu time    2.9065: real time    2.9228
    SETDIJ:  cpu time    0.0018: real time    0.0018
     EDDAV:  cpu time    2.8342: real time    2.8410
 BZINTS: Fermi energy: -0.565484;144.000000 electrons
         Band energy:***********;  BLOECHL correction:  0.000000
       DOS:  cpu time    0.0023: real time    0.0023
    CHARGE:  cpu time    0.1895: real time    0.1899
    MIXING:  cpu time    0.0079: real time    0.0079
    --------------------------------------------
      LOOP:  cpu time    5.9422: real time    5.9657

 eigenvalue-minimisations  :  2528
 total energy-change (2. order) :-0.1791481E-04  (-0.3867354E-06)
 number of electron     143.9999988 magnetization 
 augmentation part      -17.7165704 magnetization 

 Broyden mixing:
  rms(total) = 0.68547E-04    rms(broyden)= 0.68547E-04
  rms(prec ) = 0.88209E-04
  weight for this iteration     100.00

 eigenvalues of (default mixing * dielectric matrix)
  average eigenvalue GAMMA=   2.3170
  8.6855  6.9711  3.2852  3.2852  2.5910  1.8838  1.8838  0.8906  0.8906  1.3575
  1.2488  1.2488  0.9594  0.9594  1.1096  1.0692  1.0692

 Free energy of the ion-electron system (eV)
  ---------------------------------------------------
  alpha Z        PSCENC =       170.45750602
  Ewald energy   TEWEN  =     12149.07610932
  -Hartree energ DENC   =    -18564.85208667
  -exchange      EXHF   =         0.00000000
  -V(xc)+E(xc)   XCENC  =        44.70254197
  PAW double counting   =      3830.04176679    -3535.15229602
  entropy T*S    EENTRO =         0.00000000
  eigenvalues    EBANDS =     -1453.37338341
  atomic energy  EATOM  =      7269.15145414
  Solvation  Ediel_sol  =         0.00000000
  ---------------------------------------------------
  free energy    TOTEN  =       -89.94838787 eV

  energy without entropy =      -89.94838787  energy(sigma->0) =      -89.94838787


--------------------------------------------------------------------------------------------------------




--------------------------------------- Iteration      1(  23)  ---------------------------------------


    POTLOK:  cpu time    2.8387: real time    2.8560
    SETDIJ:  cpu time    0.0023: real time    0.0023
     EDDAV:  cpu time    2.4088: real time    2.4145
 BZINTS: Fermi energy: -0.569696;144.000000 electrons
         Band energy:***********;  BLOECHL correction:  0.000000
       DOS:  cpu time    0.0023: real time    0.0023
    CHARGE:  cpu time    0.1707: real time    0.1711
    MIXING:  cpu time    0.0110: real time    0.0111
    --------------------------------------------
      LOOP:  cpu time    5.4338: real time    5.4573

 eigenvalue-minimisations  :  2080
 total energy-change (2. order) :-0.6713371E-05  (-0.9689606E-07)
 number of electron     143.9999988 magnetization 
 augmentation part      -17.7165706 magnetization 

 Broyden mixing:
  rms(total) = 0.28514E-04    rms(broyden)= 0.28514E-04
  rms(prec ) = 0.38926E-04
  weight for this iteration     100.00

 eigenvalues of (default mixing * dielectric matrix)
  average eigenvalue GAMMA=   2.3138
  8.7445  7.1444  3.3457  3.3457  2.7363  2.1186  1.7629  1.7629  0.8906  0.8906
  1.2551  1.2551  1.2426  0.9846  0.9846  1.0177  1.0829  1.0829

 Free energy of the ion-electron system (eV)
  ---------------------------------------------------
  alpha Z        PSCENC =       170.45750602
  Ewald energy   TEWEN  =     12149.07610932
  -Hartree energ DENC   =    -18564.82304973
  -exchange      EXHF   =         0.00000000
  -V(xc)+E(xc)   XCENC  =        44.70225921
  PAW double counting   =      3830.04242700    -3535.15309457
  entropy T*S    EENTRO =         0.00000000
  eigenvalues    EBANDS =     -1453.40200597
  atomic energy  EATOM  =      7269.15145414
  Solvation  Ediel_sol  =         0.00000000
  ---------------------------------------------------
  free energy    TOTEN  =       -89.94839458 eV

  energy without entropy =      -89.94839458  energy(sigma->0) =      -89.94839458


--------------------------------------------------------------------------------------------------------




--------------------------------------- Iteration      1(  24)  ---------------------------------------


    POTLOK:  cpu time    2.5554: real time    2.5708
    SETDIJ:  cpu time    0.0017: real time    0.0017
     EDDAV:  cpu time    2.2520: real time    2.2573
 BZINTS: Fermi energy: -0.573379;144.000000 electrons
         Band energy:***********;  BLOECHL correction:  0.000000
       DOS:  cpu time    0.0029: real time    0.0029
    CHARGE:  cpu time    0.1712: real time    0.1716
    MIXING:  cpu time    0.0086: real time    0.0087
    --------------------------------------------
      LOOP:  cpu time    4.9919: real time    5.0131

 eigenvalue-minimisations  :  1928
 total energy-change (2. order) :-0.1647504E-05  (-0.2808233E-07)
 number of electron     143.9999988 magnetization 
 augmentation part      -17.7165730 magnetization 

 Broyden mixing:
  rms(total) = 0.15828E-04    rms(broyden)= 0.15828E-04
  rms(prec ) = 0.23039E-04
  weight for this iteration     100.00

 eigenvalues of (default mixing * dielectric matrix)
  average eigenvalue GAMMA=   2.3071
  8.7795  7.2297  3.5021  3.5021  2.8916  2.2276  1.9731  1.9731  0.8906  0.8906
  1.2335  1.2335  1.2019  1.2019  1.0982  1.0982  0.9671  0.9704  0.9704

 Free energy of the ion-electron system (eV)
  ---------------------------------------------------
[...]
      7     -27.9704      2.00000
      8     -27.9700      2.00000
      9     -14.9845      2.00000
     10     -14.9843      2.00000
     11     -14.9233      2.00000
     12     -14.9233      2.00000
     13     -14.8600      2.00000
     14     -14.8600      2.00000
     15     -14.0670      2.00000
     16     -14.0662      2.00000
     17     -13.9546      2.00000
     18     -13.9459      2.00000
     19     -13.9264      2.00000
     20     -13.9244      2.00000
     21     -13.9045      2.00000
     22     -13.9025      2.00000
     23     -13.8817      2.00000
     24     -13.8797      2.00000
     25     -13.8137      2.00000
     26     -13.8052      2.00000
     27     -13.3407      2.00000
     28     -13.3315      2.00000
     29     -13.2960      2.00000
     30     -13.2884      2.00000
     31     -13.2636      2.00000
     32     -13.2625      2.00000
     33     -11.1047      2.00000
     34     -11.0912      2.00000
     35     -10.7165      2.00000
     36     -10.7007      2.00000
     37      -6.5621      2.00000
     38      -6.5433      2.00000
     39      -6.3077      2.00000
     40      -6.2993      2.00000
     41      -6.2264      2.00000
     42      -6.2183      2.00000
     43      -5.9831      2.00000
     44      -5.9698      2.00000
     45      -5.9221      2.00000
     46      -5.8732      2.00000
     47      -5.8267      2.00000
     48      -5.7147      2.00000
     49      -2.9105      2.00000
     50      -2.8175      2.00000
     51      -2.6631      2.00000
     52      -2.6067      2.00000
     53      -2.3418      2.00000
     54      -2.2499      2.00000
     55      -2.2275      2.00000
     56      -2.2042      2.00000
     57      -2.0373      2.00000
     58      -2.0127      2.00000
     59      -1.9269      2.00000
     60      -1.8439      2.00000
     61      -1.7541      2.00000
     62      -1.6933      2.00000
     63      -1.5987      2.00000
     64      -1.5203      2.00000
     65      -1.3942      2.00000
     66      -1.3234      2.00000
     67      -1.2653      2.00000
     68      -1.1511      2.00000
     69      -1.0284      2.00000
     70      -0.9254      2.00000
     71      -0.9199      2.00000
     72      -0.8448      2.00000
     73       0.1761      0.00000
     74       0.2188      0.00000
     75       0.3785      0.00000
     76       0.4240      0.00000
     77       0.5123      0.00000
     78       0.6221      0.00000
     79       0.7454      0.00000
     80       0.7581      0.00000
     81       0.7988      0.00000
     82       0.8663      0.00000
     83       1.0259      0.00000
     84       1.0602      0.00000
     85       1.1742      0.00000
     86       1.3518      0.00000
     87       1.4224      0.00000
     88       1.5480      0.00000

 k-point    15 :       0.0000    0.5000    0.4000
  band No.  band energies     occupation 
      1     -29.6722      2.00000
      2     -29.6722      2.00000
      3     -28.6668      2.00000
      4     -28.6668      2.00000
      5     -28.5662      2.00000
      6     -28.5662      2.00000
      7     -27.9703      2.00000
      8     -27.9702      2.00000
      9     -14.9839      2.00000
     10     -14.9839      2.00000
     11     -14.9241      2.00000
     12     -14.9240      2.00000
     13     -14.8620      2.00000
     14     -14.8620      2.00000
     15     -14.0658      2.00000
     16     -14.0658      2.00000
     17     -13.9521      2.00000
     18     -13.9521      2.00000
     19     -13.9287      2.00000
     20     -13.9287      2.00000
     21     -13.9028      2.00000
     22     -13.9028      2.00000
     23     -13.8836      2.00000
     24     -13.8836      2.00000
     25     -13.8088      2.00000
     26     -13.8088      2.00000
     27     -13.3359      2.00000
     28     -13.3359      2.00000
     29     -13.2921      2.00000
     30     -13.2921      2.00000
     31     -13.2627      2.00000
     32     -13.2627      2.00000
     33     -11.0921      2.00000
     34     -11.0921      2.00000
     35     -10.6992      2.00000
     36     -10.6991      2.00000
     37      -6.5818      2.00000
     38      -6.5818      2.00000
     39      -6.2780      2.00000
     40      -6.2779      2.00000
     41      -6.2203      2.00000
     42      -6.2203      2.00000
     43      -5.9524      2.00000
     44      -5.9524      2.00000
     45      -5.9090      2.00000
     46      -5.9089      2.00000
     47      -5.7670      2.00000
     48      -5.7669      2.00000
     49      -2.8195      2.00000
     50      -2.8194      2.00000
     51      -2.6535      2.00000
     52      -2.6535      2.00000
     53      -2.2934      2.00000
     54      -2.2934      2.00000
     55      -2.2277      2.00000
     56      -2.2277      2.00000
     57      -2.0265      2.00000
     58      -2.0265      2.00000
     59      -1.8333      2.00000
     60      -1.8333      2.00000
     61      -1.6348      2.00000
     62      -1.6348      2.00000
     63      -1.5991      2.00000
     64      -1.5991      2.00000
     65      -1.3765      2.00000
     66      -1.3765      2.00000
     67      -1.2062      2.00000
     68      -1.2062      2.00000
     69      -1.0183      2.00000
     70      -1.0183      2.00000
     71      -0.8800      2.00000
     72      -0.8800      2.00000
     73       0.1143      0.00000
     74       0.1143      0.00000
     75       0.3676      0.00000
     76       0.3676      0.00000
     77       0.5620      0.00000
     78       0.5620      0.00000
     79       0.7299      0.00000
     80       0.7299      0.00000
     81       0.7665      0.00000
     82       0.7665      0.00000
     83       1.0631      0.00000
     84       1.0631      0.00000
     85       1.2655      0.00000
     86       1.2655      0.00000
     87       1.4038      0.00000
     88       1.4039      0.00000


--------------------------------------------------------------------------------------------------------


 soft charge-density along one line, spin component           1
         0         1         2         3         4         5         6         7         8         9
 total charge-density along one line
 
 pseudopotential strength for first ion, spin component:           1
  4.882  -5.568  -0.000  -0.006  -0.024  -0.000  -0.004  -0.020
 -5.568  -2.760   0.000   0.001   0.004  -0.000  -0.001  -0.004
 -0.000   0.000  -6.819  -0.000  -0.000   1.886  -0.000  -0.000
 -0.006   0.001  -0.000  -6.814  -0.001  -0.000   1.896  -0.003
 -0.024   0.004  -0.000  -0.001  -6.815  -0.000  -0.003   1.896
 -0.000  -0.000   1.886  -0.000  -0.000   7.261  -0.000  -0.000
 -0.004  -0.001  -0.000   1.896  -0.003  -0.000   7.263  -0.000
 -0.020  -0.004  -0.000  -0.003   1.896  -0.000  -0.000   7.263
 -0.000   0.000  -0.012  -0.000  -0.000  -0.009  -0.000  -0.000
 -0.000   0.000  -0.001  -0.000  -0.000  -0.000  -0.000  -0.000
  0.002  -0.001   0.000  -0.004   0.006   0.000  -0.003   0.005
 -0.002   0.001  -0.000  -0.011  -0.002  -0.000  -0.008  -0.002
  0.003  -0.001   0.000  -0.001  -0.011   0.000  -0.001  -0.008
  0.000   0.000   0.001   0.000   0.000   0.000   0.000   0.000
  0.000   0.000   0.000   0.000   0.000  -0.000   0.000   0.000
 -0.000  -0.000  -0.000   0.000  -0.000  -0.000   0.000  -0.000
  0.000   0.000   0.000   0.001   0.000   0.000   0.000   0.000
 -0.000  -0.000  -0.000   0.000   0.000  -0.000   0.000   0.000
 total augmentation occupancy for first ion, spin component:           1
  2.108  -0.259   0.000   0.012   0.051   0.000  -0.006  -0.019   0.000   0.000   0.013  -0.008   0.030  -0.000   0.000  -0.008
 -0.259   0.634   0.000  -0.032  -0.133   0.000   0.012   0.032   0.000  -0.000  -0.021   0.008  -0.058   0.000   0.000   0.035
  0.000   0.000   2.012  -0.000   0.000  -0.015   0.000  -0.000  -0.080   0.022   0.000   0.000   0.000   0.068  -0.043   0.000
  0.012  -0.032   0.000   1.999   0.003   0.000  -0.006  -0.002  -0.000   0.000  -0.044  -0.065  -0.014   0.000   0.000   0.044
  0.051  -0.133   0.000   0.003   1.995   0.000  -0.002  -0.004  -0.000   0.000   0.033  -0.006  -0.050   0.000   0.000  -0.027
  0.000   0.000  -0.015   0.000   0.000   0.008  -0.000   0.000   0.022  -0.009   0.000   0.000   0.000  -0.030   0.014  -0.000
 -0.006   0.012   0.000  -0.006  -0.002   0.000   0.005   0.000   0.000   0.000   0.016   0.015   0.005   0.000   0.000  -0.022
 -0.019   0.032   0.000  -0.002  -0.004   0.000   0.000   0.004   0.000   0.000  -0.007   0.000   0.009   0.000   0.000   0.009
  0.000   0.000  -0.080   0.000   0.000   0.022   0.000   0.000   0.144  -0.014   0.000  -0.000  -0.000  -0.184   0.020   0.000
  0.000   0.000   0.022   0.000   0.000  -0.009   0.000   0.000  -0.014   0.068   0.000  -0.000   0.000   0.018  -0.085   0.000
  0.013  -0.021   0.000  -0.044   0.033   0.000   0.016  -0.007   0.000  -0.000   0.120   0.049   0.019   0.000   0.000  -0.149
 -0.008   0.008  -0.000  -0.065  -0.006   0.000   0.015   0.000   0.000   0.000   0.049   0.087   0.008  -0.000  -0.000  -0.069
  0.030  -0.058   0.000  -0.014  -0.050   0.000   0.005   0.009  -0.000  -0.000   0.019   0.008   0.093   0.000   0.000  -0.025
 -0.000   0.000   0.068  -0.000   0.000  -0.030   0.000   0.000  -0.184   0.018  -0.000   0.000   0.000   0.264  -0.034   0.000
 -0.000   0.000  -0.043   0.000   0.000   0.014   0.000   0.000   0.020  -0.085   0.000  -0.000  -0.000  -0.034   0.117   0.000
 -0.008   0.035   0.000   0.044  -0.027   0.000  -0.022   0.009   0.000   0.000  -0.149  -0.069  -0.025  -0.000   0.000   0.205
  0.006  -0.025   0.000   0.053  -0.001   0.000  -0.023  -0.001   0.000  -0.000  -0.067  -0.112  -0.011  -0.000   0.000   0.105
 -0.023   0.070   0.000   0.023   0.042   0.000  -0.008  -0.012   0.000   0.000  -0.027  -0.013  -0.123  -0.000   0.000   0.042


------------------------ aborting loop because EDIFF is reached ----------------------------------------


    CHARGE:  cpu time    0.1770: real time    0.1774
    FORLOC:  cpu time    0.0121: real time    0.0121
    FORNL :  cpu time    0.4626: real time    0.4637
    STRESS:  cpu time    1.4079: real time    1.4114
    FORCOR:  cpu time    2.4429: real time    2.4488
    FORHAR:  cpu time    0.0239: real time    0.0240
    MIXING:  cpu time    0.0087: real time    0.0088
    OFIELD:  cpu time    0.0000: real time    0.0000

  FORCE on cell =-STRESS in cart. coord.  units (eV):
  Direction    XX          YY          ZZ          XY          YZ          ZX
  --------------------------------------------------------------------------------------
  Alpha Z   170.45751   170.45751   170.45751
  Ewald  -19921.65457 16304.25340 15766.46362    -0.00002     0.00000   139.26500
  Hartree-16839.76259 17912.10682 17492.48145     0.00000    -0.00000   105.05149
  E(xc)    -461.51002  -462.80657  -462.80015    -0.00000     0.00000     0.08108
  Local   35344.19260-35651.58586-34686.36825     0.00001    -0.00000  -241.58871
  n-local   336.69956   336.89123   337.30883     0.06186    -0.20600    -1.77177
  augment  -167.69806  -168.02389  -167.87132    -0.00000    -0.00000     0.35753
  Kinetic  1530.47803  1546.65578  1538.75316    -0.02162    -0.84833    -1.26119
  Fock        0.00000     0.00000     0.00000     0.00000     0.00000     0.00000
  -------------------------------------------------------------------------------------
  Total      -8.79754   -12.05157   -11.57516     0.00000     0.00000     0.13344
  in kB      -7.46550   -10.22684    -9.82256     0.00000     0.00000     0.11324
  external pressure =       -9.17 kB  Pullay stress =        0.00 kB


 VOLUME and BASIS-vectors are now :
 -----------------------------------------------------------------------------
  energy-cutoff  :      500.00
  volume of cell :     1888.05
      direct lattice vectors                 reciprocal lattice vectors
    24.009468079  0.000000000  0.000000000     0.041650236  0.000000000  0.000000000
     0.000000000  6.777849674  0.000000000     0.000000000  0.147539419  0.000000000
     0.000000000  0.000000000 11.602143288     0.000000000  0.000000000  0.086190971

  length of vectors
    24.009468079  6.777849674 11.602143288     0.041650236  0.147539419  0.086190971


 FORCES acting on ions
    electron-ion (+dipol)            ewald-force                    non-local-force                 convergence-correction
 -----------------------------------------------------------------------------------------------
   0.788E+03 0.102E-04 0.436E+02   -.784E+03 0.985E-05 -.428E+02   -.400E+01 -.282E-18 -.798E+00   -.299E-03 -.217E-08 0.160E-04
   -.788E+03 -.633E-04 -.436E+02   0.784E+03 -.127E-04 0.428E+02   0.400E+01 0.351E-18 0.798E+00   0.299E-03 0.235E-08 -.160E-04
   0.794E+02 -.601E-04 -.348E+02   -.792E+02 -.189E-04 0.336E+02   -.222E+00 -.166E-19 0.120E+01   0.343E-04 0.367E-08 0.708E-04
   -.794E+02 0.117E-04 0.348E+02   0.792E+02 0.132E-04 -.336E+02   0.222E+00 -.282E-20 -.120E+01   -.343E-04 -.339E-08 -.708E-04
   0.634E+03 -.611E-04 -.502E+02   -.631E+03 -.167E-04 0.507E+02   -.187E+01 0.131E-17 -.525E+00   -.230E-03 0.294E-08 -.136E-03
   -.634E+03 0.903E-05 0.502E+02   0.631E+03 0.146E-04 -.507E+02   0.187E+01 -.153E-17 0.525E+00   0.230E-03 -.280E-08 0.136E-03
   0.368E+03 0.122E-04 -.611E+01   -.366E+03 0.135E-04 0.539E+01   -.998E+00 -.616E-18 0.716E+00   0.438E-04 -.324E-08 0.112E-03
   -.368E+03 -.615E-04 0.611E+01   0.366E+03 -.136E-04 -.539E+01   0.998E+00 0.170E-17 -.716E+00   -.438E-04 0.310E-08 -.112E-03
   0.276E+03 0.357E+02 -.462E+02   -.276E+03 -.375E+02 0.471E+02   -.182E+00 0.174E+01 -.937E+00   -.982E-05 0.417E-05 0.846E-05
   -.276E+03 -.357E+02 0.462E+02   0.276E+03 0.375E+02 -.471E+02   0.182E+00 -.174E+01 0.937E+00   0.982E-05 -.417E-05 -.847E-05
   0.125E+03 -.312E+02 0.292E+01   -.125E+03 0.326E+02 -.179E+01   -.435E+00 -.137E+01 -.112E+01   -.198E-04 -.366E-04 -.465E-04
   -.125E+03 0.312E+02 -.292E+01   0.125E+03 -.326E+02 0.179E+01   0.435E+00 0.137E+01 0.112E+01   0.198E-04 0.366E-04 0.465E-04
   -.276E+03 0.357E+02 0.462E+02   0.276E+03 -.375E+02 -.471E+02   0.182E+00 0.174E+01 0.937E+00   0.982E-05 0.417E-05 -.847E-05
   0.276E+03 -.357E+02 -.462E+02   -.276E+03 0.375E+02 0.471E+02   -.182E+00 -.174E+01 -.937E+00   -.982E-05 -.417E-05 0.846E-05
   -.125E+03 -.312E+02 -.292E+01   0.125E+03 0.326E+02 0.179E+01   0.435E+00 -.137E+01 0.112E+01   0.198E-04 -.366E-04 0.465E-04
   0.125E+03 0.312E+02 0.292E+01   -.125E+03 -.326E+02 -.179E+01   -.435E+00 0.137E+01 -.112E+01   -.198E-04 0.366E-04 -.465E-04
   0.333E+03 -.438E-05 0.460E+02   -.335E+03 -.609E-05 -.464E+02   0.146E+01 0.555E-19 0.444E+00   -.140E-04 0.913E-09 0.334E-04
   -.333E+03 0.617E-05 -.460E+02   0.335E+03 0.631E-05 0.464E+02   -.146E+01 -.977E-19 -.444E+00   0.140E-04 -.102E-08 -.334E-04
   0.328E+02 0.993E-05 -.108E+02   -.311E+02 0.768E-05 0.101E+02   -.137E+01 -.308E-19 0.691E+00   0.751E-05 -.140E-08 0.305E-04
   -.328E+02 -.138E-05 0.108E+02   0.311E+02 -.735E-05 -.101E+02   0.137E+01 -.372E-19 -.691E+00   -.751E-05 0.130E-08 -.305E-04
   0.245E+03 0.440E-05 0.905E+01   -.244E+03 0.811E-05 -.106E+02   -.542E+00 -.771E-18 0.154E+01   -.676E-04 -.122E-08 -.353E-04
   -.245E+03 -.575E-05 -.905E+01   0.244E+03 -.816E-05 0.106E+02   0.542E+00 0.446E-18 -.154E+01   0.676E-04 0.112E-08 0.353E-04
   0.160E+03 -.638E-05 0.600E+02   -.159E+03 -.769E-05 -.618E+02   -.880E+00 -.259E-17 0.189E+01   0.886E-05 0.120E-08 0.676E-04
   -.160E+03 0.372E-05 -.600E+02   0.159E+03 0.749E-05 0.618E+02   0.880E+00 0.677E-18 -.189E+01   -.886E-05 -.123E-08 -.676E-04
 -----------------------------------------------------------------------------------------------
   0.734E-04 -.208E-03 0.556E-04   0.853E-13 -.107E-13 0.000E+00   -.111E-15 -.235E-17 0.000E+00   0.454E-07 -.145E-09 -.603E-08
 
 
 POSITION                                       TOTAL-FORCE (eV/Angst)
 -----------------------------------------------------------------------------------
      0.13670      1.69446      8.19025         0.760289     -0.000000     -0.000738
      9.02277      5.08339      3.41189        -0.760289     -0.000000      0.000738
      4.36803      5.08339      2.16614         0.005247     -0.000000     -0.000488
      4.79143      1.69446      9.43600        -0.005247      0.000000      0.000488
      1.43529      5.08339     10.64499         0.742592      0.000000      0.000081
      7.72418      1.69446      0.95716        -0.742592     -0.000000     -0.000081
      3.06944      1.69446      4.62669         0.392184      0.000000     -0.000455
      6.09002      5.08339      6.97545        -0.392184      0.000000      0.000455
      1.75027      0.48823      1.68548        -0.138281      0.000023      0.000134
      7.40920      6.28962      9.91667         0.138281     -0.000023     -0.000134
      2.75446      6.29641      7.64755         0.148280     -0.000311      0.000282
      6.40500      0.48144      3.95460        -0.148280      0.000311     -0.000282
      7.40920      3.87715      9.91667         0.138281      0.000023     -0.000134
      1.75027      2.90070      1.68548        -0.138281     -0.000023      0.000134
      6.40500      2.90749      3.95460        -0.148280     -0.000311     -0.000282
      2.75446      3.87036      7.64755         0.148280      0.000311      0.000282
      0.74693      5.08339      6.96227        -0.248860     -0.000000      0.000704
      8.41254      1.69446      4.63988         0.248860      0.000000     -0.000704
      3.75780      1.69446      0.98430         0.302553     -0.000000     -0.000162
      5.40166      5.08339     10.61784        -0.302553      0.000000      0.000162
      1.78112      1.69446     11.16642        -0.223036      0.000000     -0.000097
      7.37835      5.08339      0.43572         0.223036      0.000000      0.000097
      2.72362      5.08339      5.52769        -0.201482     -0.000000      0.000161
      6.43585      1.69446      6.07445         0.201482      0.000000     -0.000161
 -----------------------------------------------------------------------------------
    total drift:                                0.000073     -0.000208      0.000056


--------------------------------------------------------------------------------------------------------



  FREE ENERGIE OF THE ION-ELECTRON SYSTEM (eV)
  ---------------------------------------------------
  free  energy   TOTEN  =       -89.94839655 eV

  energy  without entropy=      -89.94839655  energy(sigma->0) =      -89.94839655
 


--------------------------------------------------------------------------------------------------------


    POTLOK:  cpu time    2.5410: real time    2.5471


--------------------------------------------------------------------------------------------------------


 writing wavefunctions
     LOOP+:  cpu time14294.0343: real time14329.0004
    4ORBIT:  cpu time    0.0000: real time    0.0000
 BZINTS: Fermi energy: -0.576830;144.000000 electrons
         Band energy:***********;  BLOECHL correction:  0.000000

 total amount of memory used by VASP MPI-rank0    79346. kBytes
=======================================================================

   base      :      30000. kBytes
   nonlr-proj:       2640. kBytes
   fftplans  :       5898. kBytes
   grid      :       8824. kBytes
   one-center:         93. kBytes
   wavefun   :      31891. kBytes
 
  
  
 General timing and accounting informations for this job:
 ========================================================
  
                  Total CPU time used (sec):    14302.853
                            User time (sec):    14284.917
                          System time (sec):       17.936
                         Elapsed time (sec):    14340.434
  
                   Maximum memory used (kb):      304336.
                   Average memory used (kb):           0.
  
                          Minor page faults:       101455
                          Major page faults:          286
                 Voluntary context switches:        14168
