 vasp.5.4.4.18Apr17-6-g9f103f2a35 (build Nov 21 2017 15:30:27) complex          
  
 executed on             LinuxIFC date 2020.09.15  08:17:22
 running on   64 total cores
 distrk:  each k-point on   32 cores,    2 groups
 distr:  one band on NCORES_PER_BAND=   4 cores,    8 groups


--------------------------------------------------------------------------------------------------------


 INCAR:
 POTCAR:   PAW_PBE Ba_sv 06Sep2000                
 POTCAR:   PAW_PBE Si 05Jan2001                   

 ----------------------------------------------------------------------------- 
|                                                                             |
|           W    W    AA    RRRRR   N    N  II  N    N   GGGG   !!!           |
|           W    W   A  A   R    R  NN   N  II  NN   N  G    G  !!!           |
|           W    W  A    A  R    R  N N  N  II  N N  N  G       !!!           |
|           W WW W  AAAAAA  RRRRR   N  N N  II  N  N N  G  GGG   !            |
|           WW  WW  A    A  R   R   N   NN  II  N   NN  G    G                |
|           W    W  A    A  R    R  N    N  II  N    N   GGGG   !!!           |
|                                                                             |
|      You have enabled k-point parallelism (KPAR>1).                         |
|      This developmental code was originally  written by Paul Kent at ORNL,  |
|      and carefully double checked in Vienna.                                |
|      GW as well as linear response parallelism added by Martijn Marsman     |
|      and Georg Kresse.                                                      |
|      Carefully verify results versus KPAR=1.                                |
|      Report problems to Paul Kent and Vienna.                               |
|                                                                             |
 ----------------------------------------------------------------------------- 


 ----------------------------------------------------------------------------- 
|                                                                             |
|  ADVICE TO THIS USER RUNNING 'VASP/VAMP'   (HEAR YOUR MASTER'S VOICE ...):  |
|                                                                             |
|      You have switched on vdW-DFT.                                          |
|      This routine was written and supplied by Jiri Klimes.                  |
|      We recommed that you carefully read and cite the following             |
|      publication                                                            |
|      J. Klimes, D.R. Bowler, A. Michelides                                  |
|        J. Phys.: Cond Matt. 22 022201 (2010)                                |
|      J. Klimes, D.R. Bowler, A. Michelides                                  |
|        Phys. Rev. B. 83, 195131 (2011)                                      |
|      and references therein.                                                |
|                                                                             |
 ----------------------------------------------------------------------------- 

 POTCAR:   PAW_PBE Ba_sv 06Sep2000                
   VRHFIN =Ba: 5s5p6s                                                           
   LEXCH  = PE                                                                  
   EATOM  =   700.2255 eV,   51.4651 Ry                                         
                                                                                
   TITEL  = PAW_PBE Ba_sv 06Sep2000                                             
   LULTRA =        F    use ultrasoft PP ?                                      
   IUNSCR =        1    unscreen: 0-lin 1-nonlin 2-no                           
   RPACOR =    2.400    partial core radius                                     
   POMASS =  137.327; ZVAL   =   10.000    mass and valenz                      
   RCORE  =    2.800    outmost cutoff radius                                   
   RWIGS  =    3.740; RWIGS  =    1.979    wigner-seitz radius (au A)           
   ENMAX  =  187.210; ENMIN  =  140.408 eV                                      
   RCLOC  =    2.516    cutoff for local pot                                    
   LCOR   =        T    correct aug charges                                     
   LPAW   =        T    paw PP                                                  
   EAUG   =  351.165                                                            
   DEXC   =     .000                                                            
   RMAX   =    3.370    core radius for proj-oper                               
   RAUG   =    1.300    factor for augmentation sphere                          
   RDEP   =    2.976    radius for radial grids                                 
   QCUT   =   -3.709; QGAM   =    7.419    optimization parameters              
                                                                                
   Description                                                                  
     l     E      TYP  RCUT    TYP  RCUT                                        
     0   .000     23  2.800                                                     
     0   .000     23  2.800                                                     
     1   .000     23  2.700                                                     
     1  2.000     23  2.700                                                     
     2   .000     23  2.700                                                     
     2   .000     23  2.700                                                     
  local pseudopotential read in
  partial core-charges read in
  atomic valenz-charges read in
  non local Contribution for L=           0  read in
    real space projection operators read in
  non local Contribution for L=           0  read in
    real space projection operators read in
  non local Contribution for L=           1  read in
    real space projection operators read in
  non local Contribution for L=           1  read in
    real space projection operators read in
  non local Contribution for L=           2  read in
    real space projection operators read in
  non local Contribution for L=           2  read in
    real space projection operators read in
    PAW grid and wavefunctions read in
 
   number of l-projection  operators is LMAX  =           6
   number of lm-projection operators is LMMAX =          18
 
 POTCAR:   PAW_PBE Si 05Jan2001                   
   VRHFIN =Si: s2p2                                                             
   LEXCH  = PE                                                                  
   EATOM  =   103.0669 eV,    7.5752 Ry                                         
                                                                                
   TITEL  = PAW_PBE Si 05Jan2001                                                
   LULTRA =        F    use ultrasoft PP ?                                      
   IUNSCR =        1    unscreen: 0-lin 1-nonlin 2-no                           
   RPACOR =    1.500    partial core radius                                     
   POMASS =   28.085; ZVAL   =    4.000    mass and valenz                      
   RCORE  =    1.900    outmost cutoff radius                                   
   RWIGS  =    2.480; RWIGS  =    1.312    wigner-seitz radius (au A)           
   ENMAX  =  245.345; ENMIN  =  184.009 eV                                      
   ICORE  =        2    local potential                                         
   LCOR   =        T    correct aug charges                                     
   LPAW   =        T    paw PP                                                  
   EAUG   =  322.069                                                            
   DEXC   =    -.007                                                            
   RMAX   =    2.944    core radius for proj-oper                               
   RAUG   =    1.300    factor for augmentation sphere                          
   RDEP   =    1.993    radius for radial grids                                 
   QCUT   =   -4.246; QGAM   =    8.493    optimization parameters              
                                                                                
   Description                                                                  
     l     E      TYP  RCUT    TYP  RCUT                                        
     0   .000     23  1.900                                                     
     0   .000     23  1.900                                                     
     1   .000     23  1.900                                                     
     1   .000     23  1.900                                                     
     2   .000      7  1.900                                                     
  local pseudopotential read in
  partial core-charges read in
  atomic valenz-charges read in
  non local Contribution for L=           0  read in
    real space projection operators read in
  non local Contribution for L=           0  read in
    real space projection operators read in
  non local Contribution for L=           1  read in
    real space projection operators read in
  non local Contribution for L=           1  read in
    real space projection operators read in
    PAW grid and wavefunctions read in
 
   number of l-projection  operators is LMAX  =           4
   number of lm-projection operators is LMMAX =           8
 
 Optimization of the real space projectors (new method)

 maximal supplied QI-value         = 13.42
 optimisation between [QCUT,QGAM] = [ 11.40, 22.81] = [ 36.42,145.68] Ry 
 Optimized for a Real-space Cutoff    1.56 Angstroem

   l    n(q)    QCUT    max X(q) W(low)/X(q) W(high)/X(q)  e(spline) 
   0     11    11.404     7.198    0.14E-04    0.26E-04    0.99E-07
   0     11    11.404    15.603    0.29E-04    0.72E-04    0.44E-06
   1     10    11.404     3.746    0.20E-04    0.24E-04    0.43E-07
   1     10    11.404     4.362    0.22E-03    0.97E-04    0.22E-06
   2     10    11.404     5.782    0.83E-04    0.62E-05    0.27E-06
   2     10    11.404    65.505    0.42E-03    0.31E-04    0.12E-05
 Optimization of the real space projectors (new method)

 maximal supplied QI-value         = 19.84
 optimisation between [QCUT,QGAM] = [ 11.31, 22.82] = [ 35.82,145.81] Ry 
 Optimized for a Real-space Cutoff    1.16 Angstroem

   l    n(q)    QCUT    max X(q) W(low)/X(q) W(high)/X(q)  e(spline) 
   0      8    11.310     8.708    0.14E-04    0.11E-04    0.43E-08
   0      8    11.310   106.241    0.27E-03    0.30E-03    0.38E-07
   1      7    11.310     5.901    0.82E-05    0.48E-04    0.19E-07
   1      7    11.310    73.241    0.27E-03    0.27E-03    0.74E-07

 ----------------------------------------------------------------------------- 
|                                                                             |
|  ADVICE TO THIS USER RUNNING 'VASP/VAMP'   (HEAR YOUR MASTER'S VOICE ...):  |
|                                                                             |
|      You enforced a specific xc-type in the INCAR file,                     |
|      a different type was found on the POTCAR file                          |
|          I HOPE YOU KNOW, WHAT YOU ARE  DOING                               |
|                                                                             |
 ----------------------------------------------------------------------------- 

 PAW_PBE Ba_sv 06Sep2000                :
 energy of atom  1       EATOM= -700.2255
 kinetic energy error for atom=    0.0005 (will be added to EATOM!!)
 PAW_PBE Si 05Jan2001                   :
 energy of atom  2       EATOM= -103.0669
 kinetic energy error for atom=    0.0006 (will be added to EATOM!!)
 
 
 POSCAR: ba8 si16                                
  positions in direct lattice
  velocities in cartesian coordinates
 exchange correlation table for  LEXCH =       43
   RHO(1)=    0.500       N(1)  =     2000
   RHO(2)=  100.500       N(2)  =     4000
 


--------------------------------------------------------------------------------------------------------


 ion  position               nearest neighbor table
   1  0.006  0.250  0.706-  21 3.42  16 3.45  11 3.45  17 3.66  17 3.66   5 4.39   5 4.39   7 4.61
                             4 4.72
   2  0.372  0.750  0.294-  22 3.42  12 3.45  15 3.45  18 3.66  18 3.66   6 4.39   6 4.39   8 4.61
                             3 4.72
   3  0.182  0.750  0.187-  20 3.30  22 3.40  12 3.42  15 3.42   9 3.44  14 3.44  19 3.64  19 3.64
                            23 3.73   5 4.28   7 4.39   7 4.39   2 4.72
   4  0.195  0.250  0.813-  19 3.30  21 3.40  16 3.42  11 3.42  13 3.44  10 3.44  20 3.64  20 3.64
                            24 3.73   6 4.28   8 4.39   8 4.39   1 4.72
   5  0.060  0.750  0.918-   9 3.44  14 3.44  21 3.45  21 3.45  11 3.51  16 3.51  17 3.76  20 3.87
                             3 4.28   1 4.39   1 4.39
   6  0.318  0.250  0.082-  13 3.44  10 3.44  22 3.45  22 3.45  15 3.51  12 3.51  18 3.76  19 3.87
                             4 4.28   2 4.39   2 4.39
   7  0.128  0.250  0.399-  14 3.44   9 3.44  15 3.52  12 3.52  23 3.52  23 3.52  24 3.57  19 3.70
                            16 3.72  11 3.72   3 4.39   3 4.39   1 4.61
   8  0.249  0.750  0.601-  10 3.44  13 3.44  11 3.52  16 3.52  24 3.52  24 3.52  23 3.57  20 3.70
                            12 3.72  15 3.72   4 4.39   4 4.39   2 4.61
   9  0.073  0.072  0.146-  14 2.41  21 2.44  19 2.44   7 3.44   3 3.44   5 3.44
  10  0.304  0.928  0.854-  13 2.41  22 2.44  20 2.44   8 3.44   4 3.44   6 3.44
  11  0.115  0.929  0.658-  16 2.42  23 2.44  17 2.44   4 3.42   1 3.45   5 3.51   8 3.52   7 3.72

  12  0.263  0.071  0.342-  15 2.42  24 2.44  18 2.44   3 3.42   2 3.45   6 3.51   7 3.52   8 3.72

  13  0.304  0.572  0.854-  10 2.41  22 2.44  20 2.44   8 3.44   4 3.44   6 3.44
  14  0.073  0.428  0.146-   9 2.41  21 2.44  19 2.44   7 3.44   3 3.44   5 3.44
  15  0.263  0.429  0.342-  12 2.42  24 2.44  18 2.44   3 3.42   2 3.45   6 3.51   7 3.52   8 3.72

  16  0.115  0.571  0.658-  11 2.42  23 2.44  17 2.44   4 3.42   1 3.45   5 3.51   8 3.52   7 3.72

  17  0.031  0.750  0.599-  23 2.44  11 2.44  16 2.44   1 3.66   1 3.66   5 3.76
  18  0.346  0.250  0.401-  24 2.44  15 2.44  12 2.44   2 3.66   2 3.66   6 3.76
  19  0.157  0.250  0.086-  21 2.43  14 2.44   9 2.44   4 3.30   3 3.64   3 3.64   7 3.70   6 3.87

  20  0.221  0.750  0.914-  22 2.43  10 2.44  13 2.44   3 3.30   4 3.64   4 3.64   8 3.70   5 3.87

  21  0.074  0.250  0.964-  19 2.43  14 2.44   9 2.44   4 3.40   1 3.42   5 3.45   5 3.45
  22  0.303  0.750  0.036-  20 2.43  10 2.44  13 2.44   3 3.40   2 3.42   6 3.45   6 3.45
  23  0.113  0.750  0.476-  11 2.44  16 2.44  17 2.44   7 3.52   7 3.52   8 3.57   3 3.73
  24  0.264  0.250  0.524-  15 2.44  12 2.44  18 2.44   8 3.52   8 3.52   7 3.57   4 3.73
 
  LATTYP: Found a simple orthorhombic cell.
 ALAT       =     6.7778496742
 B/A-ratio  =     1.7117734747
 C/A-ratio  =     3.5423429602
  
  Lattice vectors:
  
 A1 = (   0.0000000000,   6.7778496742,   0.0000000000)
 A2 = (   0.0000000000,   0.0000000000, -11.6021432877)
 A3 = ( -24.0094680786,   0.0000000000,   0.0000000000)


Analysis of symmetry for initial positions (statically):
=====================================================================
 Subroutine PRICEL returns:
 Original cell was already a primitive cell.
 

 Routine SETGRP: Setting up the symmetry group for a 
 simple orthorhombic supercell.


 Subroutine GETGRP returns: Found  4 space group operations
 (whereof  1 operations were pure point group operations)
 out of a pool of  8 trial point group operations.


The static configuration has the point symmetry C_1 .
 The point group associated with its full space group is C_2h.


Analysis of symmetry for dynamics (positions and initial velocities):
=====================================================================
 Subroutine PRICEL returns:
 Original cell was already a primitive cell.
 

 Routine SETGRP: Setting up the symmetry group for a 
 simple orthorhombic supercell.


 Subroutine GETGRP returns: Found  4 space group operations
 (whereof  1 operations were pure point group operations)
 out of a pool of  8 trial point group operations.


The dynamic configuration has the point symmetry C_1 .
 The point group associated with its full space group is C_2h.


Analysis of constrained symmetry for selective dynamics:
=====================================================================
 Subroutine PRICEL returns:
 Original cell was already a primitive cell.
 

 Routine SETGRP: Setting up the symmetry group for a 
 simple orthorhombic supercell.


 Subroutine GETGRP returns: Found  4 space group operations
 (whereof  1 operations were pure point group operations)
 out of a pool of  8 trial point group operations.


The constrained configuration has the point symmetry C_1 .
 The point group associated with its full space group is C_2h.


 Subroutine INISYM returns: Found  4 space group operations
 (whereof  1 operations are pure point group operations),
 and found     1 'primitive' translations

 
 
 KPOINTS: k-density: 8.0                          

Automatic generation of k-mesh.
Space group operators:
 irot       det(A)        alpha          n_x          n_y          n_z        tau_x        tau_y        tau_z
    1     1.000000     0.000000     1.000000     0.000000     0.000000     0.000000     0.000000     0.000000
    2    -1.000000     0.000000     1.000000     0.000000     0.000000    -0.622671     0.000000     0.000000
    3     1.000000   180.000000     0.000000     1.000000     0.000000    -0.622671     0.500000     0.000000
    4    -1.000000   180.000000     0.000000     1.000000     0.000000     0.000000     0.500000     0.000000
 
 Subroutine IBZKPT returns following result:
 ===========================================
 
 Found     15 irreducible k-points:
 
 Following reciprocal coordinates:
            Coordinates               Weight
  0.000000  0.000000  0.000000      1.000000
  0.000000  0.125000  0.000000      2.000000
  0.000000  0.250000  0.000000      2.000000
  0.000000  0.375000  0.000000      2.000000
  0.000000  0.500000  0.000000      1.000000
  0.000000  0.000000  0.200000      2.000000
  0.000000  0.125000  0.200000      4.000000
  0.000000  0.250000  0.200000      4.000000
  0.000000  0.375000  0.200000      4.000000
  0.000000  0.500000  0.200000      2.000000
  0.000000  0.000000  0.400000      2.000000
  0.000000  0.125000  0.400000      4.000000
  0.000000  0.250000  0.400000      4.000000
  0.000000  0.375000  0.400000      4.000000
  0.000000  0.500000  0.400000      2.000000
 
 Following cartesian coordinates:
            Coordinates               Weight
  0.000000  0.000000  0.000000      1.000000
  0.000000  0.018442  0.000000      2.000000
  0.000000  0.036885  0.000000      2.000000
  0.000000  0.055327  0.000000      2.000000
  0.000000  0.073770  0.000000      1.000000
  0.000000  0.000000  0.017238      2.000000
  0.000000  0.018442  0.017238      4.000000
  0.000000  0.036885  0.017238      4.000000
  0.000000  0.055327  0.017238      4.000000
  0.000000  0.073770  0.017238      2.000000
  0.000000  0.000000  0.034476      2.000000
  0.000000  0.018442  0.034476      4.000000
  0.000000  0.036885  0.034476      4.000000
  0.000000  0.055327  0.034476      4.000000
  0.000000  0.073770  0.034476      2.000000
 
 TETIRR: Found    108 inequivalent tetrahedra from      240


--------------------------------------------------------------------------------------------------------




 Dimension of arrays:
   k-points           NKPTS =     15   k-points in BZ     NKDIM =     15   number of bands    NBANDS=     88
   number of dos      NEDOS =    301   number of ions     NIONS =     24
   non local maximal  LDIM  =      6   non local SUM 2l+1 LMDIM =     18
   total plane-waves  NPLWV = 358400
   max r-space proj   IRMAX =   3093   max aug-charges    IRDMAX=  12081
   dimension x,y,z NGX =   140 NGY =   40 NGZ =   64
   dimension x,y,z NGXF=   280 NGYF=   80 NGZF=  128
   support grid    NGXF=   280 NGYF=   80 NGZF=  128
   ions per type =               8  16
   NGX,Y,Z   is equivalent  to a cutoff of   9.69,  9.81,  9.17 a.u.
   NGXF,Y,Z  is equivalent  to a cutoff of  19.39, 19.62, 18.34 a.u.

 SYSTEM =  unknown system                          
 POSCAR =  ba8 si16                                

 Startparameter for this run:
   NWRITE =      2    write-flag & timer
   PREC   = normal    normal or accurate (medium, high low for compatibility)
   ISTART =      0    job   : 0-new  1-cont  2-samecut
   ICHARG =      2    charge: 1-file 2-atom 10-const
   ISPIN  =      1    spin polarized calculation?
   LNONCOLLINEAR =      F non collinear calculations
   LSORBIT =      F    spin-orbit coupling
   INIWAV =      1    electr: 0-lowe 1-rand  2-diag
   LASPH  =      T    aspherical Exc in radial PAW
   METAGGA=      F    non-selfconsistent MetaGGA calc.

 Electronic Relaxation 1
   ENCUT  =  500.0 eV  36.75 Ry    6.06 a.u.  43.77 12.36 21.15*2*pi/ulx,y,z
   ENINI  =  500.0     initial cutoff
   ENAUG  =  351.2 eV  augmentation charge cutoff
   NELM   =    100;   NELMIN=  2; NELMDL= -5     # of ELM steps 
   EDIFF  = 0.1E-05   stopping-criterion for ELM
   LREAL  =      T    real-space projection
   NLSPLINE    = F    spline interpolate recip. space projectors
   LCOMPAT=      F    compatible to vasp.4.4
   GGA_COMPAT  = T    GGA compatible to vasp.4.4-vasp.4.6
   LMAXPAW     = -100 max onsite density
   LMAXMIX     =    2 max onsite mixed and CHGCAR
   VOSKOWN=      0    Vosko Wilk Nusair interpolation
   ROPT   =   -0.00050  -0.00050
 Ionic relaxation
   EDIFFG = -.1E-02   stopping-criterion for IOM
   NSW    =      0    number of steps for IOM
   NBLOCK =      1;   KBLOCK =      1    inner block; outer block 
   IBRION =     -1    ionic relax: 0-MD 1-quasi-New 2-CG
   NFREE  =      0    steps in history (QN), initial steepest desc. (CG)
   ISIF   =      2    stress and relaxation
   IWAVPR =     10    prediction:  0-non 1-charg 2-wave 3-comb
   ISYM   =      2    0-nonsym 1-usesym 2-fastsym
   LCORR  =      T    Harris-Foulkes like correction to forces

   POTIM  = 0.3000    time-step for ionic-motion
   TEIN   =    0.0    initial temperature
   TEBEG  =    0.0;   TEEND  =   0.0 temperature during run
   SMASS  =  -3.00    Nose mass-parameter (am)
   estimated Nose-frequenzy (Omega)   =  0.10E-29 period in steps =****** mass=  -0.132E-25a.u.
   SCALEE = 1.0000    scale energy and forces
   NPACO  =    256;   APACO  = 16.0  distance and # of slots for P.C.
   PSTRESS=    0.0 pullay stress

  Mass of Ions in am
   POMASS = 137.33 28.09
  Ionic Valenz
   ZVAL   =  10.00  4.00
  Atomic Wigner-Seitz radii
   RWIGS  =  -1.00 -1.00
  virtual crystal weights 
   VCA    =   1.00  1.00
   NELECT =     144.0000    total number of electrons
   NUPDOWN=      -1.0000    fix difference up-down

 DOS related values:
   EMIN   =  10.00;   EMAX   =-10.00  energy-range for DOS
   EFERMI =   0.00
   ISMEAR =    -5;   SIGMA  =   0.01  broadening in eV -4-tet -1-fermi 0-gaus

 Electronic relaxation 2 (details)
   IALGO  =     38    algorithm
   LDIAG  =      T    sub-space diagonalisation (order eigenvalues)
   LSUBROT=      F    optimize rotation matrix (better conditioning)
   TURBO    =      0    0=normal 1=particle mesh
   IRESTART =      0    0=no restart 2=restart with 2 vectors
   NREBOOT  =      0    no. of reboots
   NMIN     =      0    reboot dimension
   EREF     =   0.00    reference energy to select bands
   IMIX   =      4    mixing-type and parameters
     AMIX     =   0.40;   BMIX     =  1.00
     AMIX_MAG =   1.60;   BMIX_MAG =  1.00
     AMIN     =   0.10
     WC   =   100.;   INIMIX=   1;  MIXPRE=   1;  MAXMIX= -45

 Intra band minimization:
   WEIMIN = 0.0000     energy-eigenvalue tresh-hold
   EBREAK =  0.28E-08  absolut break condition
   DEPER  =   0.30     relativ break condition  

   TIME   =   0.40     timestep for ELM

  volume/ion in A,a.u.               =      78.67       530.88
  Fermi-wavevector in a.u.,A,eV,Ry     =   0.694264  1.311969  6.558046  0.482003
  Thomas-Fermi vector in A             =   1.776709
 
 Write flags
   LWAVE        =      T    write WAVECAR
   LDOWNSAMPLE  =      F    k-point downsampling of WAVECAR
   LCHARG       =      T    write CHGCAR
   LVTOT        =      F    write LOCPOT, total local potential
   LVHAR        =      F    write LOCPOT, Hartree potential only
   LELF         =      F    write electronic localiz. function (ELF)
   LORBIT       =      0    0 simple, 1 ext, 2 COOP (PROOUT), +10 PAW based schemes


 Dipole corrections
   LMONO  =      F    monopole corrections only (constant potential shift)
   LDIPOL =      F    correct potential (dipole corrections)
   IDIPOL =      0    1-x, 2-y, 3-z, 4-all directions 
   EPSILON=  1.0000000 bulk dielectric constant

 Exchange correlation treatment:
   GGA     =    MK    GGA type
   LEXCH   =    43    internal setting for exchange type
   VOSKOWN=      0    Vosko Wilk Nusair interpolation
   LHFCALC =     F    Hartree Fock is set to
   LHFONE  =     F    Hartree Fock one center treatment
   AEXX    =    0.0000 exact exchange contribution

 vdW DFT:
   LUSE_VDW   =     T    switch on vdW DFT
   Zab_VDW    =******    correlation parameter
   PARAM1     =0.1234
   PARAM2     =0.7114
   PARAM3     =0.0000
   -- rVV10 --
   BPARAM     = 6.3000
   CPARAM     = 0.0093

 Linear response parameters
   LEPSILON=     F    determine dielectric tensor
   LRPA    =     F    only Hartree local field effects (RPA)
   LNABLA  =     F    use nabla operator in PAW spheres
   LVEL    =     F    velocity operator in full k-point grid
   LINTERFAST=   F  fast interpolation
   KINTER  =     0    interpolate to denser k-point grid
   CSHIFT  =0.1000    complex shift for real part using Kramers Kronig
   OMEGAMAX=  -1.0    maximum frequency
   DEG_THRESHOLD= 0.2000000E-02 threshold for treating states as degnerate
   RTIME   =   -0.100 relaxation time in fs
  (WPLASMAI=    0.000 imaginary part of plasma frequency in eV, 0.658/RTIME)
   DFIELD  = 0.0000000 0.0000000 0.0000000 field for delta impulse in time
 
 Orbital magnetization related:
   ORBITALMAG=     F  switch on orbital magnetization
   LCHIMAG   =     F  perturbation theory with respect to B field
   DQ        =  0.001000  dq finite difference perturbation B field
   LLRAUG    =     F  two centre corrections for induced B field



--------------------------------------------------------------------------------------------------------


 Static calculation
 charge density and potential will be updated during run
 non-spin polarized calculation
 Variant of blocked Davidson
 Davidson routine will perform the subspace rotation
 perform sub-space diagonalisation
    after iterative eigenvector-optimisation
 modified Broyden-mixing scheme, WC =      100.0
 initial mixing is a Kerker type mixing with AMIX =  0.4000 and BMIX =      1.0000
 Hartree-type preconditioning will be used
 using additional bands           16
 real space projection scheme for non local part
 use partial core corrections
 calculate Harris-corrections to forces 
   (improved forces if not selfconsistent)
 use gradient corrections 
 use of overlap-Matrix (Vanderbilt PP)
 Fermi weights with tetrahedron method with Bloechl corrections


--------------------------------------------------------------------------------------------------------


  energy-cutoff  :      500.00
  volume of cell :     1888.05
      direct lattice vectors                 reciprocal lattice vectors
    24.009468079  0.000000000  0.000000000     0.041650236  0.000000000  0.000000000
     0.000000000  6.777849674  0.000000000     0.000000000  0.147539419  0.000000000
     0.000000000  0.000000000 11.602143288     0.000000000  0.000000000  0.086190971

  length of vectors
    24.009468079  6.777849674 11.602143288     0.041650236  0.147539419  0.086190971


 
 k-points in units of 2pi/SCALE and weight: k-density: 8.0                          
   0.00000000  0.00000000  0.00000000       0.025
   0.00000000  0.01844243  0.00000000       0.050
   0.00000000  0.03688485  0.00000000       0.050
   0.00000000  0.05532728  0.00000000       0.050
   0.00000000  0.07376971  0.00000000       0.025
   0.00000000  0.00000000  0.01723819       0.050
   0.00000000  0.01844243  0.01723819       0.100
   0.00000000  0.03688485  0.01723819       0.100
   0.00000000  0.05532728  0.01723819       0.100
   0.00000000  0.07376971  0.01723819       0.050
   0.00000000  0.00000000  0.03447639       0.050
   0.00000000  0.01844243  0.03447639       0.100
   0.00000000  0.03688485  0.03447639       0.100
   0.00000000  0.05532728  0.03447639       0.100
   0.00000000  0.07376971  0.03447639       0.050
 
 k-points in reciprocal lattice and weights: k-density: 8.0                          
   0.00000000  0.00000000  0.00000000       0.025
   0.00000000  0.12500000  0.00000000       0.050
   0.00000000  0.25000000  0.00000000       0.050
   0.00000000  0.37500000  0.00000000       0.050
   0.00000000  0.50000000  0.00000000       0.025
   0.00000000  0.00000000  0.20000000       0.050
   0.00000000  0.12500000  0.20000000       0.100
   0.00000000  0.25000000  0.20000000       0.100
   0.00000000  0.37500000  0.20000000       0.100
   0.00000000  0.50000000  0.20000000       0.050
   0.00000000  0.00000000  0.40000000       0.050
   0.00000000  0.12500000  0.40000000       0.100
   0.00000000  0.25000000  0.40000000       0.100
   0.00000000  0.37500000  0.40000000       0.100
   0.00000000  0.50000000  0.40000000       0.050
 
 position of ions in fractional coordinates (direct lattice) 
   0.00569361  0.25000000  0.70578828
   0.37163537  0.75000002  0.29421172
   0.18192962  0.75000002  0.18705418
   0.19539936  0.25000000  0.81294580
   0.05978014  0.75000002  0.91828255
   0.31754884  0.25000000  0.08171743
   0.12784309  0.25000000  0.39946470
   0.24948589  0.75000002  0.60053534
   0.07289913  0.07198896  0.14638656
   0.30442985  0.92801103  0.85361342
   0.11472410  0.92864101  0.65849098
   0.26260488  0.07135898  0.34150902
   0.30442985  0.57198897  0.85361342
   0.07289913  0.42801103  0.14638656
   0.26260488  0.42864101  0.34150902
   0.11472410  0.57135899  0.65849098
   0.03110981  0.75000002  0.59935155
   0.34621916  0.25000000  0.40064845
   0.15651343  0.25000000  0.08616392
   0.22081556  0.75000002  0.91383606
   0.07418398  0.25000000  0.96383518
   0.30314500  0.75000002  0.03616484
   0.11343925  0.75000002  0.47592568
   0.26388973  0.25000000  0.52407423
 
 position of ions in cartesian coordinates  (Angst):
   0.13670066  1.69446242  8.18865676
   8.92276745  5.08338737  3.41348652
   4.36803341  5.08338737  2.17022943
   4.69143467  1.69446242  9.43191362
   1.43528938  5.08338737 10.65404567
   7.62417870  1.69446242  0.94809738
   3.06944466  1.69446242  4.63464672
   5.99002342  5.08338737  6.96749704
   1.75026941  0.48793034  1.69839786
   7.30919867  6.28991927  9.90374519
   2.75446463  6.29418919  7.63990666
   6.30500345  0.48366043  3.96223663
   7.30919867  3.87685524  9.90374519
   1.75026941  2.90099444  1.69839786
   6.30500345  2.90526435  3.96223663
   2.75446463  3.87258532  7.63990666
   0.74692994  5.08338737  6.95376251
   8.31253796  1.69446242  4.64838078
   3.75780416  1.69446242  0.99968616
   5.30166416  5.08338737 10.60245689
   1.78111780  1.69446242 11.18255384
   7.27835016  5.08338737  0.41958962
   2.72361612  5.08338737  5.52175797
   6.33585195  1.69446242  6.08038436
 


--------------------------------------------------------------------------------------------------------


 k-point  1 :   0.0000 0.0000 0.0000  plane waves:   47989
 k-point  2 :   0.0000 0.1250 0.0000  plane waves:   47929
 k-point  3 :   0.0000 0.2500 0.0000  plane waves:   47901
 k-point  4 :   0.0000 0.3750 0.0000  plane waves:   47910
 k-point  5 :   0.0000 0.5000 0.0000  plane waves:   47868
 k-point  6 :   0.0000 0.0000 0.2000  plane waves:   48006
 k-point  7 :   0.0000 0.1250 0.2000  plane waves:   47967
 k-point  8 :   0.0000 0.2500 0.2000  plane waves:   47907
 k-point  9 :   0.0000 0.3750 0.2000  plane waves:   47884
 k-point 10 :   0.0000 0.5000 0.2000  plane waves:   47884
 k-point 11 :   0.0000 0.0000 0.4000  plane waves:   47922
 k-point 12 :   0.0000 0.1250 0.4000  plane waves:   47954
 k-point 13 :   0.0000 0.2500 0.4000  plane waves:   47967
 k-point 14 :   0.0000 0.3750 0.4000  plane waves:   47928
 k-point 15 :   0.0000 0.5000 0.4000  plane waves:   47890

 maximum and minimum number of plane-waves per node :     12077    11868

 maximum number of plane-waves:     48006
 maximum index in each direction: 
   IXMAX=   43   IYMAX=   12   IZMAX=   21
   IXMIN=  -43   IYMIN=  -12   IZMIN=  -21


 real space projection operators:
  total allocation   :       4530.22 KBytes
  max/ min on nodes  :       1133.67       1131.78


 parallel 3D FFT for wavefunctions:
    minimum data exchange during FFTs selected (reduces bandwidth)
 parallel 3D FFT for charge:
    minimum data exchange during FFTs selected (reduces bandwidth)


 total amount of memory used by VASP MPI-rank0    79352. kBytes
=======================================================================

   base      :      30000. kBytes
   nonlr-proj:       2646. kBytes
   fftplans  :       5898. kBytes
   grid      :       8824. kBytes
   one-center:         93. kBytes
   wavefun   :      31891. kBytes
 
     INWAV:  cpu time    0.0000: real time    0.0000
 Broyden mixing: mesh for mixing (old mesh)
   NGX = 87   NGY = 25   NGZ = 43
  (NGX  =280   NGY  = 80   NGZ  =128)
  gives a total of  93525 points

 initial charge density was supplied:
 charge density of overlapping atoms calculated
 number of electron     144.0000000 magnetization 
 keeping initial charge density in first step


--------------------------------------------------------------------------------------------------------


 Maximum index for non-local projection operator          747
 Maximum index for augmentation-charges          599 (set IRDMAX)


--------------------------------------------------------------------------------------------------------


 First call to EWALD:  gamma=   0.143
 Maximum number of real-space cells 2x 5x 3
 Maximum number of reciprocal cells 5x 2x 3

    FEWALD:  cpu time    0.0019: real time    0.0019


--------------------------------------- Iteration      1(   1)  ---------------------------------------


    POTLOK:  cpu time13507.6668: real time13539.5505
    SETDIJ:  cpu time   97.6601: real time   97.8904
     EDDAV:  cpu time    2.6380: real time    2.8544
 BZINTS: Fermi energy:  6.873533;144.000000 electrons
         Band energy:-476.548705;  BLOECHL correction: -0.027162
       DOS:  cpu time    0.0125: real time    0.0386
    --------------------------------------------
      LOOP:  cpu time13607.9775: real time13640.3339

 eigenvalue-minimisations  :  2768
 total energy-change (2. order) : 0.1202655E+04  (-0.4774199E+04)
 number of electron     144.0000000 magnetization 
 augmentation part      144.0000000 magnetization 

 Free energy of the ion-electron system (eV)
  ---------------------------------------------------
  alpha Z        PSCENC =       170.45750602
  Ewald energy   TEWEN  =     12488.76520436
  -Hartree energ DENC   =    -18597.55939687
  -exchange      EXHF   =         0.00000000
  -V(xc)+E(xc)   XCENC  =        38.16699247
  PAW double counting   =      3696.57165193    -3386.34934349
  entropy T*S    EENTRO =         0.00000000
  eigenvalues    EBANDS =      -476.54870483
  atomic energy  EATOM  =      7269.15145414
  Solvation  Ediel_sol  =         0.00000000
  ---------------------------------------------------
  free energy    TOTEN  =      1202.65536373 eV

  energy without entropy =     1202.65536373  energy(sigma->0) =     1202.65536373


--------------------------------------------------------------------------------------------------------




--------------------------------------- Iteration      1(   2)  ---------------------------------------


     EDDAV:  cpu time    3.4098: real time    3.4739
 BZINTS: Fermi energy: -2.063865;144.000000 electrons
         Band energy:***********;  BLOECHL correction:  0.000000
       DOS:  cpu time    0.0026: real time    0.0026
    --------------------------------------------
      LOOP:  cpu time    3.4123: real time    3.4765

 eigenvalue-minimisations  :  3792
 total energy-change (2. order) :-0.1124152E+04  (-0.1094625E+04)
 number of electron     144.0000000 magnetization 
 augmentation part      144.0000000 magnetization 

 Free energy of the ion-electron system (eV)
  ---------------------------------------------------
  alpha Z        PSCENC =       170.45750602
  Ewald energy   TEWEN  =     12488.76520436
  -Hartree energ DENC   =    -18597.55939687
  -exchange      EXHF   =         0.00000000
  -V(xc)+E(xc)   XCENC  =        38.16699247
  PAW double counting   =      3696.57165193    -3386.34934349
  entropy T*S    EENTRO =         0.00000000
  eigenvalues    EBANDS =     -1600.70057794
  atomic energy  EATOM  =      7269.15145414
  Solvation  Ediel_sol  =         0.00000000
  ---------------------------------------------------
  free energy    TOTEN  =        78.50349062 eV

  energy without entropy =       78.50349062  energy(sigma->0) =       78.50349062


--------------------------------------------------------------------------------------------------------




--------------------------------------- Iteration      1(   3)  ---------------------------------------


     EDDAV:  cpu time    3.0415: real time    3.1165
 BZINTS: Fermi energy: -3.405518;144.000000 electrons
         Band energy:***********;  BLOECHL correction:  0.000000
       DOS:  cpu time    0.0021: real time    0.0021
    --------------------------------------------
      LOOP:  cpu time    3.0436: real time    3.1186

 eigenvalue-minimisations  :  3232
 total energy-change (2. order) :-0.1723413E+03  (-0.1716072E+03)
 number of electron     144.0000000 magnetization 
 augmentation part      144.0000000 magnetization 

 Free energy of the ion-electron system (eV)
  ---------------------------------------------------
  alpha Z        PSCENC =       170.45750602
  Ewald energy   TEWEN  =     12488.76520436
  -Hartree energ DENC   =    -18597.55939687
  -exchange      EXHF   =         0.00000000
  -V(xc)+E(xc)   XCENC  =        38.16699247
  PAW double counting   =      3696.57165193    -3386.34934349
  entropy T*S    EENTRO =         0.00000000
  eigenvalues    EBANDS =     -1773.04189460
  atomic energy  EATOM  =      7269.15145414
  Solvation  Ediel_sol  =         0.00000000
  ---------------------------------------------------
  free energy    TOTEN  =       -93.83782603 eV

  energy without entropy =      -93.83782603  energy(sigma->0) =      -93.83782603


--------------------------------------------------------------------------------------------------------




--------------------------------------- Iteration      1(   4)  ---------------------------------------


     EDDAV:  cpu time    3.3942: real time    3.4489
 BZINTS: Fermi energy: -3.407344;144.000000 electrons
         Band energy:***********;  BLOECHL correction:  0.000000
       DOS:  cpu time    0.0024: real time    0.0024
    --------------------------------------------
      LOOP:  cpu time    3.3966: real time    3.4513

 eigenvalue-minimisations  :  3752
 total energy-change (2. order) :-0.6028774E+01  (-0.6012458E+01)
 number of electron     144.0000000 magnetization 
 augmentation part      144.0000000 magnetization 

 Free energy of the ion-electron system (eV)
  ---------------------------------------------------
  alpha Z        PSCENC =       170.45750602
  Ewald energy   TEWEN  =     12488.76520436
  -Hartree energ DENC   =    -18597.55939687
  -exchange      EXHF   =         0.00000000
  -V(xc)+E(xc)   XCENC  =        38.16699247
  PAW double counting   =      3696.57165193    -3386.34934349
  entropy T*S    EENTRO =         0.00000000
  eigenvalues    EBANDS =     -1779.07066856
  atomic energy  EATOM  =      7269.15145414
  Solvation  Ediel_sol  =         0.00000000
  ---------------------------------------------------
  free energy    TOTEN  =       -99.86660000 eV

  energy without entropy =      -99.86660000  energy(sigma->0) =      -99.86660000


--------------------------------------------------------------------------------------------------------




--------------------------------------- Iteration      1(   5)  ---------------------------------------


     EDDAV:  cpu time    3.6786: real time    3.6982
 BZINTS: Fermi energy: -3.447972;144.000000 electrons
         Band energy:***********;  BLOECHL correction:  0.000000
       DOS:  cpu time    0.0020: real time    0.0020
    CHARGE:  cpu time    0.1504: real time    0.1640
    MIXING:  cpu time    0.0053: real time    0.0102
    --------------------------------------------
      LOOP:  cpu time    3.8364: real time    3.8745

 eigenvalue-minimisations  :  4200
 total energy-change (2. order) :-0.2771670E+00  (-0.2770869E+00)
 number of electron     143.9999989 magnetization 
 augmentation part      -17.6828431 magnetization 

 Broyden mixing:
  rms(total) = 0.90149E+00    rms(broyden)= 0.90148E+00
  rms(prec ) = 0.11891E+01
  weight for this iteration     100.00

 Free energy of the ion-electron system (eV)
  ---------------------------------------------------
  alpha Z        PSCENC =       170.45750602
  Ewald energy   TEWEN  =     12488.76520436
  -Hartree energ DENC   =    -18597.55939687
  -exchange      EXHF   =         0.00000000
  -V(xc)+E(xc)   XCENC  =        38.16699247
  PAW double counting   =      3696.57165193    -3386.34934349
  entropy T*S    EENTRO =         0.00000000
  eigenvalues    EBANDS =     -1779.34783557
  atomic energy  EATOM  =      7269.15145414
  Solvation  Ediel_sol  =         0.00000000
  ---------------------------------------------------
  free energy    TOTEN  =      -100.14376701 eV

  energy without entropy =     -100.14376701  energy(sigma->0) =     -100.14376701


--------------------------------------------------------------------------------------------------------




--------------------------------------- Iteration      1(   6)  ---------------------------------------


    POTLOK:  cpu time    2.5660: real time    2.5831
    SETDIJ:  cpu time    0.0016: real time    0.0016
     EDDAV:  cpu time    2.7605: real time    2.7671
 BZINTS: Fermi energy: -2.230386;144.000000 electrons
         Band energy:***********;  BLOECHL correction:  0.000000
       DOS:  cpu time    0.0027: real time    0.0027
    CHARGE:  cpu time    0.1491: real time    0.1494
    MIXING:  cpu time    0.0062: real time    0.0063
    --------------------------------------------
      LOOP:  cpu time    5.4861: real time    5.5102

 eigenvalue-minimisations  :  3008
 total energy-change (2. order) : 0.8126185E+01  (-0.2027544E+01)
 number of electron     143.9999989 magnetization 
 augmentation part      -17.5666488 magnetization 

 Broyden mixing:
  rms(total) = 0.46229E+00    rms(broyden)= 0.46229E+00
  rms(prec ) = 0.58369E+00
  weight for this iteration     100.00

 eigenvalues of (default mixing * dielectric matrix)
  average eigenvalue GAMMA=   1.5330
  1.5330

 Free energy of the ion-electron system (eV)
  ---------------------------------------------------
  alpha Z        PSCENC =       170.45750602
  Ewald energy   TEWEN  =     12488.76520436
  -Hartree energ DENC   =    -18697.65345174
  -exchange      EXHF   =         0.00000000
  -V(xc)+E(xc)   XCENC  =        40.74313756
  PAW double counting   =      3735.10546248    -3431.94681048
  entropy T*S    EENTRO =         0.00000000
  eigenvalues    EBANDS =     -1666.64008454
  atomic energy  EATOM  =      7269.15145414
  Solvation  Ediel_sol  =         0.00000000
  ---------------------------------------------------
  free energy    TOTEN  =       -92.01758220 eV

  energy without entropy =      -92.01758220  energy(sigma->0) =      -92.01758220


--------------------------------------------------------------------------------------------------------




--------------------------------------- Iteration      1(   7)  ---------------------------------------


    POTLOK:  cpu time    2.4773: real time    2.4943
    SETDIJ:  cpu time    0.0017: real time    0.0017
     EDDAV:  cpu time    3.1229: real time    3.1302
 BZINTS: Fermi energy: -1.439209;144.000000 electrons
         Band energy:***********;  BLOECHL correction:  0.000000
       DOS:  cpu time    0.0023: real time    0.0023
    CHARGE:  cpu time    0.1488: real time    0.1492
    MIXING:  cpu time    0.0051: real time    0.0054
    --------------------------------------------
      LOOP:  cpu time    5.7582: real time    5.7832

 eigenvalue-minimisations  :  3480
 total energy-change (2. order) : 0.1331508E+01  (-0.9572333E+00)
 number of electron     143.9999988 magnetization 
 augmentation part      -17.6304084 magnetization 

 Broyden mixing:
  rms(total) = 0.24586E+00    rms(broyden)= 0.24586E+00
  rms(prec ) = 0.29543E+00
  weight for this iteration     100.00

 eigenvalues of (default mixing * dielectric matrix)
  average eigenvalue GAMMA=   1.8335
  1.8335  1.8335

 Free energy of the ion-electron system (eV)
  ---------------------------------------------------
  alpha Z        PSCENC =       170.45750602
  Ewald energy   TEWEN  =     12488.76520436
  -Hartree energ DENC   =    -18777.65303571
  -exchange      EXHF   =         0.00000000
  -V(xc)+E(xc)   XCENC  =        42.92410153
  PAW double counting   =      3783.13107474    -3485.73181070
  entropy T*S    EENTRO =         0.00000000
  eigenvalues    EBANDS =     -1581.73056877
  atomic energy  EATOM  =      7269.15145414
  Solvation  Ediel_sol  =         0.00000000
  ---------------------------------------------------
  free energy    TOTEN  =       -90.68607439 eV

  energy without entropy =      -90.68607439  energy(sigma->0) =      -90.68607439


--------------------------------------------------------------------------------------------------------




--------------------------------------- Iteration      1(   8)  ---------------------------------------


    POTLOK:  cpu time    2.5903: real time    2.6079
    SETDIJ:  cpu time    0.0019: real time    0.0019
     EDDAV:  cpu time    2.8965: real time    2.9034
 BZINTS: Fermi energy: -1.263207;144.000000 electrons
         Band energy:***********;  BLOECHL correction:  0.000000
       DOS:  cpu time    0.0027: real time    0.0027
    CHARGE:  cpu time    0.1504: real time    0.1507
    MIXING:  cpu time    0.0053: real time    0.0057
    --------------------------------------------
      LOOP:  cpu time    5.6471: real time    5.6723

 eigenvalue-minimisations  :  3120
 total energy-change (2. order) : 0.2612117E+00  (-0.3500429E+00)
 number of electron     143.9999988 magnetization 
 augmentation part      -17.7413523 magnetization 

 Broyden mixing:
  rms(total) = 0.11591E+00    rms(broyden)= 0.11591E+00
  rms(prec ) = 0.18989E+00
  weight for this iteration     100.00

 eigenvalues of (default mixing * dielectric matrix)
  average eigenvalue GAMMA=   1.6763
  2.6337  1.1976  1.1976

 Free energy of the ion-electron system (eV)
  ---------------------------------------------------
  alpha Z        PSCENC =       170.45750602
  Ewald energy   TEWEN  =     12488.76520436
  -Hartree energ DENC   =    -18811.18545037
  -exchange      EXHF   =         0.00000000
  -V(xc)+E(xc)   XCENC  =        43.87052301
  PAW double counting   =      3831.20288906    -3535.66080503
  entropy T*S    EENTRO =         0.00000000
  eigenvalues    EBANDS =     -1547.02618386
  atomic energy  EATOM  =      7269.15145414
  Solvation  Ediel_sol  =         0.00000000
  ---------------------------------------------------
  free energy    TOTEN  =       -90.42486266 eV

  energy without entropy =      -90.42486266  energy(sigma->0) =      -90.42486266


--------------------------------------------------------------------------------------------------------




--------------------------------------- Iteration      1(   9)  ---------------------------------------


    POTLOK:  cpu time    2.3988: real time    2.4159
    SETDIJ:  cpu time    0.0031: real time    0.0031
     EDDAV:  cpu time    2.7943: real time    2.8009
 BZINTS: Fermi energy: -0.849684;144.000000 electrons
         Band energy:***********;  BLOECHL correction:  0.000000
       DOS:  cpu time    0.0027: real time    0.0027
    CHARGE:  cpu time    0.1490: real time    0.1493
    MIXING:  cpu time    0.0050: real time    0.0050
    --------------------------------------------
      LOOP:  cpu time    5.3528: real time    5.3769

 eigenvalue-minimisations  :  3104
 total energy-change (2. order) : 0.2668923E+00  (-0.1218336E+00)
 number of electron     143.9999988 magnetization 
 augmentation part      -17.7113001 magnetization 

 Broyden mixing:
  rms(total) = 0.56388E-01    rms(broyden)= 0.56387E-01
  rms(prec ) = 0.77570E-01
  weight for this iteration     100.00

 eigenvalues of (default mixing * dielectric matrix)
  average eigenvalue GAMMA=   1.4043
  2.5655  1.2085  1.2085  0.6347

 Free energy of the ion-electron system (eV)
  ---------------------------------------------------
  alpha Z        PSCENC =       170.45750602
  Ewald energy   TEWEN  =     12488.76520436
  -Hartree energ DENC   =    -18853.84549979
  -exchange      EXHF   =         0.00000000
  -V(xc)+E(xc)   XCENC  =        44.77745460
  PAW double counting   =      3843.37293817    -3549.22683546
  entropy T*S    EENTRO =         0.00000000
  eigenvalues    EBANDS =     -1503.61019235
  atomic energy  EATOM  =      7269.15145414
  Solvation  Ediel_sol  =         0.00000000
  ---------------------------------------------------
  free energy    TOTEN  =       -90.15797031 eV

  energy without entropy =      -90.15797031  energy(sigma->0) =      -90.15797031


--------------------------------------------------------------------------------------------------------




--------------------------------------- Iteration      1(  10)  ---------------------------------------


    POTLOK:  cpu time    2.4626: real time    2.4797
    SETDIJ:  cpu time    0.0016: real time    0.0016
     EDDAV:  cpu time    3.1677: real time    3.1752
 BZINTS: Fermi energy: -0.815780;144.000000 electrons
         Band energy:***********;  BLOECHL correction:  0.000000
       DOS:  cpu time    0.0023: real time    0.0023
    CHARGE:  cpu time    0.1558: real time    0.1562
    MIXING:  cpu time    0.0077: real time    0.0078
    --------------------------------------------
      LOOP:  cpu time    5.7977: real time    5.8228

 eigenvalue-minimisations  :  3488
 total energy-change (2. order) : 0.1158718E-01  (-0.2202051E-01)
 number of electron     143.9999988 magnetization 
 augmentation part      -17.7282446 magnetization 

 Broyden mixing:
  rms(total) = 0.40028E-01    rms(broyden)= 0.40028E-01
  rms(prec ) = 0.60070E-01
  weight for this iteration     100.00

 eigenvalues of (default mixing * dielectric matrix)
  average eigenvalue GAMMA=   1.5557
  2.4181  2.3353  1.1350  0.9451  0.9451

 Free energy of the ion-electron system (eV)
  ---------------------------------------------------
  alpha Z        PSCENC =       170.45750602
  Ewald energy   TEWEN  =     12488.76520436
  -Hartree energ DENC   =    -18860.38018870
  -exchange      EXHF   =         0.00000000
  -V(xc)+E(xc)   XCENC  =        44.75816948
  PAW double counting   =      3838.22546393    -3543.71350828
  entropy T*S    EENTRO =         0.00000000
  eigenvalues    EBANDS =     -1497.41048409
  atomic energy  EATOM  =      7269.15145414
  Solvation  Ediel_sol  =         0.00000000
  ---------------------------------------------------
  free energy    TOTEN  =       -90.14638314 eV

  energy without entropy =      -90.14638314  energy(sigma->0) =      -90.14638314


--------------------------------------------------------------------------------------------------------




--------------------------------------- Iteration      1(  11)  ---------------------------------------


    POTLOK:  cpu time    2.5886: real time    2.6048
    SETDIJ:  cpu time    0.0018: real time    0.0018
     EDDAV:  cpu time    2.9877: real time    2.9948
 BZINTS: Fermi energy: -0.713068;144.000000 electrons
         Band energy:***********;  BLOECHL correction:  0.000000
       DOS:  cpu time    0.0023: real time    0.0023
    CHARGE:  cpu time    0.1617: real time    0.1621
    MIXING:  cpu time    0.0052: real time    0.0053
    --------------------------------------------
      LOOP:  cpu time    5.7473: real time    5.7711

 eigenvalue-minimisations  :  3192
 total energy-change (2. order) : 0.7081391E-01  (-0.6399876E-02)
 number of electron     143.9999988 magnetization 
 augmentation part      -17.7309087 magnetization 

 Broyden mixing:
  rms(total) = 0.16039E-01    rms(broyden)= 0.16039E-01
  rms(prec ) = 0.31672E-01
  weight for this iteration     100.00

 eigenvalues of (default mixing * dielectric matrix)
  average eigenvalue GAMMA=   1.5879
  2.7209  2.7209  1.2836  0.9606  0.9606  0.8812

 Free energy of the ion-electron system (eV)
  ---------------------------------------------------
  alpha Z        PSCENC =       170.45750602
  Ewald energy   TEWEN  =     12488.76520436
  -Hartree energ DENC   =    -18876.38292923
  -exchange      EXHF   =         0.00000000
  -V(xc)+E(xc)   XCENC  =        44.95744496
  PAW double counting   =      3838.71908466    -3543.93155763
  entropy T*S    EENTRO =         0.00000000
  eigenvalues    EBANDS =     -1481.81177650
  atomic energy  EATOM  =      7269.15145414
  Solvation  Ediel_sol  =         0.00000000
  ---------------------------------------------------
  free energy    TOTEN  =       -90.07556923 eV

  energy without entropy =      -90.07556923  energy(sigma->0) =      -90.07556923


--------------------------------------------------------------------------------------------------------




--------------------------------------- Iteration      1(  12)  ---------------------------------------


    POTLOK:  cpu time    2.3772: real time    2.3937
    SETDIJ:  cpu time    0.1100: real time    0.1102
     EDDAV:  cpu time    2.9620: real time    2.9690
 BZINTS: Fermi energy: -0.649523;144.000000 electrons
         Band energy:***********;  BLOECHL correction:  0.000000
       DOS:  cpu time    0.0024: real time    0.0024
    CHARGE:  cpu time    0.1480: real time    0.1483
    MIXING:  cpu time    0.0072: real time    0.0073
    --------------------------------------------
      LOOP:  cpu time    5.6067: real time    5.6309

 eigenvalue-minimisations  :  3408
 total energy-change (2. order) :-0.1514178E-03  (-0.1463114E-02)
 number of electron     143.9999988 magnetization 
 augmentation part      -17.7252536 magnetization 

 Broyden mixing:
  rms(total) = 0.11532E-01    rms(broyden)= 0.11532E-01
  rms(prec ) = 0.19940E-01
  weight for this iteration     100.00

 eigenvalues of (default mixing * dielectric matrix)
  average eigenvalue GAMMA=   1.7179
  3.4027  2.6163  1.9987  1.1180  1.1180  0.8857  0.8857

 Free energy of the ion-electron system (eV)
  ---------------------------------------------------
  alpha Z        PSCENC =       170.45750602
  Ewald energy   TEWEN  =     12488.76520436
  -Hartree energ DENC   =    -18887.98688629
  -exchange      EXHF   =         0.00000000
  -V(xc)+E(xc)   XCENC  =        45.01169184
  PAW double counting   =      3836.24951731    -3541.31599311
  entropy T*S    EENTRO =         0.00000000
  eigenvalues    EBANDS =     -1470.40821492
  atomic energy  EATOM  =      7269.15145414
  Solvation  Ediel_sol  =         0.00000000
  ---------------------------------------------------
  free energy    TOTEN  =       -90.07572065 eV

  energy without entropy =      -90.07572065  energy(sigma->0) =      -90.07572065


--------------------------------------------------------------------------------------------------------




--------------------------------------- Iteration      1(  13)  ---------------------------------------


    POTLOK:  cpu time    2.5926: real time    2.6095
    SETDIJ:  cpu time    0.0016: real time    0.0016
     EDDAV:  cpu time    3.2476: real time    3.2552
 BZINTS: Fermi energy: -0.615719;144.000000 electrons
         Band energy:***********;  BLOECHL correction:  0.000000
       DOS:  cpu time    0.0025: real time    0.0025
    CHARGE:  cpu time    0.1491: real time    0.1495
    MIXING:  cpu time    0.0069: real time    0.0070
    --------------------------------------------
      LOOP:  cpu time    6.0002: real time    6.0253

 eigenvalue-minimisations  :  3472
 total energy-change (2. order) :-0.2649001E-02  (-0.6808459E-03)
 number of electron     143.9999988 magnetization 
 augmentation part      -17.7268852 magnetization 

 Broyden mixing:
  rms(total) = 0.56464E-02    rms(broyden)= 0.56464E-02
  rms(prec ) = 0.96652E-02
  weight for this iteration     100.00

 eigenvalues of (default mixing * dielectric matrix)
  average eigenvalue GAMMA=   1.7736
  3.9478  2.8392  2.3147  1.2255  1.2255  0.8883  0.8740  0.8740

 Free energy of the ion-electron system (eV)
  ---------------------------------------------------
  alpha Z        PSCENC =       170.45750602
  Ewald energy   TEWEN  =     12488.76520436
  -Hartree energ DENC   =    -18897.02165272
  -exchange      EXHF   =         0.00000000
  -V(xc)+E(xc)   XCENC  =        45.05011843
  PAW double counting   =      3834.75253866    -3539.90298460
  entropy T*S    EENTRO =         0.00000000
  eigenvalues    EBANDS =     -1461.33055395
  atomic energy  EATOM  =      7269.15145414
  Solvation  Ediel_sol  =         0.00000000
  ---------------------------------------------------
  free energy    TOTEN  =       -90.07836965 eV

  energy without entropy =      -90.07836965  energy(sigma->0) =      -90.07836965


--------------------------------------------------------------------------------------------------------




--------------------------------------- Iteration      1(  14)  ---------------------------------------


    POTLOK:  cpu time    2.5450: real time    2.5625
    SETDIJ:  cpu time    0.0017: real time    0.0017
     EDDAV:  cpu time    2.8622: real time    2.8690
 BZINTS: Fermi energy: -0.600486;144.000000 electrons
         Band energy:***********;  BLOECHL correction:  0.000000
       DOS:  cpu time    0.0024: real time    0.0024
    CHARGE:  cpu time    0.1480: real time    0.1484
    MIXING:  cpu time    0.0058: real time    0.0059
    --------------------------------------------
      LOOP:  cpu time    5.5651: real time    5.5898

 eigenvalue-minimisations  :  2936
 total energy-change (2. order) : 0.7820073E-02  (-0.2606790E-03)
 number of electron     143.9999988 magnetization 
 augmentation part      -17.7269026 magnetization 

 Broyden mixing:
  rms(total) = 0.46115E-02    rms(broyden)= 0.46115E-02
  rms(prec ) = 0.74299E-02
  weight for this iteration     100.00

 eigenvalues of (default mixing * dielectric matrix)
  average eigenvalue GAMMA=   1.8714
  4.5307  3.1127  2.0575  2.0575  0.8908  0.8908  1.1387  1.1387  1.0256

 Free energy of the ion-electron system (eV)
  ---------------------------------------------------
  alpha Z        PSCENC =       170.45750602
  Ewald energy   TEWEN  =     12488.76520436
  -Hartree energ DENC   =    -18900.68705200
  -exchange      EXHF   =         0.00000000
  -V(xc)+E(xc)   XCENC  =        45.06603539
  PAW double counting   =      3834.08162950    -3539.23954145
  entropy T*S    EENTRO =         0.00000000
  eigenvalues    EBANDS =     -1457.66578554
  atomic energy  EATOM  =      7269.15145414
  Solvation  Ediel_sol  =         0.00000000
  ---------------------------------------------------
  free energy    TOTEN  =       -90.07054958 eV

  energy without entropy =      -90.07054958  energy(sigma->0) =      -90.07054958


--------------------------------------------------------------------------------------------------------




--------------------------------------- Iteration      1(  15)  ---------------------------------------


    POTLOK:  cpu time    2.4014: real time    2.4181
    SETDIJ:  cpu time    0.1141: real time    0.1143
     EDDAV:  cpu time    2.8193: real time    2.8260
 BZINTS: Fermi energy: -0.592535;144.000000 electrons
         Band energy:***********;  BLOECHL correction:  0.000000
       DOS:  cpu time    0.0025: real time    0.0025
    CHARGE:  cpu time    0.1499: real time    0.1503
    MIXING:  cpu time    0.0062: real time    0.0063
    --------------------------------------------
      LOOP:  cpu time    5.4935: real time    5.5176

 eigenvalue-minimisations  :  2904
 total energy-change (2. order) : 0.4124656E-03  (-0.2430220E-03)
 number of electron     143.9999988 magnetization 
 augmentation part      -17.7280762 magnetization 

 Broyden mixing:
  rms(total) = 0.16798E-02    rms(broyden)= 0.16798E-02
  rms(prec ) = 0.32976E-02
  weight for this iteration     100.00

 eigenvalues of (default mixing * dielectric matrix)
  average eigenvalue GAMMA=   1.9348
  5.4432  3.2402  2.5790  1.7502  0.8919  0.8919  1.2839  1.2839  0.9919  0.9919

 Free energy of the ion-electron system (eV)
  ---------------------------------------------------
  alpha Z        PSCENC =       170.45750602
  Ewald energy   TEWEN  =     12488.76520436
  -Hartree energ DENC   =    -18902.73681906
  -exchange      EXHF   =         0.00000000
  -V(xc)+E(xc)   XCENC  =        45.06357391
  PAW double counting   =      3834.57445004    -3539.71566024
  entropy T*S    EENTRO =         0.00000000
  eigenvalues    EBANDS =     -1455.62984628
  atomic energy  EATOM  =      7269.15145414
  Solvation  Ediel_sol  =         0.00000000
  ---------------------------------------------------
  free energy    TOTEN  =       -90.07013711 eV

  energy without entropy =      -90.07013711  energy(sigma->0) =      -90.07013711


--------------------------------------------------------------------------------------------------------




--------------------------------------- Iteration      1(  16)  ---------------------------------------


    POTLOK:  cpu time    2.3914: real time    2.4074
    SETDIJ:  cpu time    0.0495: real time    0.0497
     EDDAV:  cpu time    2.8398: real time    2.8466
 BZINTS: Fermi energy: -0.555632;144.000000 electrons
         Band energy:***********;  BLOECHL correction:  0.000000
       DOS:  cpu time    0.0020: real time    0.0020
    CHARGE:  cpu time    0.1496: real time    0.1500
    MIXING:  cpu time    0.0073: real time    0.0074
    --------------------------------------------
      LOOP:  cpu time    5.4396: real time    5.4630

 eigenvalue-minimisations  :  3040
 total energy-change (2. order) : 0.4665524E-04  (-0.1447040E-03)
 number of electron     143.9999988 magnetization 
 augmentation part      -17.7280106 magnetization 

 Broyden mixing:
  rms(total) = 0.12607E-02    rms(broyden)= 0.12607E-02
  rms(prec ) = 0.23271E-02
  weight for this iteration     100.00

 eigenvalues of (default mixing * dielectric matrix)
  average eigenvalue GAMMA=   2.0220
  5.8766  3.5074  2.4375  2.4375  1.6427  0.8934  0.8934  1.2721  1.2721  1.0050
  1.0050

 Free energy of the ion-electron system (eV)
  ---------------------------------------------------
  alpha Z        PSCENC =       170.45750602
  Ewald energy   TEWEN  =     12488.76520436
  -Hartree energ DENC   =    -18904.15318884
  -exchange      EXHF   =         0.00000000
  -V(xc)+E(xc)   XCENC  =        45.06683724
  PAW double counting   =      3834.71230070    -3539.86640349
  entropy T*S    EENTRO =         0.00000000
  eigenvalues    EBANDS =     -1454.20380059
  atomic energy  EATOM  =      7269.15145414
  Solvation  Ediel_sol  =         0.00000000
  ---------------------------------------------------
  free energy    TOTEN  =       -90.07009046 eV

  energy without entropy =      -90.07009046  energy(sigma->0) =      -90.07009046


--------------------------------------------------------------------------------------------------------




--------------------------------------- Iteration      1(  17)  ---------------------------------------


    POTLOK:  cpu time    2.4843: real time    2.5007
    SETDIJ:  cpu time    0.0214: real time    0.0214
     EDDAV:  cpu time    2.7440: real time    2.7505
 BZINTS: Fermi energy: -0.544445;144.000000 electrons
         Band energy:***********;  BLOECHL correction:  0.000000
       DOS:  cpu time    0.0023: real time    0.0024
    CHARGE:  cpu time    0.1495: real time    0.1499
    MIXING:  cpu time    0.0080: real time    0.0081
    --------------------------------------------
      LOOP:  cpu time    5.4096: real time    5.4328

 eigenvalue-minimisations  :  2880
 total energy-change (2. order) : 0.8522048E-04  (-0.7301228E-04)
 number of electron     143.9999988 magnetization 
 augmentation part      -17.7280310 magnetization 

 Broyden mixing:
  rms(total) = 0.70730E-03    rms(broyden)= 0.70730E-03
  rms(prec ) = 0.13619E-02
  weight for this iteration     100.00

 eigenvalues of (default mixing * dielectric matrix)
  average eigenvalue GAMMA=   1.9915
  6.1559  3.6806  2.7180  2.2257  1.4848  1.4848  0.8932  0.8932  1.3475  1.0286
  1.0286  0.9569

 Free energy of the ion-electron system (eV)
  ---------------------------------------------------
  alpha Z        PSCENC =       170.45750602
  Ewald energy   TEWEN  =     12488.76520436
  -Hartree energ DENC   =    -18905.47223898
  -exchange      EXHF   =         0.00000000
  -V(xc)+E(xc)   XCENC  =        45.07158103
  PAW double counting   =      3834.68676624    -3539.83611099
  entropy T*S    EENTRO =         0.00000000
  eigenvalues    EBANDS =     -1452.89416706
  atomic energy  EATOM  =      7269.15145414
  Solvation  Ediel_sol  =         0.00000000
  ---------------------------------------------------
  free energy    TOTEN  =       -90.07000524 eV

  energy without entropy =      -90.07000524  energy(sigma->0) =      -90.07000524


--------------------------------------------------------------------------------------------------------




--------------------------------------- Iteration      1(  18)  ---------------------------------------


    POTLOK:  cpu time    2.4926: real time    2.5089
    SETDIJ:  cpu time    0.0039: real time    0.0039
     EDDAV:  cpu time    2.5643: real time    2.5704
 BZINTS: Fermi energy: -0.546948;144.000000 electrons
         Band energy:***********;  BLOECHL correction:  0.000000
       DOS:  cpu time    0.0020: real time    0.0020
    CHARGE:  cpu time    0.1663: real time    0.1667
    MIXING:  cpu time    0.0065: real time    0.0066
    --------------------------------------------
      LOOP:  cpu time    5.2356: real time    5.2585

 eigenvalue-minimisations  :  2592
 total energy-change (2. order) :-0.3667980E-03  (-0.1207648E-04)
 number of electron     143.9999988 magnetization 
 augmentation part      -17.7280835 magnetization 

 Broyden mixing:
  rms(total) = 0.50250E-03    rms(broyden)= 0.50250E-03
  rms(prec ) = 0.96015E-03
  weight for this iteration     100.00

 eigenvalues of (default mixing * dielectric matrix)
  average eigenvalue GAMMA=   2.0823
  6.5722  4.1959  2.7553  2.7553  1.9573  1.4010  1.4010  0.8926  0.8926  1.1474
  1.1474  0.9759  0.9759

 Free energy of the ion-electron system (eV)
  ---------------------------------------------------
  alpha Z        PSCENC =       170.45750602
  Ewald energy   TEWEN  =     12488.76520436
  -Hartree energ DENC   =    -18905.68467847
  -exchange      EXHF   =         0.00000000
  -V(xc)+E(xc)   XCENC  =        45.07240188
  PAW double counting   =      3834.74513761    -3539.89535099
  entropy T*S    EENTRO =         0.00000000
  eigenvalues    EBANDS =     -1452.68204658
  atomic energy  EATOM  =      7269.15145414
  Solvation  Ediel_sol  =         0.00000000
  ---------------------------------------------------
  free energy    TOTEN  =       -90.07037203 eV

  energy without entropy =      -90.07037203  energy(sigma->0) =      -90.07037203


--------------------------------------------------------------------------------------------------------




--------------------------------------- Iteration      1(  19)  ---------------------------------------


    POTLOK:  cpu time    2.4100: real time    2.4268
    SETDIJ:  cpu time    0.0291: real time    0.0291
     EDDAV:  cpu time    2.5634: real time    2.5694
 BZINTS: Fermi energy: -0.547453;144.000000 electrons
         Band energy:***********;  BLOECHL correction:  0.000000
       DOS:  cpu time    0.0019: real time    0.0019
    CHARGE:  cpu time    0.1512: real time    0.1515
    MIXING:  cpu time    0.0062: real time    0.0063
    --------------------------------------------
      LOOP:  cpu time    5.1618: real time    5.1851

 eigenvalue-minimisations  :  2608
 total energy-change (2. order) :-0.6295299E-03  (-0.1364794E-04)
 number of electron     143.9999988 magnetization 
 augmentation part      -17.7282237 magnetization 

 Broyden mixing:
  rms(total) = 0.38327E-03    rms(broyden)= 0.38327E-03
  rms(prec ) = 0.59053E-03
  weight for this iteration     100.00

 eigenvalues of (default mixing * dielectric matrix)
  average eigenvalue GAMMA=   2.1032
  6.7282  4.6947  2.8551  2.8551  1.7764  1.6053  1.6053  0.8928  0.8928  1.2951
  1.2951  1.0111  1.0111  0.9262

 Free energy of the ion-electron system (eV)
  ---------------------------------------------------
  alpha Z        PSCENC =       170.45750602
  Ewald energy   TEWEN  =     12488.76520436
  -Hartree energ DENC   =    -18906.13462248
  -exchange      EXHF   =         0.00000000
  -V(xc)+E(xc)   XCENC  =        45.07203676
  PAW double counting   =      3834.65559232    -3539.80223136
  entropy T*S    EENTRO =         0.00000000
  eigenvalues    EBANDS =     -1452.23594133
  atomic energy  EATOM  =      7269.15145414
  Solvation  Ediel_sol  =         0.00000000
  ---------------------------------------------------
  free energy    TOTEN  =       -90.07100156 eV

  energy without entropy =      -90.07100156  energy(sigma->0) =      -90.07100156


--------------------------------------------------------------------------------------------------------




--------------------------------------- Iteration      1(  20)  ---------------------------------------


    POTLOK:  cpu time    2.3983: real time    2.4138
    SETDIJ:  cpu time    0.0263: real time    0.0264
     EDDAV:  cpu time    2.4134: real time    2.4192
 BZINTS: Fermi energy: -0.552002;144.000000 electrons
         Band energy:***********;  BLOECHL correction:  0.000000
       DOS:  cpu time    0.0025: real time    0.0025
    CHARGE:  cpu time    0.1450: real time    0.1454
    MIXING:  cpu time    0.0070: real time    0.0071
    --------------------------------------------
      LOOP:  cpu time    4.9926: real time    5.0143

 eigenvalue-minimisations  :  2552
 total energy-change (2. order) :-0.2502137E-03  (-0.6221297E-05)
 number of electron     143.9999988 magnetization 
 augmentation part      -17.7282895 magnetization 

 Broyden mixing:
  rms(total) = 0.22824E-03    rms(broyden)= 0.22824E-03
  rms(prec ) = 0.35921E-03
  weight for this iteration     100.00

 eigenvalues of (default mixing * dielectric matrix)
  average eigenvalue GAMMA=   2.2717
  7.3097  6.4020  3.1517  3.1517  2.4854  1.5537  1.5537  0.8928  0.8928  1.3032
  1.3032  0.9597  0.9597  1.0779  1.0779

 Free energy of the ion-electron system (eV)
  ---------------------------------------------------
  alpha Z        PSCENC =       170.45750602
  Ewald energy   TEWEN  =     12488.76520436
  -Hartree energ DENC   =    -18906.18186703
  -exchange      EXHF   =         0.00000000
  -V(xc)+E(xc)   XCENC  =        45.07214181
  PAW double counting   =      3834.67042375    -3539.81680704
  entropy T*S    EENTRO =         0.00000000
  eigenvalues    EBANDS =     -1452.18930779
  atomic energy  EATOM  =      7269.15145414
  Solvation  Ediel_sol  =         0.00000000
  ---------------------------------------------------
  free energy    TOTEN  =       -90.07125178 eV

  energy without entropy =      -90.07125178  energy(sigma->0) =      -90.07125178


--------------------------------------------------------------------------------------------------------




--------------------------------------- Iteration      1(  21)  ---------------------------------------


    POTLOK:  cpu time    2.5761: real time    2.5941
    SETDIJ:  cpu time    0.0017: real time    0.0017
     EDDAV:  cpu time    2.5301: real time    2.5360
 BZINTS: Fermi energy: -0.557100;144.000000 electrons
         Band energy:***********;  BLOECHL correction:  0.000000
       DOS:  cpu time    0.0020: real time    0.0020
    CHARGE:  cpu time    0.1505: real time    0.1509
    MIXING:  cpu time    0.0073: real time    0.0074
    --------------------------------------------
      LOOP:  cpu time    5.2677: real time    5.2921

 eigenvalue-minimisations  :  2488
 total energy-change (2. order) :-0.1770556E-03  (-0.5507467E-05)
 number of electron     143.9999988 magnetization 
 augmentation part      -17.7282863 magnetization 

 Broyden mixing:
  rms(total) = 0.10555E-03    rms(broyden)= 0.10555E-03
  rms(prec ) = 0.12978E-03
  weight for this iteration     100.00

 eigenvalues of (default mixing * dielectric matrix)
  average eigenvalue GAMMA=   2.3037
  7.8202  6.8456  3.1803  3.1803  2.4810  1.8338  1.8338  1.3194  1.3194  0.8928
  0.8928  1.1347  1.0711  1.0711  0.9717  1.0104

 Free energy of the ion-electron system (eV)
  ---------------------------------------------------
  alpha Z        PSCENC =       170.45750602
  Ewald energy   TEWEN  =     12488.76520436
  -Hartree energ DENC   =    -18906.09001569
  -exchange      EXHF   =         0.00000000
  -V(xc)+E(xc)   XCENC  =        45.07084645
  PAW double counting   =      3834.66588766    -3539.81348568
  entropy T*S    EENTRO =         0.00000000
  eigenvalues    EBANDS =     -1452.27882610
  atomic energy  EATOM  =      7269.15145414
  Solvation  Ediel_sol  =         0.00000000
  ---------------------------------------------------
  free energy    TOTEN  =       -90.07142883 eV

  energy without entropy =      -90.07142883  energy(sigma->0) =      -90.07142883


--------------------------------------------------------------------------------------------------------




--------------------------------------- Iteration      1(  22)  ---------------------------------------


    POTLOK:  cpu time    2.4883: real time    2.5056
    SETDIJ:  cpu time    0.0023: real time    0.0023
     EDDAV:  cpu time    2.4738: real time    2.4798
 BZINTS: Fermi energy: -0.560434;144.000000 electrons
         Band energy:***********;  BLOECHL correction:  0.000000
       DOS:  cpu time    0.0020: real time    0.0020
    CHARGE:  cpu time    0.1499: real time    0.1503
    MIXING:  cpu time    0.0093: real time    0.0093
    --------------------------------------------
      LOOP:  cpu time    5.1256: real time    5.1494

 eigenvalue-minimisations  :  2584
 total energy-change (2. order) :-0.2098601E-04  (-0.4257726E-06)
 number of electron     143.9999988 magnetization 
 augmentation part      -17.7282416 magnetization 

 Broyden mixing:
  rms(total) = 0.73091E-04    rms(broyden)= 0.73091E-04
  rms(prec ) = 0.93804E-04
  weight for this iteration     100.00

 eigenvalues of (default mixing * dielectric matrix)
  average eigenvalue GAMMA=   2.3162
  8.6259  6.9906  3.3090  3.3090  2.5585  1.8721  1.8721  0.8928  0.8928  1.2527
  1.2527  1.3530  0.9601  0.9601  1.1343  1.0694  1.0694

 Free energy of the ion-electron system (eV)
  ---------------------------------------------------
  alpha Z        PSCENC =       170.45750602
  Ewald energy   TEWEN  =     12488.76520436
  -Hartree energ DENC   =    -18906.12504645
  -exchange      EXHF   =         0.00000000
  -V(xc)+E(xc)   XCENC  =        45.07093403
  PAW double counting   =      3834.65324807    -3539.80054554
  entropy T*S    EENTRO =         0.00000000
  eigenvalues    EBANDS =     -1452.24420446
  atomic energy  EATOM  =      7269.15145414
  Solvation  Ediel_sol  =         0.00000000
  ---------------------------------------------------
  free energy    TOTEN  =       -90.07144982 eV

  energy without entropy =      -90.07144982  energy(sigma->0) =      -90.07144982


--------------------------------------------------------------------------------------------------------




--------------------------------------- Iteration      1(  23)  ---------------------------------------


    POTLOK:  cpu time    2.4279: real time    2.4455
    SETDIJ:  cpu time    0.0024: real time    0.0024
     EDDAV:  cpu time    2.1817: real time    2.1868
 BZINTS: Fermi energy: -0.563855;144.000000 electrons
         Band energy:***********;  BLOECHL correction:  0.000000
       DOS:  cpu time    0.0020: real time    0.0020
    CHARGE:  cpu time    0.1614: real time    0.1618
    MIXING:  cpu time    0.0082: real time    0.0083
    --------------------------------------------
      LOOP:  cpu time    4.7836: real time    4.8069

 eigenvalue-minimisations  :  2056
 total energy-change (2. order) :-0.8643066E-05  (-0.1136034E-06)
 number of electron     143.9999988 magnetization 
 augmentation part      -17.7282434 magnetization 

 Broyden mixing:
  rms(total) = 0.28353E-04    rms(broyden)= 0.28353E-04
  rms(prec ) = 0.38602E-04
  weight for this iteration     100.00

 eigenvalues of (default mixing * dielectric matrix)
  average eigenvalue GAMMA=   2.3089
  8.6995  7.1683  3.3353  3.3353  2.7712  2.0991  1.7518  1.7518  0.8928  0.8928
  1.2468  1.2468  1.2349  0.9847  0.9847  1.0200  1.0724  1.0724

 Free energy of the ion-electron system (eV)
  ---------------------------------------------------
  alpha Z        PSCENC =       170.45750602
  Ewald energy   TEWEN  =     12488.76520436
  -Hartree energ DENC   =    -18906.09206337
  -exchange      EXHF   =         0.00000000
  -V(xc)+E(xc)   XCENC  =        45.07056469
  PAW double counting   =      3834.65225422    -3539.79967824
  entropy T*S    EENTRO =         0.00000000
  eigenvalues    EBANDS =     -1452.27670029
  atomic energy  EATOM  =      7269.15145414
  Solvation  Ediel_sol  =         0.00000000
  ---------------------------------------------------
  free energy    TOTEN  =       -90.07145846 eV

  energy without entropy =      -90.07145846  energy(sigma->0) =      -90.07145846


--------------------------------------------------------------------------------------------------------




--------------------------------------- Iteration      1(  24)  ---------------------------------------


    POTLOK:  cpu time    2.3938: real time    2.4105
    SETDIJ:  cpu time    0.0015: real time    0.0015
     EDDAV:  cpu time    2.0307: real time    2.0355
 BZINTS: Fermi energy: -0.566589;144.000000 electrons
         Band energy:***********;  BLOECHL correction:  0.000000
       DOS:  cpu time    0.0023: real time    0.0024
    CHARGE:  cpu time    0.1548: real time    0.1552
    MIXING:  cpu time    0.0073: real time    0.0073
    --------------------------------------------
      LOOP:  cpu time    4.5905: real time    4.6124

 eigenvalue-minimisations  :  1968
 total energy-change (2. order) :-0.1633372E-05  (-0.2777104E-07)
 number of electron     143.9999988 magnetization 
 augmentation part      -17.7282459 magnetization 

 Broyden mixing:
  rms(total) = 0.15682E-04    rms(broyden)= 0.15682E-04
  rms(prec ) = 0.22789E-04
  weight for this iteration     100.00

 eigenvalues of (default mixing * dielectric matrix)
  average eigenvalue GAMMA=   2.3051
  8.7653  7.2528  3.5202  3.5202  2.8601  2.0535  2.0535  2.0155  0.8928  0.8928
[...]
      7     -27.8938      2.00000
      8     -27.8934      2.00000
      9     -15.0027      2.00000
     10     -15.0024      2.00000
     11     -14.9413      2.00000
     12     -14.9412      2.00000
     13     -14.8784      2.00000
     14     -14.8784      2.00000
     15     -14.0546      2.00000
     16     -14.0534      2.00000
     17     -13.9317      2.00000
     18     -13.9293      2.00000
     19     -13.9180      2.00000
     20     -13.9151      2.00000
     21     -13.8637      2.00000
     22     -13.8556      2.00000
     23     -13.8185      2.00000
     24     -13.8176      2.00000
     25     -13.7443      2.00000
     26     -13.7364      2.00000
     27     -13.2806      2.00000
     28     -13.2708      2.00000
     29     -13.2398      2.00000
     30     -13.2324      2.00000
     31     -13.2009      2.00000
     32     -13.2001      2.00000
     33     -11.1264      2.00000
     34     -11.1107      2.00000
     35     -10.7153      2.00000
     36     -10.6986      2.00000
     37      -6.5839      2.00000
     38      -6.5629      2.00000
     39      -6.3344      2.00000
     40      -6.3170      2.00000
     41      -6.2496      2.00000
     42      -6.2313      2.00000
     43      -5.9835      2.00000
     44      -5.9697      2.00000
     45      -5.9259      2.00000
     46      -5.8743      2.00000
     47      -5.8244      2.00000
     48      -5.7125      2.00000
     49      -2.9358      2.00000
     50      -2.8377      2.00000
     51      -2.6754      2.00000
     52      -2.6109      2.00000
     53      -2.3732      2.00000
     54      -2.2720      2.00000
     55      -2.2510      2.00000
     56      -2.2293      2.00000
     57      -2.0398      2.00000
     58      -2.0149      2.00000
     59      -1.9387      2.00000
     60      -1.8603      2.00000
     61      -1.7552      2.00000
     62      -1.7089      2.00000
     63      -1.6183      2.00000
     64      -1.5247      2.00000
     65      -1.4081      2.00000
     66      -1.3324      2.00000
     67      -1.2678      2.00000
     68      -1.1611      2.00000
     69      -1.0377      2.00000
     70      -0.9278      2.00000
     71      -0.8998      2.00000
     72      -0.8345      2.00000
     73       0.1634      0.00000
     74       0.2066      0.00000
     75       0.3688      0.00000
     76       0.4148      0.00000
     77       0.4959      0.00000
     78       0.6224      0.00000
     79       0.7325      0.00000
     80       0.7506      0.00000
     81       0.7892      0.00000
     82       0.8640      0.00000
     83       1.0272      0.00000
     84       1.0634      0.00000
     85       1.1716      0.00000
     86       1.3677      0.00000
     87       1.4267      0.00000
     88       1.5513      0.00000

 k-point    15 :       0.0000    0.5000    0.4000
  band No.  band energies     occupation 
      1     -29.6918      2.00000
      2     -29.6918      2.00000
      3     -28.6582      2.00000
      4     -28.6582      2.00000
      5     -28.4844      2.00000
      6     -28.4844      2.00000
      7     -27.8936      2.00000
      8     -27.8936      2.00000
      9     -15.0020      2.00000
     10     -15.0020      2.00000
     11     -14.9420      2.00000
     12     -14.9420      2.00000
     13     -14.8803      2.00000
     14     -14.8803      2.00000
     15     -14.0532      2.00000
     16     -14.0532      2.00000
     17     -13.9325      2.00000
     18     -13.9325      2.00000
     19     -13.9186      2.00000
     20     -13.9186      2.00000
     21     -13.8607      2.00000
     22     -13.8607      2.00000
     23     -13.8208      2.00000
     24     -13.8208      2.00000
     25     -13.7395      2.00000
     26     -13.7395      2.00000
     27     -13.2756      2.00000
     28     -13.2756      2.00000
     29     -13.2356      2.00000
     30     -13.2356      2.00000
     31     -13.2003      2.00000
     32     -13.2003      2.00000
     33     -11.1127      2.00000
     34     -11.1126      2.00000
     35     -10.6975      2.00000
     36     -10.6974      2.00000
     37      -6.6021      2.00000
     38      -6.6021      2.00000
     39      -6.3001      2.00000
     40      -6.3001      2.00000
     41      -6.2370      2.00000
     42      -6.2370      2.00000
     43      -5.9538      2.00000
     44      -5.9538      2.00000
     45      -5.9103      2.00000
     46      -5.9103      2.00000
     47      -5.7660      2.00000
     48      -5.7660      2.00000
     49      -2.8434      2.00000
     50      -2.8434      2.00000
     51      -2.6612      2.00000
     52      -2.6612      2.00000
     53      -2.3211      2.00000
     54      -2.3211      2.00000
     55      -2.2514      2.00000
     56      -2.2514      2.00000
     57      -2.0272      2.00000
     58      -2.0272      2.00000
     59      -1.8464      2.00000
     60      -1.8464      2.00000
     61      -1.6565      2.00000
     62      -1.6565      2.00000
     63      -1.5971      2.00000
     64      -1.5971      2.00000
     65      -1.3893      2.00000
     66      -1.3893      2.00000
     67      -1.2076      2.00000
     68      -1.2076      2.00000
     69      -1.0299      2.00000
     70      -1.0299      2.00000
     71      -0.8677      2.00000
     72      -0.8676      2.00000
     73       0.0983      0.00000
     74       0.0983      0.00000
     75       0.3577      0.00000
     76       0.3577      0.00000
     77       0.5469      0.00000
     78       0.5469      0.00000
     79       0.7334      0.00000
     80       0.7335      0.00000
     81       0.7577      0.00000
     82       0.7577      0.00000
     83       1.0656      0.00000
     84       1.0657      0.00000
     85       1.2719      0.00000
     86       1.2719      0.00000
     87       1.4084      0.00000
     88       1.4086      0.00000


--------------------------------------------------------------------------------------------------------


 soft charge-density along one line, spin component           1
         0         1         2         3         4         5         6         7         8         9
 total charge-density along one line
 
 pseudopotential strength for first ion, spin component:           1
  4.891  -5.572  -0.000  -0.006  -0.024  -0.000  -0.004  -0.019
 -5.572  -2.760   0.000   0.001   0.004  -0.000  -0.001  -0.004
 -0.000   0.000  -6.817  -0.000  -0.000   1.889  -0.000  -0.000
 -0.006   0.001  -0.000  -6.812  -0.001  -0.000   1.899  -0.003
 -0.024   0.004  -0.000  -0.001  -6.813  -0.000  -0.003   1.899
 -0.000  -0.000   1.889  -0.000  -0.000   7.261  -0.000  -0.000
 -0.004  -0.001  -0.000   1.899  -0.003  -0.000   7.262  -0.000
 -0.019  -0.004  -0.000  -0.003   1.899  -0.000  -0.000   7.262
 -0.000   0.000  -0.012  -0.000  -0.000  -0.009  -0.000  -0.000
 -0.000   0.000  -0.001  -0.000  -0.000  -0.000  -0.000  -0.000
  0.002  -0.001   0.000  -0.004   0.006   0.000  -0.003   0.005
 -0.002   0.001  -0.000  -0.011  -0.002  -0.000  -0.008  -0.002
  0.003  -0.001   0.000  -0.001  -0.011   0.000  -0.001  -0.008
  0.000   0.000   0.001   0.000   0.000   0.000   0.000   0.000
  0.000   0.000   0.000   0.000   0.000  -0.000   0.000   0.000
 -0.000  -0.000  -0.000   0.000  -0.000  -0.000   0.000  -0.000
  0.000   0.000   0.000   0.000   0.000   0.000   0.000   0.000
 -0.000  -0.000  -0.000   0.000   0.000  -0.000   0.000   0.000
 total augmentation occupancy for first ion, spin component:           1
  2.108  -0.259   0.000   0.012   0.051   0.000  -0.005  -0.019  -0.000   0.000   0.013  -0.007   0.029  -0.000   0.000  -0.009
 -0.259   0.633   0.000  -0.031  -0.133   0.000   0.012   0.032   0.000   0.000  -0.021   0.007  -0.056   0.000   0.000   0.037
  0.000   0.000   2.012   0.000   0.000  -0.015   0.000   0.000  -0.079   0.022   0.000  -0.000   0.000   0.067  -0.043   0.000
  0.012  -0.031   0.000   1.999   0.003   0.000  -0.006  -0.002   0.000   0.000  -0.044  -0.064  -0.015   0.000   0.000   0.043
  0.051  -0.133   0.000   0.003   1.995  -0.000  -0.002  -0.004   0.000   0.000   0.034  -0.006  -0.050  -0.000   0.000  -0.027
  0.000   0.000  -0.015   0.000  -0.000   0.008   0.000   0.000   0.022  -0.009   0.000   0.000  -0.000  -0.030   0.014   0.000
 -0.005   0.012   0.000  -0.006  -0.002   0.000   0.005   0.000   0.000   0.000   0.015   0.015   0.005   0.000   0.000  -0.022
 -0.019   0.032  -0.000  -0.002  -0.004   0.000   0.000   0.004  -0.000   0.000  -0.007   0.000   0.009   0.000   0.000   0.009
 -0.000   0.000  -0.079   0.000   0.000   0.022   0.000   0.000   0.143  -0.014   0.000   0.000   0.000  -0.183   0.020  -0.000
  0.000   0.000   0.022   0.000   0.000  -0.009   0.000   0.000  -0.014   0.068   0.000   0.000   0.000   0.018  -0.085   0.000
  0.013  -0.021   0.000  -0.044   0.034   0.000   0.015  -0.007   0.000   0.000   0.120   0.047   0.018   0.000  -0.000  -0.147
 -0.007   0.007   0.000  -0.064  -0.006   0.000   0.015   0.000   0.000   0.000   0.047   0.086   0.008   0.000  -0.000  -0.067
  0.029  -0.056   0.000  -0.015  -0.050   0.000   0.005   0.009   0.000   0.000   0.018   0.008   0.093   0.000   0.000  -0.025
 -0.000  -0.000   0.067   0.000   0.000  -0.030   0.000   0.000  -0.183   0.018  -0.000  -0.000   0.000   0.262  -0.035   0.000
  0.000   0.000  -0.043   0.000   0.000   0.014   0.000   0.000   0.020  -0.085   0.000  -0.000   0.000  -0.035   0.116   0.000
 -0.009   0.037   0.000   0.043  -0.027   0.000  -0.022   0.009   0.000   0.000  -0.147  -0.067  -0.025   0.000   0.000   0.202
  0.005  -0.023   0.000   0.053  -0.001   0.000  -0.022  -0.000   0.000   0.000  -0.065  -0.110  -0.011   0.000   0.000   0.102
 -0.022   0.068   0.000   0.022   0.041   0.000  -0.008  -0.012   0.000   0.000  -0.026  -0.013  -0.123   0.000   0.000   0.041


------------------------ aborting loop because EDIFF is reached ----------------------------------------


    CHARGE:  cpu time    0.1447: real time    0.1451
    FORLOC:  cpu time    0.0092: real time    0.0093
    FORNL :  cpu time    0.5205: real time    0.5217
    STRESS:  cpu time    1.5716: real time    1.5929
    FORCOR:  cpu time    2.5400: real time    2.5460
    FORHAR:  cpu time    0.0227: real time    0.0228
    MIXING:  cpu time    0.0088: real time    0.0089
    OFIELD:  cpu time    0.0000: real time    0.0000

  FORCE on cell =-STRESS in cart. coord.  units (eV):
  Direction    XX          YY          ZZ          XY          YZ          ZX
  --------------------------------------------------------------------------------------
  Alpha Z   170.45751   170.45751   170.45751
  Ewald  -20274.01171 16648.29864 16114.46460    -0.00002     0.00000   135.63033
  Hartree-17185.24023 18254.03263 17837.30588     0.00000    -0.00000   101.81863
  E(xc)    -461.82269  -463.16454  -463.15384    -0.00000     0.00000     0.09140
  Local   36041.27007-36337.63843-35379.13445     0.00001    -0.00000  -234.43601
  n-local   336.82259   337.21874   337.39479     0.06269    -0.19984    -1.91141
  augment  -167.79459  -168.07554  -167.89591    -0.00000    -0.00000     0.38854
  Kinetic  1533.52826  1547.71337  1539.93161    -0.00758    -0.84067    -1.51699
  Fock        0.00000     0.00000     0.00000     0.00000     0.00000     0.00000
  -------------------------------------------------------------------------------------
  Total      -6.79079   -11.15763   -10.62982     0.00000     0.00000     0.06449
  in kB      -5.76259    -9.46825    -9.02036     0.00000     0.00000     0.05472
  external pressure =       -8.08 kB  Pullay stress =        0.00 kB


 VOLUME and BASIS-vectors are now :
 -----------------------------------------------------------------------------
  energy-cutoff  :      500.00
  volume of cell :     1888.05
      direct lattice vectors                 reciprocal lattice vectors
    24.009468079  0.000000000  0.000000000     0.041650236  0.000000000  0.000000000
     0.000000000  6.777849674  0.000000000     0.000000000  0.147539419  0.000000000
     0.000000000  0.000000000 11.602143288     0.000000000  0.000000000  0.086190971

  length of vectors
    24.009468079  6.777849674 11.602143288     0.041650236  0.147539419  0.086190971


 FORCES acting on ions
    electron-ion (+dipol)            ewald-force                    non-local-force                 convergence-correction
 -----------------------------------------------------------------------------------------------
   0.796E+03 0.102E-04 0.431E+02   -.791E+03 0.982E-05 -.423E+02   -.399E+01 -.484E-18 -.795E+00   -.336E-03 -.233E-08 0.240E-04
   -.796E+03 -.634E-04 -.431E+02   0.791E+03 -.127E-04 0.423E+02   0.399E+01 -.528E-18 0.795E+00   0.336E-03 0.257E-08 -.240E-04
   0.752E+02 -.596E-04 -.332E+02   -.750E+02 -.194E-04 0.320E+02   -.333E+00 -.235E-19 0.118E+01   0.383E-04 0.397E-08 0.490E-04
   -.752E+02 0.122E-04 0.332E+02   0.750E+02 0.134E-04 -.320E+02   0.333E+00 0.148E-19 -.118E+01   -.383E-04 -.363E-08 -.490E-04
   0.641E+03 -.612E-04 -.507E+02   -.638E+03 -.169E-04 0.513E+02   -.196E+01 -.199E-17 -.590E+00   -.249E-03 0.319E-08 -.151E-03
   -.641E+03 0.904E-05 0.507E+02   0.638E+03 0.147E-04 -.513E+02   0.196E+01 -.245E-17 0.590E+00   0.249E-03 -.300E-08 0.151E-03
   0.373E+03 0.126E-04 -.444E+01   -.372E+03 0.137E-04 0.370E+01   -.122E+01 -.161E-17 0.743E+00   0.426E-04 -.348E-08 0.111E-03
   -.373E+03 -.612E-04 0.444E+01   0.372E+03 -.137E-04 -.370E+01   0.122E+01 0.466E-18 -.743E+00   -.426E-04 0.336E-08 -.111E-03
   0.278E+03 0.359E+02 -.460E+02   -.278E+03 -.376E+02 0.469E+02   -.207E+00 0.173E+01 -.944E+00   -.157E-04 0.381E-05 -.271E-05
   -.278E+03 -.359E+02 0.460E+02   0.278E+03 0.376E+02 -.469E+02   0.207E+00 -.173E+01 0.944E+00   0.157E-04 -.381E-05 0.270E-05
   0.128E+03 -.310E+02 0.270E+01   -.128E+03 0.324E+02 -.161E+01   -.656E+00 -.136E+01 -.109E+01   -.365E-04 -.470E-04 -.395E-04
   -.128E+03 0.310E+02 -.270E+01   0.128E+03 -.324E+02 0.161E+01   0.656E+00 0.136E+01 0.109E+01   0.365E-04 0.470E-04 0.395E-04
   -.278E+03 0.359E+02 0.460E+02   0.278E+03 -.376E+02 -.469E+02   0.207E+00 0.173E+01 0.944E+00   0.157E-04 0.381E-05 0.270E-05
   0.278E+03 -.359E+02 -.460E+02   -.278E+03 0.376E+02 0.469E+02   -.207E+00 -.173E+01 -.944E+00   -.157E-04 -.381E-05 -.271E-05
   -.128E+03 -.310E+02 -.270E+01   0.128E+03 0.324E+02 0.161E+01   0.656E+00 -.136E+01 0.109E+01   0.365E-04 -.470E-04 0.395E-04
   0.128E+03 0.310E+02 0.270E+01   -.128E+03 -.324E+02 -.161E+01   -.656E+00 0.136E+01 -.109E+01   -.365E-04 0.470E-04 -.395E-04
   0.336E+03 -.439E-05 0.457E+02   -.338E+03 -.610E-05 -.462E+02   0.142E+01 0.779E-19 0.446E+00   -.192E-04 0.976E-09 0.442E-04
   -.336E+03 0.616E-05 -.457E+02   0.338E+03 0.632E-05 0.462E+02   -.142E+01 0.778E-19 -.446E+00   0.192E-04 -.110E-08 -.442E-04
   0.323E+02 0.105E-04 -.108E+02   -.307E+02 0.777E-05 0.101E+02   -.135E+01 -.251E-20 0.720E+00   0.105E-04 -.151E-08 0.258E-04
   -.323E+02 -.870E-06 0.108E+02   0.307E+02 -.744E-05 -.101E+02   0.135E+01 0.443E-20 -.720E+00   -.105E-04 0.139E-08 -.258E-04
   0.248E+03 0.443E-05 0.791E+01   -.248E+03 0.813E-05 -.944E+01   -.821E+00 -.733E-18 0.153E+01   -.757E-04 -.131E-08 -.374E-04
   -.248E+03 -.578E-05 -.791E+01   0.248E+03 -.819E-05 0.944E+01   0.821E+00 0.237E-18 -.153E+01   0.757E-04 0.120E-08 0.374E-04
   0.163E+03 -.643E-05 0.611E+02   -.162E+03 -.780E-05 -.629E+02   -.994E+00 -.711E-17 0.183E+01   -.266E-05 0.128E-08 0.809E-04
   -.163E+03 0.375E-05 -.611E+02   0.162E+03 0.757E-05 0.629E+02   0.994E+00 -.896E-17 -.183E+01   0.266E-05 -.133E-08 -.809E-04
 -----------------------------------------------------------------------------------------------
   -.107E-03 -.205E-03 0.320E-04   0.114E-12 0.918E-14 0.284E-13   0.222E-15 -.238E-15 -.222E-15   0.644E-07 -.443E-10 -.380E-08
 
 
 POSITION                                       TOTAL-FORCE (eV/Angst)
 -----------------------------------------------------------------------------------
      0.13670      1.69446      8.18866         0.745310     -0.000000     -0.000248
      8.92277      5.08339      3.41349        -0.745310     -0.000000      0.000248
      4.36803      5.08339      2.17023        -0.174215     -0.000000      0.000153
      4.69143      1.69446      9.43191         0.174215      0.000000     -0.000153
      1.43529      5.08339     10.65405         0.745153     -0.000000     -0.000659
      7.62418      1.69446      0.94810        -0.745153      0.000000      0.000659
      3.06944      1.69446      4.63465         0.273276      0.000000     -0.000317
      5.99002      5.08339      6.96750        -0.273276     -0.000000      0.000317
      1.75027      0.48793      1.69840        -0.152566      0.000810     -0.000477
      7.30920      6.28992      9.90375         0.152566     -0.000810      0.000477
      2.75446      6.29419      7.63991         0.050127     -0.000174     -0.000072
      6.30500      0.48366      3.96224        -0.050127      0.000174      0.000072
      7.30920      3.87686      9.90375         0.152566      0.000810      0.000477
      1.75027      2.90099      1.69840        -0.152566     -0.000810     -0.000477
      6.30500      2.90526      3.96224        -0.050127     -0.000174      0.000072
      2.75446      3.87259      7.63991         0.050127      0.000174     -0.000072
      0.74693      5.08339      6.95376        -0.249540      0.000000      0.000550
      8.31254      1.69446      4.64838         0.249540     -0.000000     -0.000550
      3.75780      1.69446      0.99969         0.269897      0.000000     -0.000287
      5.30166      5.08339     10.60246        -0.269897     -0.000000      0.000287
      1.78112      1.69446     11.18255        -0.291332      0.000000      0.000209
      7.27835      5.08339      0.41959         0.291332     -0.000000     -0.000209
      2.72362      5.08339      5.52176        -0.250742      0.000000     -0.000351
      6.33585      1.69446      6.08038         0.250742     -0.000000      0.000351
 -----------------------------------------------------------------------------------
    total drift:                               -0.000107     -0.000205      0.000032


--------------------------------------------------------------------------------------------------------



  FREE ENERGIE OF THE ION-ELECTRON SYSTEM (eV)
  ---------------------------------------------------
  free  energy   TOTEN  =       -90.07146054 eV

  energy  without entropy=      -90.07146054  energy(sigma->0) =      -90.07146054
 


--------------------------------------------------------------------------------------------------------


    POTLOK:  cpu time    2.6505: real time    2.6568


--------------------------------------------------------------------------------------------------------


 writing wavefunctions
     LOOP+:  cpu time13741.9108: real time13776.8870
    4ORBIT:  cpu time    0.0000: real time    0.0000
 BZINTS: Fermi energy: -0.568988;144.000000 electrons
         Band energy:***********;  BLOECHL correction:  0.000000

 total amount of memory used by VASP MPI-rank0    79352. kBytes
=======================================================================

   base      :      30000. kBytes
   nonlr-proj:       2646. kBytes
   fftplans  :       5898. kBytes
   grid      :       8824. kBytes
   one-center:         93. kBytes
   wavefun   :      31891. kBytes
 
  
  
 General timing and accounting informations for this job:
 ========================================================
  
                  Total CPU time used (sec):    13749.901
                            User time (sec):    13735.392
                          System time (sec):       14.510
                         Elapsed time (sec):    13787.423
  
                   Maximum memory used (kb):      309364.
                   Average memory used (kb):           0.
  
                          Minor page faults:       105332
                          Major page faults:          150
                 Voluntary context switches:        12611
