 vasp.5.4.4.18Apr17-6-g9f103f2a35 (build Nov 21 2017 15:30:27) complex          
  
 executed on             LinuxIFC date 2020.08.19  00:27:52
 running on  320 total cores
 distrk:  each k-point on  160 cores,    2 groups
 distr:  one band on NCORES_PER_BAND=  20 cores,    8 groups


--------------------------------------------------------------------------------------------------------


 INCAR:
 POTCAR:   PAW_PBE Ba_sv 06Sep2000                
 POTCAR:   PAW_PBE Ge 05Jan2001                   

 ----------------------------------------------------------------------------- 
|                                                                             |
|           W    W    AA    RRRRR   N    N  II  N    N   GGGG   !!!           |
|           W    W   A  A   R    R  NN   N  II  NN   N  G    G  !!!           |
|           W    W  A    A  R    R  N N  N  II  N N  N  G       !!!           |
|           W WW W  AAAAAA  RRRRR   N  N N  II  N  N N  G  GGG   !            |
|           WW  WW  A    A  R   R   N   NN  II  N   NN  G    G                |
|           W    W  A    A  R    R  N    N  II  N    N   GGGG   !!!           |
|                                                                             |
|      You have enabled k-point parallelism (KPAR>1).                         |
|      This developmental code was originally  written by Paul Kent at ORNL,  |
|      and carefully double checked in Vienna.                                |
|      GW as well as linear response parallelism added by Martijn Marsman     |
|      and Georg Kresse.                                                      |
|      Carefully verify results versus KPAR=1.                                |
|      Report problems to Paul Kent and Vienna.                               |
|                                                                             |
 ----------------------------------------------------------------------------- 

 POTCAR:   PAW_PBE Ba_sv 06Sep2000                
   VRHFIN =Ba: 5s5p6s                                                           
   LEXCH  = PE                                                                  
   EATOM  =   700.2255 eV,   51.4651 Ry                                         
                                                                                
   TITEL  = PAW_PBE Ba_sv 06Sep2000                                             
   LULTRA =        F    use ultrasoft PP ?                                      
   IUNSCR =        1    unscreen: 0-lin 1-nonlin 2-no                           
   RPACOR =    2.400    partial core radius                                     
   POMASS =  137.327; ZVAL   =   10.000    mass and valenz                      
   RCORE  =    2.800    outmost cutoff radius                                   
   RWIGS  =    3.740; RWIGS  =    1.979    wigner-seitz radius (au A)           
   ENMAX  =  187.210; ENMIN  =  140.408 eV                                      
   RCLOC  =    2.516    cutoff for local pot                                    
   LCOR   =        T    correct aug charges                                     
   LPAW   =        T    paw PP                                                  
   EAUG   =  351.165                                                            
   DEXC   =     .000                                                            
   RMAX   =    3.370    core radius for proj-oper                               
   RAUG   =    1.300    factor for augmentation sphere                          
   RDEP   =    2.976    radius for radial grids                                 
   QCUT   =   -3.709; QGAM   =    7.419    optimization parameters              
                                                                                
   Description                                                                  
     l     E      TYP  RCUT    TYP  RCUT                                        
     0   .000     23  2.800                                                     
     0   .000     23  2.800                                                     
     1   .000     23  2.700                                                     
     1  2.000     23  2.700                                                     
     2   .000     23  2.700                                                     
     2   .000     23  2.700                                                     
  local pseudopotential read in
  partial core-charges read in
  atomic valenz-charges read in
  non local Contribution for L=           0  read in
    real space projection operators read in
  non local Contribution for L=           0  read in
    real space projection operators read in
  non local Contribution for L=           1  read in
    real space projection operators read in
  non local Contribution for L=           1  read in
    real space projection operators read in
  non local Contribution for L=           2  read in
    real space projection operators read in
  non local Contribution for L=           2  read in
    real space projection operators read in
    PAW grid and wavefunctions read in
 
   number of l-projection  operators is LMAX  =           6
   number of lm-projection operators is LMMAX =          18
 
 POTCAR:   PAW_PBE Ge 05Jan2001                   
   VRHFIN =Ge: s2p2                                                             
   LEXCH  = PE                                                                  
   EATOM  =   104.9960 eV,    7.7170 Ry                                         
                                                                                
   TITEL  = PAW_PBE Ge 05Jan2001                                                
   LULTRA =        F    use ultrasoft PP ?                                      
   IUNSCR =        1    unscreen: 0-lin 1-nonlin 2-no                           
   RPACOR =    2.170    partial core radius                                     
   POMASS =   72.610; ZVAL   =    4.000    mass and valenz                      
   RCORE  =    2.300    outmost cutoff radius                                   
   RWIGS  =    2.300; RWIGS  =    1.217    wigner-seitz radius (au A)           
   ENMAX  =  173.807; ENMIN  =  130.355 eV                                      
   ICORE  =        3    local potential                                         
   LCOR   =        T    correct aug charges                                     
   LPAW   =        T    paw PP                                                  
   EAUG   =  385.843                                                            
   DEXC   =    -.138                                                            
   RMAX   =    3.497    core radius for proj-oper                               
   RAUG   =    1.300    factor for augmentation sphere                          
   RDEP   =    2.318    radius for radial grids                                 
   QCUT   =   -3.574; QGAM   =    7.148    optimization parameters              
                                                                                
   Description                                                                  
     l     E      TYP  RCUT    TYP  RCUT                                        
     0   .000     23  2.300                                                     
     0   .000     23  2.300                                                     
     1   .000     23  2.300                                                     
     1   .000     23  2.300                                                     
     2   .000     23  2.300                                                     
     3  -.100      7  2.300                                                     
  local pseudopotential read in
  partial core-charges read in
  atomic valenz-charges read in
  non local Contribution for L=           0  read in
    real space projection operators read in
  non local Contribution for L=           0  read in
    real space projection operators read in
  non local Contribution for L=           1  read in
    real space projection operators read in
  non local Contribution for L=           1  read in
    real space projection operators read in
  non local Contribution for L=           2  read in
    real space projection operators read in
    PAW grid and wavefunctions read in
 
   number of l-projection  operators is LMAX  =           5
   number of lm-projection operators is LMMAX =          13
 
 Optimization of the real space projectors (new method)

 maximal supplied QI-value         = 13.42
 optimisation between [QCUT,QGAM] = [ 11.40, 22.81] = [ 36.42,145.68] Ry 
 Optimized for a Real-space Cutoff    1.56 Angstroem

   l    n(q)    QCUT    max X(q) W(low)/X(q) W(high)/X(q)  e(spline) 
   0     11    11.404     7.198    0.14E-04    0.26E-04    0.99E-07
   0     11    11.404    15.603    0.29E-04    0.72E-04    0.44E-06
   1     10    11.404     3.746    0.20E-04    0.24E-04    0.43E-07
   1     10    11.404     4.362    0.22E-03    0.97E-04    0.22E-06
   2     10    11.404     5.782    0.83E-04    0.62E-05    0.27E-06
   2     10    11.404    65.505    0.42E-03    0.31E-04    0.12E-05
 Optimization of the real space projectors (new method)

 maximal supplied QI-value         = 16.25
 optimisation between [QCUT,QGAM] = [ 11.38, 22.75] = [ 36.24,144.96] Ry 
 Optimized for a Real-space Cutoff    1.27 Angstroem

   l    n(q)    QCUT    max X(q) W(low)/X(q) W(high)/X(q)  e(spline) 
   0      9    11.376     8.651    0.25E-04    0.12E-04    0.13E-07
   0      9    11.376    33.192    0.14E-03    0.18E-03    0.86E-07
   1      8    11.376     5.899    0.25E-04    0.48E-04    0.38E-07
   1      8    11.376    27.289    0.31E-03    0.36E-04    0.16E-06
   2      8    11.376     4.673    0.15E-03    0.22E-03    0.50E-07
 PAW_PBE Ba_sv 06Sep2000                :
 energy of atom  1       EATOM= -700.2255
 kinetic energy error for atom=    0.0005 (will be added to EATOM!!)
 PAW_PBE Ge 05Jan2001                   :
 energy of atom  2       EATOM= -104.9960
 kinetic energy error for atom=    0.0002 (will be added to EATOM!!)
 
 
 POSCAR: ba8 ge16                                
  positions in direct lattice
  velocities in cartesian coordinates
 exchange correlation table for  LEXCH =        8
   RHO(1)=    0.500       N(1)  =     2000
   RHO(2)=  100.500       N(2)  =     4000
 


--------------------------------------------------------------------------------------------------------


 ion  position               nearest neighbor table
   1  0.015  0.250  0.692-  13 3.37  10 3.37  24 3.40  18 3.41  16 3.44  11 3.44  21 3.51  17 3.64
                            17 3.64   5 4.43   5 4.43   7 4.45   4 4.74   4 4.74
   2  0.985  0.750  0.308-   9 3.37  14 3.37  23 3.40  17 3.41  12 3.44  15 3.44  22 3.51  18 3.64
                            18 3.64   6 4.43   6 4.43   8 4.45   3 4.74   3 4.74
   3  0.485  0.750  0.192-  12 3.37  15 3.37  22 3.40  20 3.41   9 3.44  14 3.44  23 3.51  19 3.64
                            19 3.64   7 4.43   7 4.43   5 4.45   2 4.74   2 4.74
   4  0.515  0.250  0.808-  16 3.37  11 3.37  21 3.40  19 3.41  13 3.44  10 3.44  24 3.51  20 3.64
                            20 3.64   8 4.43   8 4.43   6 4.45   1 4.74   1 4.74
   5  0.158  0.750  0.907-  21 3.48  21 3.48  10 3.49  13 3.49  11 3.53  16 3.53   9 3.56  14 3.56
                            22 3.57  17 3.75  20 3.76   1 4.43   1 4.43   3 4.45
   6  0.842  0.250  0.093-  22 3.48  22 3.48  14 3.49   9 3.49  15 3.53  12 3.53  13 3.56  10 3.56
                            21 3.57  18 3.75  19 3.76   2 4.43   2 4.43   4 4.45
   7  0.342  0.250  0.407-  23 3.48  23 3.48  15 3.49  12 3.49  14 3.53   9 3.53  16 3.56  11 3.56
                            24 3.57  19 3.75  18 3.76   3 4.43   3 4.43   1 4.45
   8  0.658  0.750  0.593-  24 3.48  24 3.48  11 3.49  16 3.49  10 3.53  13 3.53  12 3.56  15 3.56
                            23 3.57  20 3.75  17 3.76   4 4.43   4 4.43   2 4.45
   9  0.191  0.060  0.151-  14 2.59  21 2.59  19 2.60   2 3.37   3 3.44   6 3.49   7 3.53   5 3.56

  10  0.809  0.940  0.849-  13 2.59  22 2.59  20 2.60   1 3.37   4 3.44   5 3.49   8 3.53   6 3.56

  11  0.309  0.940  0.651-  16 2.59  23 2.59  17 2.60   4 3.37   1 3.44   8 3.49   5 3.53   7 3.56

  12  0.691  0.060  0.349-  15 2.59  24 2.59  18 2.60   3 3.37   2 3.44   7 3.49   6 3.53   8 3.56

  13  0.809  0.560  0.849-  10 2.59  22 2.59  20 2.60   1 3.37   4 3.44   5 3.49   8 3.53   6 3.56

  14  0.191  0.440  0.151-   9 2.59  21 2.59  19 2.60   2 3.37   3 3.44   6 3.49   7 3.53   5 3.56

  15  0.691  0.440  0.349-  12 2.59  24 2.59  18 2.60   3 3.37   2 3.44   7 3.49   6 3.53   8 3.56

  16  0.309  0.560  0.651-  11 2.59  23 2.59  17 2.60   4 3.37   1 3.44   8 3.49   5 3.53   7 3.56

  17  0.072  0.750  0.592-  11 2.60  16 2.60  23 2.64   2 3.41   1 3.64   1 3.64   5 3.75   8 3.76

  18  0.928  0.250  0.408-  15 2.60  12 2.60  24 2.64   1 3.41   2 3.64   2 3.64   6 3.75   7 3.76

  19  0.428  0.250  0.092-  14 2.60   9 2.60  21 2.64   4 3.41   3 3.64   3 3.64   7 3.75   6 3.76

  20  0.572  0.750  0.908-  10 2.60  13 2.60  22 2.64   3 3.41   4 3.64   4 3.64   8 3.75   5 3.76

  21  0.194  0.250  0.958-  14 2.59   9 2.59  19 2.64   4 3.40   5 3.48   5 3.48   1 3.51   6 3.57

  22  0.806  0.750  0.042-  10 2.59  13 2.59  20 2.64   3 3.40   6 3.48   6 3.48   2 3.51   5 3.57

  23  0.306  0.750  0.458-  11 2.59  16 2.59  17 2.64   2 3.40   7 3.48   7 3.48   3 3.51   8 3.57

  24  0.694  0.250  0.542-  15 2.59  12 2.59  18 2.64   1 3.40   8 3.48   8 3.48   4 3.51   7 3.57

 
  LATTYP: Found a simple orthorhombic cell.
 ALAT       =     6.8154852786
 B/A-ratio  =     1.3324245635
 C/A-ratio  =     1.7114277484
  
  Lattice vectors:
  
 A1 = (   0.0000000000,  -6.8154852786,   0.0000000000)
 A2 = (  -9.0811199975,   0.0000000000,   0.0000000000)
 A3 = (   0.0000000000,   0.0000000000, -11.6642106246)


Analysis of symmetry for initial positions (statically):
=====================================================================
 Subroutine PRICEL returns:
 Original cell was already a primitive cell.
 

 Routine SETGRP: Setting up the symmetry group for a 
 simple orthorhombic supercell.


 Subroutine GETGRP returns: Found  8 space group operations
 (whereof  2 operations were pure point group operations)
 out of a pool of  8 trial point group operations.


The static configuration has the point symmetry S_2 .
 The point group associated with its full space group is D_2h.


Analysis of symmetry for dynamics (positions and initial velocities):
=====================================================================
 Subroutine PRICEL returns:
 Original cell was already a primitive cell.
 

 Routine SETGRP: Setting up the symmetry group for a 
 simple orthorhombic supercell.


 Subroutine GETGRP returns: Found  8 space group operations
 (whereof  2 operations were pure point group operations)
 out of a pool of  8 trial point group operations.


The dynamic configuration has the point symmetry S_2 .
 The point group associated with its full space group is D_2h.


 Subroutine INISYM returns: Found  8 space group operations
 (whereof  2 operations are pure point group operations),
 and found     1 'primitive' translations

 
 
 KPOINTS: Automatically generated mesh            
  k-points in reciprocal lattice
Space group operators:
 irot       det(A)        alpha          n_x          n_y          n_z        tau_x        tau_y        tau_z
    1     1.000000     0.000000     1.000000     0.000000     0.000000     0.000000     0.000000     0.000000
    2    -1.000000     0.000000     1.000000     0.000000     0.000000     0.000000     0.000000     0.000000
    3     1.000000   179.999999     0.000000     0.000000     1.000000    -0.500000     0.000000    -0.500000
    4    -1.000000   179.999999     0.000000     0.000000     1.000000    -0.500000     0.000000    -0.500000
    5     1.000000   179.999999     1.000000     0.000000     0.000000    -0.500000    -0.500000    -0.500000
    6    -1.000000   179.999999     1.000000     0.000000     0.000000    -0.500000    -0.500000    -0.500000
    7     1.000000   180.000000     0.000000     1.000000     0.000000    -0.000000    -0.500000    -0.000000
    8    -1.000000   180.000000     0.000000     1.000000     0.000000     0.000000    -0.500000     0.000000

 ----------------------------------------------------------------------------- 
|                                                                             |
|           W    W    AA    RRRRR   N    N  II  N    N   GGGG   !!!           |
|           W    W   A  A   R    R  NN   N  II  NN   N  G    G  !!!           |
|           W    W  A    A  R    R  N N  N  II  N N  N  G       !!!           |
|           W WW W  AAAAAA  RRRRR   N  N N  II  N  N N  G  GGG   !            |
|           WW  WW  A    A  R   R   N   NN  II  N   NN  G    G                |
|           W    W  A    A  R    R  N    N  II  N    N   GGGG   !!!           |
|                                                                             |
|      Your generating k-point grid is not commensurate to the symmetry       |
|      of the lattice.  This can cause   slow convergence with respect        |
|      to k-points for HF type calculations                                   |
|      suggested SOLUTIONS:                                                   |
|       ) if not already the case, use automatic k-point generation           |
|       ) shift your grid to Gamma (G) (e.g. required for hex or fcc lattice) |
|                                                                             |
 ----------------------------------------------------------------------------- 

 
 Subroutine IBZKPT_HF returns following result:
 ==============================================
 
 Found     30 k-points in 1st BZ
 the following     30 k-points will be used (e.g. in the exchange kernel)
 Following reciprocal coordinates:   # in IRBZ
  0.000000  0.000000  0.000000    0.03333333   1 t-inv F
  0.166667  0.000000  0.000000    0.03333333   2 t-inv F
  0.333333  0.000000  0.000000    0.03333333   3 t-inv F
  0.500000  0.000000  0.000000    0.03333333   4 t-inv F
  0.000000  0.125000  0.000000    0.03333333   5 t-inv F
  0.166667  0.125000  0.000000    0.03333333   6 t-inv F
  0.333333  0.125000  0.000000    0.03333333   7 t-inv F
  0.500000  0.125000  0.000000    0.03333333   8 t-inv F
  0.000000  0.250000  0.000000    0.03333333   9 t-inv F
  0.166667  0.250000  0.000000    0.03333333  10 t-inv F
  0.333333  0.250000  0.000000    0.03333333  11 t-inv F
  0.500000  0.250000  0.000000    0.03333333  12 t-inv F
 -0.166667  0.000000  0.000000    0.03333333   2 t-inv F
 -0.333333  0.000000  0.000000    0.03333333   3 t-inv F
  0.000000 -0.125000  0.000000    0.03333333   5 t-inv F
 -0.166667 -0.125000  0.000000    0.03333333   6 t-inv F
  0.166667 -0.125000  0.000000    0.03333333   6 t-inv F
 -0.166667  0.125000  0.000000    0.03333333   6 t-inv F
 -0.333333 -0.125000  0.000000    0.03333333   7 t-inv F
  0.333333 -0.125000  0.000000    0.03333333   7 t-inv F
 -0.333333  0.125000  0.000000    0.03333333   7 t-inv F
 -0.500000 -0.125000  0.000000    0.03333333   8 t-inv F
  0.000000 -0.250000  0.000000    0.03333333   9 t-inv F
 -0.166667 -0.250000  0.000000    0.03333333  10 t-inv F
  0.166667 -0.250000  0.000000    0.03333333  10 t-inv F
 -0.166667  0.250000  0.000000    0.03333333  10 t-inv F
 -0.333333 -0.250000  0.000000    0.03333333  11 t-inv F
  0.333333 -0.250000  0.000000    0.03333333  11 t-inv F
 -0.333333  0.250000  0.000000    0.03333333  11 t-inv F
 -0.500000 -0.250000  0.000000    0.03333333  12 t-inv F


--------------------------------------------------------------------------------------------------------




 Dimension of arrays:
   k-points           NKPTS =     12   k-points in BZ     NKDIM =     30   number of bands    NBANDS=     88
   number of dos      NEDOS =   2801   number of ions     NIONS =     24
   non local maximal  LDIM  =      6   non local SUM 2l+1 LMDIM =     18
   total plane-waves  NPLWV = 128000
   max r-space proj   IRMAX =   2892   max aug-charges    IRDMAX=  11297
   dimension x,y,z NGX =    50 NGY =   40 NGZ =   64
   dimension x,y,z NGXF=   100 NGYF=   80 NGZF=  128
   support grid    NGXF=   100 NGYF=   80 NGZF=  128
   ions per type =               8  16
   NGX,Y,Z   is equivalent  to a cutoff of   9.15,  9.76,  9.12 a.u.
   NGXF,Y,Z  is equivalent  to a cutoff of  18.31, 19.51, 18.24 a.u.

 SYSTEM =  unknown system                          
 POSCAR =  ba8 ge16                                

 Startparameter for this run:
   NWRITE =      2    write-flag & timer
   PREC   = normal    normal or accurate (medium, high low for compatibility)
   ISTART =      1    job   : 0-new  1-cont  2-samecut
   ICHARG =      0    charge: 1-file 2-atom 10-const
   ISPIN  =      1    spin polarized calculation?
   LNONCOLLINEAR =      F non collinear calculations
   LSORBIT =      F    spin-orbit coupling
   INIWAV =      1    electr: 0-lowe 1-rand  2-diag
   LASPH  =      F    aspherical Exc in radial PAW
   METAGGA=      F    non-selfconsistent MetaGGA calc.

 Electronic Relaxation 1
   ENCUT  =  500.0 eV  36.75 Ry    6.06 a.u.  16.56 12.43 21.27*2*pi/ulx,y,z
   ENINI  =  500.0     initial cutoff
   ENAUG  =  385.8 eV  augmentation charge cutoff
   NELM   =    300;   NELMIN=  4; NELMDL=  0     # of ELM steps 
   EDIFF  = 0.1E-05   stopping-criterion for ELM
   LREAL  =      T    real-space projection
   NLSPLINE    = F    spline interpolate recip. space projectors
   LCOMPAT=      F    compatible to vasp.4.4
   GGA_COMPAT  = T    GGA compatible to vasp.4.4-vasp.4.6
   LMAXPAW     = -100 max onsite density
   LMAXMIX     =    2 max onsite mixed and CHGCAR
   VOSKOWN=      0    Vosko Wilk Nusair interpolation
   ROPT   =   -0.00050  -0.00050
 Ionic relaxation
   EDIFFG = 0.1E-04   stopping-criterion for IOM
   NSW    =      0    number of steps for IOM
   NBLOCK =      1;   KBLOCK =      1    inner block; outer block 
   IBRION =     -1    ionic relax: 0-MD 1-quasi-New 2-CG
   NFREE  =      0    steps in history (QN), initial steepest desc. (CG)
   ISIF   =      0    stress and relaxation
   IWAVPR =     10    prediction:  0-non 1-charg 2-wave 3-comb
   ISYM   =      3    0-nonsym 1-usesym 2-fastsym
   LCORR  =      T    Harris-Foulkes like correction to forces

   POTIM  = 0.5000    time-step for ionic-motion
   TEIN   =    0.0    initial temperature
   TEBEG  =    0.0;   TEEND  =   0.0 temperature during run
   SMASS  =  -3.00    Nose mass-parameter (am)
   estimated Nose-frequenzy (Omega)   =  0.10E-29 period in steps =****** mass=  -0.188E-26a.u.
   SCALEE = 1.0000    scale energy and forces
   NPACO  =    256;   APACO  = 16.0  distance and # of slots for P.C.
   PSTRESS=    0.0 pullay stress

  Mass of Ions in am
   POMASS = 137.33 72.61
  Ionic Valenz
   ZVAL   =  10.00  4.00
  Atomic Wigner-Seitz radii
   RWIGS  =  -1.00 -1.00
  virtual crystal weights 
   VCA    =   1.00  1.00
   NELECT =     144.0000    total number of electrons
   NUPDOWN=      -1.0000    fix difference up-down

 DOS related values:
   EMIN   = -10.00;   EMAX   = 18.00  energy-range for DOS
   EFERMI =   0.00
   ISMEAR =     0;   SIGMA  =   0.01  broadening in eV -4-tet -1-fermi 0-gaus

 Electronic relaxation 2 (details)
   IALGO  =     53    algorithm
   LDIAG  =      T    sub-space diagonalisation (order eigenvalues)
   LSUBROT=      F    optimize rotation matrix (better conditioning)
   TURBO    =      0    0=normal 1=particle mesh
   IRESTART =      0    0=no restart 2=restart with 2 vectors
   NREBOOT  =      0    no. of reboots
   NMIN     =      0    reboot dimension
   EREF     =   0.00    reference energy to select bands
   IMIX   =      4    mixing-type and parameters
     AMIX     =   0.40;   BMIX     =  1.00
     AMIX_MAG =   1.60;   BMIX_MAG =  1.00
     AMIN     =   0.10
     WC   =   100.;   INIMIX=   1;  MIXPRE=   1;  MAXMIX= -45

 Intra band minimization:
   WEIMIN = 0.0000     energy-eigenvalue tresh-hold
   EBREAK =  0.28E-08  absolut break condition
   DEPER  =   0.30     relativ break condition  

   TIME   =   0.40     timestep for ELM

  volume/ion in A,a.u.               =      30.08       202.99
  Fermi-wavevector in a.u.,A,eV,Ry     =   0.956530  1.807579 12.448639  0.914949
  Thomas-Fermi vector in A             =   2.085466
 
 Write flags
   LWAVE        =      F    write WAVECAR
   LDOWNSAMPLE  =      F    k-point downsampling of WAVECAR
   LCHARG       =      T    write CHGCAR
   LVTOT        =      F    write LOCPOT, total local potential
   LVHAR        =      F    write LOCPOT, Hartree potential only
   LELF         =      F    write electronic localiz. function (ELF)
   LORBIT       =     11    0 simple, 1 ext, 2 COOP (PROOUT), +10 PAW based schemes


 Dipole corrections
   LMONO  =      F    monopole corrections only (constant potential shift)
   LDIPOL =      F    correct potential (dipole corrections)
   IDIPOL =      0    1-x, 2-y, 3-z, 4-all directions 
   EPSILON=  1.0000000 bulk dielectric constant

 Exchange correlation treatment:
   GGA     =    --    GGA type
   LEXCH   =     8    internal setting for exchange type
   VOSKOWN=      0    Vosko Wilk Nusair interpolation
   EXXOEP  =     0    0=HF, 1=EXX-LHF (local Hartree Fock) 2=EXX OEP
   LHFCALC =     T    Hartree Fock is set to
   LSYMGRAD=     F    symmetrize gradient (conserves proper symmetry)
   PRECFOCK=normal    Normal, Fast or Accurate (Low or Medium for compatibility)
   LRHFCALC=     F    long range Hartree Fock
   LRSCOR  =     F    long range correlation only (use DFT for short range part)
   LTHOMAS =     F    Thomas Fermi screening in HF
   LMODELHF=     F    short range full HF, long range fraction AEXX
   ENCUT4O =  -1.0   cutoff for four orbital integrals eV
   LMAXFOCK=     4    L truncation for augmentation on plane wave grid
   LMAXFOCKAE=  -1    L truncation for all-electron charge restoration on plane wave grid
   NMAXFOCKAE=   1    number of basis functions for all-electron charge restoration
   LFOCKAEDFT=     F  apply the AE augmentation even for DFT
   NKREDX  =     1    reduce k-point grid by
   NKREDY  =     1    reduce k-point grid by
   NKREDZ  =     1    reduce k-point grid by
   SHIFTRED=     F    shift reduced grid of Gamma
   HFKIDENT=     F    idential grid for each k-point
   ODDONLY =     F    use only odd q-grid points
   EVENONLY=     F    use only even q-grid points
   HFALPHA =   -1.0000 decay constant for conv. correction
   MCALPHA =    0.0000 extent of test-charge in conv. correction in multipole expansion
   AEXX    =    0.2500 exact exchange contribution
   HFSCREEN=    0.2000 screening length (either q_TF or 0.3 A-1)
   HFSCREENC=   0.2000 screening length for correlation (either q_TF or 0.3 A-1)
   HFRCUT  =    0.0000 spherical cutoff for potential kernel
   ALDAX   =    0.7500 LDA exchange part
   AGGAX   =    0.7500 GGA exchange part
   ALDAC   =    1.0000 LDA correlation
   AGGAC   =    1.0000 GGA correlation
   ENCUTFOCK=  -1.0 apply spherical cutoff to Coloumb kernel
   NBANDSGWLOW=     1    first orbital included in HF term
   NBLOCK_FOCK=    64    blocking factor in FOCK_ACC
 Linear response parameters
   LEPSILON=     F    determine dielectric tensor
   LRPA    =     F    only Hartree local field effects (RPA)
   LNABLA  =     F    use nabla operator in PAW spheres
   LVEL    =     F    velocity operator in full k-point grid
   LINTERFAST=   F  fast interpolation
   KINTER  =     0    interpolate to denser k-point grid
   CSHIFT  =0.1000    complex shift for real part using Kramers Kronig
   OMEGAMAX=  -1.0    maximum frequency
   DEG_THRESHOLD= 0.2000000E-02 threshold for treating states as degnerate
   RTIME   =   -0.100 relaxation time in fs
  (WPLASMAI=    0.000 imaginary part of plasma frequency in eV, 0.658/RTIME)
   DFIELD  = 0.0000000 0.0000000 0.0000000 field for delta impulse in time
 
 Orbital magnetization related:
   ORBITALMAG=     F  switch on orbital magnetization
   LCHIMAG   =     F  perturbation theory with respect to B field
   DQ        =  0.001000  dq finite difference perturbation B field
   LLRAUG    =     F  two centre corrections for induced B field



--------------------------------------------------------------------------------------------------------


 Static calculation
 charge density and potential will be updated during run
 non-spin polarized calculation
 Conjugate gradient for all bands (Freysoldt, et al. PRB 79, 241103 (2009))
 perform sub-space diagonalisation
    before iterative eigenvector-optimisation
 modified Broyden-mixing scheme, WC =      100.0
 initial mixing is a Kerker type mixing with AMIX =  0.4000 and BMIX =      1.0000
 Hartree-type preconditioning will be used
 using additional bands           16
 real space projection scheme for non local part
 use partial core corrections
 no Harris-corrections to forces 
 use gradient corrections 
 use of overlap-Matrix (Vanderbilt PP)
 Gauss-broadening in eV      SIGMA  =   0.01


--------------------------------------------------------------------------------------------------------


  energy-cutoff  :      500.00
  volume of cell :      721.92
      direct lattice vectors                 reciprocal lattice vectors
     9.081119998  0.000000000  0.000000000     0.110118576  0.000000000  0.000000000
     0.000000000  6.815485279  0.000000000     0.000000000  0.146724695  0.000000000
     0.000000000  0.000000000 11.664210625     0.000000000  0.000000000  0.085732334

  length of vectors
     9.081119998  6.815485279 11.664210625     0.110118576  0.146724695  0.085732334


 
 old parameters found on file WAVECAR:
  energy-cutoff  :      500.00
  volume of cell :      721.92
      direct lattice vectors                 reciprocal lattice vectors
     9.081119998  0.000000000  0.000000000     0.110118576  0.000000000  0.000000000
     0.000000000  6.815485279  0.000000000     0.000000000  0.146724695  0.000000000
     0.000000000  0.000000000 11.664210625     0.000000000  0.000000000  0.085732334

  length of vectors

 
 k-points in units of 2pi/SCALE and weight: Automatically generated mesh            
   0.00000000  0.00000000  0.00000000       0.033
   0.01835310  0.00000000  0.00000000       0.067
   0.03670619  0.00000000  0.00000000       0.067
   0.05505929  0.00000000  0.00000000       0.033
   0.00000000  0.01834059  0.00000000       0.067
   0.01835310  0.01834059  0.00000000       0.133
   0.03670619  0.01834059  0.00000000       0.133
   0.05505929  0.01834059  0.00000000       0.067
   0.00000000  0.03668117  0.00000000       0.067
   0.01835310  0.03668117  0.00000000       0.133
   0.03670619  0.03668117  0.00000000       0.133
   0.05505929  0.03668117  0.00000000       0.067
 
 k-points in reciprocal lattice and weights: Automatically generated mesh            
   0.00000000  0.00000000  0.00000000       0.033
   0.16666667  0.00000000  0.00000000       0.067
   0.33333333  0.00000000  0.00000000       0.067
   0.50000000  0.00000000  0.00000000       0.033
   0.00000000  0.12500000  0.00000000       0.067
   0.16666667  0.12500000  0.00000000       0.133
   0.33333333  0.12500000  0.00000000       0.133
   0.50000000  0.12500000  0.00000000       0.067
   0.00000000  0.25000000  0.00000000       0.067
   0.16666667  0.25000000  0.00000000       0.133
   0.33333333  0.25000000  0.00000000       0.133
   0.50000000  0.25000000  0.00000000       0.067
 
 position of ions in fractional coordinates (direct lattice) 
   0.01497662  0.25000000  0.69161086
   0.98502338  0.75000002  0.30838914
   0.48502338  0.75000002  0.19161080
   0.51497662  0.25000000  0.80838918
   0.15839986  0.75000002  0.90681909
   0.84160014  0.25000000  0.09318089
   0.34160014  0.25000000  0.40681917
   0.65839986  0.75000002  0.59318087
   0.19073663  0.06008918  0.15078477
   0.80926337  0.93991081  0.84921521
   0.30926337  0.93991081  0.65078479
   0.69073663  0.06008918  0.34921521
   0.80926337  0.56008919  0.84921521
   0.19073663  0.43991081  0.15078477
   0.69073663  0.43991081  0.34921521
   0.30926337  0.56008919  0.65078479
   0.07203401  0.75000002  0.59237080
   0.92796597  0.25000000  0.40762920
   0.42796599  0.25000000  0.09237074
   0.57203403  0.75000002  0.90762924
   0.19395758  0.25000000  0.95837667
   0.80604241  0.75000002  0.04162335
   0.30604241  0.75000002  0.45837658
   0.69395759  0.25000000  0.54162333
 
 position of ions in cartesian coordinates  (Angst):
   0.13600449  1.70387132  8.06709478
   8.94511554  5.11161408  3.59711584
   4.40455554  5.11161408  2.23498875
   4.67656445  1.70387132  9.42922164
   1.43844813  5.11161408 10.57732888
   7.64267186  1.70387132  1.08688150
   3.10211187  1.70387132  4.74522453
   5.97900813  5.11161408  6.91898658
   1.73210220  0.40953693  1.75878526
   7.34901780  6.40594829  9.90542512
   2.80845780  6.40594829  7.59089081
   6.27266220  0.40953693  4.07331981
   7.34901780  3.81727963  9.90542512
   1.73210220  2.99820565  1.75878526
   6.27266220  2.99820565  4.07331981
   2.80845780  3.81727963  7.59089081
   0.65414950  5.11161408  6.90953782
   8.42697031  1.70387132  4.75467281
   3.88641055  1.70387132  1.07743178
   5.19470968  5.11161408 10.58677860
   1.76135203  1.70387132 11.17870730
   7.31976785  5.11161408  0.48550351
   2.77920785  5.11161408  5.34660103
   6.30191215  1.70387132  6.31760864
 


--------------------------------------------------------------------------------------------------------


 k-point  1 :   0.0000 0.0000 0.0000  plane waves:   18375
 k-point  2 :   0.1667 0.0000 0.0000  plane waves:   18339
 k-point  3 :   0.3333 0.0000 0.0000  plane waves:   18325
 k-point  4 :   0.5000 0.0000 0.0000  plane waves:   18342
 k-point  5 :   0.0000 0.1250 0.0000  plane waves:   18361
 k-point  6 :   0.1667 0.1250 0.0000  plane waves:   18365
 k-point  7 :   0.3333 0.1250 0.0000  plane waves:   18355
 k-point  8 :   0.5000 0.1250 0.0000  plane waves:   18360
 k-point  9 :   0.0000 0.2500 0.0000  plane waves:   18309
 k-point 10 :   0.1667 0.2500 0.0000  plane waves:   18332
 k-point 11 :   0.3333 0.2500 0.0000  plane waves:   18333
 k-point 12 :   0.5000 0.2500 0.0000  plane waves:   18312

 maximum and minimum number of plane-waves per node :       941      889

 maximum number of plane-waves:     18375
 maximum index in each direction: 
   IXMAX=   16   IYMAX=   12   IZMAX=   21
   IXMIN=  -17   IYMIN=  -12   IZMIN=  -21


 real space projection operators:
  total allocation   :       5507.88 KBytes
  max/ min on nodes  :        333.62        223.16


 parallel 3D FFT for wavefunctions:
    minimum data exchange during FFTs selected (reduces bandwidth)
 parallel 3D FFT for charge:
    minimum data exchange during FFTs selected (reduces bandwidth)

 
 Radii for the augmentation spheres in the non-local exchange
 for species   1 augmentation radius   1.524 (default was   1.219)
       energy cutoff for augmentation   2000.0
 for species   2 augmentation radius   1.227 (default was   1.163)
       energy cutoff for augmentation   2000.0

 real space projection operators:
  total allocation   :       8396.88 KBytes
  max/ min on nodes  :        500.20        357.62

 Maximum index for augmentation-charges in exchange          244
  SETUP_FOCK is finished

 total amount of memory used by VASP MPI-rank0    41413. kBytes
=======================================================================

   base      :      30000. kBytes
   nonlr-proj:       3294. kBytes
   fftplans  :        837. kBytes
   grid      :        888. kBytes
   one-center:         31. kBytes
   HF        :        129. kBytes
   wavefun   :       6234. kBytes
 
     INWAV:  cpu time    1.3423: real time    1.4213
 Broyden mixing: mesh for mixing (old mesh)
   NGX = 33   NGY = 25   NGZ = 43
  (NGX  =100   NGY  = 80   NGZ  =128)
  gives a total of  35475 points

 charge density for first step will be calculated from the start-wavefunctions


--------------------------------------------------------------------------------------------------------


 Maximum index for non-local projection operator          262
 Maximum index for augmentation-charges          586 (set IRDMAX)


--------------------------------------------------------------------------------------------------------


 initial charge from wavefunction
 First call to EWALD:  gamma=   0.198
 Maximum number of real-space cells 3x 3x 2
 Maximum number of reciprocal cells 3x 2x 3

    FEWALD:  cpu time    0.0046: real time    0.0046


--------------------------------------- Iteration      1(   1)  ---------------------------------------


    POTLOK:  cpu time    0.0249: real time    0.0249
    SETDIJ:  cpu time    0.1262: real time    0.1262
    TRIAL :  cpu time   95.4981: real time   95.9560
    CORREC:  cpu time    0.0005: real time    0.0005
    CHARGE:  cpu time    0.0608: real time    0.0608
    --------------------------------------------
      LOOP:  cpu time   95.7124: real time   96.2011

 eigenvalue-minimisations  :     0
 total energy-change (2. order) :-0.6305062E+02  (-0.3604758E+02)
 number of electron     144.0000005 magnetization 
 augmentation part      -24.1614917 magnetization 

 Free energy of the ion-electron system (eV)
  ---------------------------------------------------
  alpha Z        PSCENC =       571.43673610
  Ewald energy   TEWEN  =     -6387.87460875
  -Hartree energ DENC   =      -901.77498123
  -exchange      EXHF   =       231.05585218
  -V(xc)+E(xc)   XCENC  =        54.69128408
  PAW double counting   =      4101.34397701    -3904.01904569
  entropy T*S    EENTRO =        -0.00000000
  eigenvalues    EBANDS =     -1070.34140948
  atomic energy  EATOM  =      7242.43157640
  ---------------------------------------------------
  free energy    TOTEN  =       -63.05061939 eV

  energy without entropy =      -63.05061939  energy(sigma->0) =      -63.05061939
  exchange ACFDT corr.  =         0.00000000  see jH, gK, PRB 81, 115126


--------------------------------------------------------------------------------------------------------




--------------------------------------- Iteration      1(   2)  ---------------------------------------


    POTLOK:  cpu time    0.0247: real time    0.0247
    SETDIJ:  cpu time    0.1530: real time    0.1530
    TRIAL :  cpu time   95.1596: real time   95.1611
    CORREC:  cpu time    0.0004: real time    0.0004
    CHARGE:  cpu time    0.0621: real time    0.0621
    --------------------------------------------
      LOOP:  cpu time   95.4022: real time   95.4059

 eigenvalue-minimisations  :     0
 total energy-change (2. order) :-0.2805215E+02  (-0.2185217E+02)
 number of electron     144.0000005 magnetization 
 augmentation part      -23.9856495 magnetization 

 Free energy of the ion-electron system (eV)
  ---------------------------------------------------
  alpha Z        PSCENC =       571.43673610
  Ewald energy   TEWEN  =     -6387.87460875
  -Hartree energ DENC   =      -888.77632856
  -exchange      EXHF   =       233.12117825
  -V(xc)+E(xc)   XCENC  =        54.54089193
  PAW double counting   =      4076.51346122    -3880.04859326
  entropy T*S    EENTRO =        -0.00000000
  eigenvalues    EBANDS =     -1112.44708211
  atomic energy  EATOM  =      7242.43157640
  ---------------------------------------------------
  free energy    TOTEN  =       -91.10276876 eV

  energy without entropy =      -91.10276876  energy(sigma->0) =      -91.10276876
  exchange ACFDT corr.  =        -0.00000000  see jH, gK, PRB 81, 115126


--------------------------------------------------------------------------------------------------------




--------------------------------------- Iteration      1(   3)  ---------------------------------------


    POTLOK:  cpu time    0.0246: real time    0.0246
    SETDIJ:  cpu time    0.1781: real time    0.1781
    TRIAL :  cpu time   95.3040: real time   95.3099
    CORREC:  cpu time    0.0005: real time    0.0005
    CHARGE:  cpu time    0.0602: real time    0.0602
    --------------------------------------------
      LOOP:  cpu time   95.5692: real time   95.5779

 eigenvalue-minimisations  :     0
 total energy-change (2. order) :-0.1587040E+02  (-0.9693858E+01)
 number of electron     144.0000005 magnetization 
 augmentation part      -23.8969309 magnetization 

 Free energy of the ion-electron system (eV)
  ---------------------------------------------------
  alpha Z        PSCENC =       571.43673610
  Ewald energy   TEWEN  =     -6387.87460875
  -Hartree energ DENC   =      -884.54566514
  -exchange      EXHF   =       234.74953236
  -V(xc)+E(xc)   XCENC  =        54.63818102
  PAW double counting   =      4066.87658660    -3870.56201635
  entropy T*S    EENTRO =        -0.00000000
  eigenvalues    EBANDS =     -1134.12349476
  atomic energy  EATOM  =      7242.43157640
  ---------------------------------------------------
  free energy    TOTEN  =      -106.97317251 eV

  energy without entropy =     -106.97317251  energy(sigma->0) =     -106.97317251
  exchange ACFDT corr.  =        -0.00000000  see jH, gK, PRB 81, 115126


--------------------------------------------------------------------------------------------------------




--------------------------------------- Iteration      1(   4)  ---------------------------------------


    POTLOK:  cpu time    0.0249: real time    0.0249
    SETDIJ:  cpu time    0.1516: real time    0.1516
    TRIAL :  cpu time   95.2663: real time   95.2914
    CORREC:  cpu time    0.0005: real time    0.0005
    CHARGE:  cpu time    0.0600: real time    0.0600
    --------------------------------------------
      LOOP:  cpu time   95.5049: real time   95.5329

 eigenvalue-minimisations  :     0
 total energy-change (2. order) :-0.7154814E+01  (-0.4414388E+01)
 number of electron     144.0000005 magnetization 
 augmentation part      -23.8760112 magnetization 

 Free energy of the ion-electron system (eV)
  ---------------------------------------------------
  alpha Z        PSCENC =       571.43673610
  Ewald energy   TEWEN  =     -6387.87460875
  -Hartree energ DENC   =      -890.67150381
  -exchange      EXHF   =       236.09058829
  -V(xc)+E(xc)   XCENC  =        54.99185043
  PAW double counting   =      4078.59805520    -3881.99851207
  entropy T*S    EENTRO =        -0.00000000
  eigenvalues    EBANDS =     -1137.13216821
  atomic energy  EATOM  =      7242.43157640
  ---------------------------------------------------
  free energy    TOTEN  =      -114.12798641 eV

  energy without entropy =     -114.12798641  energy(sigma->0) =     -114.12798641
  exchange ACFDT corr.  =         0.00000000  see jH, gK, PRB 81, 115126


--------------------------------------------------------------------------------------------------------




--------------------------------------- Iteration      1(   5)  ---------------------------------------


    POTLOK:  cpu time    0.0245: real time    0.0245
    SETDIJ:  cpu time    0.1508: real time    0.1508
    TRIAL :  cpu time   95.1853: real time   95.2100
    CORREC:  cpu time    0.0004: real time    0.0004
    CHARGE:  cpu time    0.0608: real time    0.0608
    --------------------------------------------
      LOOP:  cpu time   95.4238: real time   95.4513

 eigenvalue-minimisations  :     0
 total energy-change (2. order) :-0.3354633E+01  (-0.2085101E+01)
 number of electron     144.0000005 magnetization 
 augmentation part      -23.8827221 magnetization 

 Free energy of the ion-electron system (eV)
  ---------------------------------------------------
  alpha Z        PSCENC =       571.43673610
  Ewald energy   TEWEN  =     -6387.87460875
  -Hartree energ DENC   =      -894.94573793
  -exchange      EXHF   =       236.84702093
  -V(xc)+E(xc)   XCENC  =        55.17495670
  PAW double counting   =      4086.47039369    -3889.67228110
  entropy T*S    EENTRO =        -0.00000000
  eigenvalues    EBANDS =     -1137.35067522
  atomic energy  EATOM  =      7242.43157640
  ---------------------------------------------------
  free energy    TOTEN  =      -117.48261917 eV

  energy without entropy =     -117.48261917  energy(sigma->0) =     -117.48261917
  exchange ACFDT corr.  =        -0.00000000  see jH, gK, PRB 81, 115126


--------------------------------------------------------------------------------------------------------




--------------------------------------- Iteration      1(   6)  ---------------------------------------


    POTLOK:  cpu time    0.0248: real time    0.0248
    SETDIJ:  cpu time    0.1520: real time    0.1522
    TRIAL :  cpu time   95.2704: real time   95.2956
    CORREC:  cpu time    0.0004: real time    0.0004
    CHARGE:  cpu time    0.0599: real time    0.0599
    --------------------------------------------
      LOOP:  cpu time   95.5094: real time   95.5379

 eigenvalue-minimisations  :     0
 total energy-change (2. order) :-0.1617628E+01  (-0.9778400E+00)
 number of electron     144.0000005 magnetization 
 augmentation part      -23.8936820 magnetization 

 Free energy of the ion-electron system (eV)
  ---------------------------------------------------
  alpha Z        PSCENC =       571.43673610
  Ewald energy   TEWEN  =     -6387.87460875
  -Hartree energ DENC   =      -894.06193410
  -exchange      EXHF   =       237.02562065
  -V(xc)+E(xc)   XCENC  =        55.11702960
  PAW double counting   =      4083.97726094    -3887.18621703
  entropy T*S    EENTRO =        -0.00000000
  eigenvalues    EBANDS =     -1139.96571085
  atomic energy  EATOM  =      7242.43157640
  ---------------------------------------------------
  free energy    TOTEN  =      -119.10024705 eV

  energy without entropy =     -119.10024705  energy(sigma->0) =     -119.10024705
  exchange ACFDT corr.  =        -0.00000000  see jH, gK, PRB 81, 115126


--------------------------------------------------------------------------------------------------------




--------------------------------------- Iteration      1(   7)  ---------------------------------------


    POTLOK:  cpu time    0.0252: real time    0.0252
    SETDIJ:  cpu time    0.1509: real time    0.1509
    TRIAL :  cpu time   95.2831: real time   95.3079
    CORREC:  cpu time    0.0005: real time    0.0005
    CHARGE:  cpu time    0.0601: real time    0.0601
    --------------------------------------------
      LOOP:  cpu time   95.5219: real time   95.5496

 eigenvalue-minimisations  :     0
 total energy-change (2. order) :-0.7596592E+00  (-0.4337156E+00)
 number of electron     144.0000005 magnetization 
 augmentation part      -23.8977322 magnetization 

 Free energy of the ion-electron system (eV)
  ---------------------------------------------------
  alpha Z        PSCENC =       571.43673610
  Ewald energy   TEWEN  =     -6387.87460875
  -Hartree energ DENC   =      -891.94754401
  -exchange      EXHF   =       236.98470741
  -V(xc)+E(xc)   XCENC  =        55.00941124
  PAW double counting   =      4079.19880184    -3882.46683169
  entropy T*S    EENTRO =        -0.00000000
  eigenvalues    EBANDS =     -1142.63215484
  atomic energy  EATOM  =      7242.43157640
  ---------------------------------------------------
  free energy    TOTEN  =      -119.85990630 eV

  energy without entropy =     -119.85990630  energy(sigma->0) =     -119.85990630
  exchange ACFDT corr.  =        -0.00000000  see jH, gK, PRB 81, 115126


--------------------------------------------------------------------------------------------------------




--------------------------------------- Iteration      1(   8)  ---------------------------------------


    POTLOK:  cpu time    0.0249: real time    0.0249
    SETDIJ:  cpu time    0.1515: real time    0.1515
    TRIAL :  cpu time   95.4094: real time   95.4349
    CORREC:  cpu time    0.0005: real time    0.0005
    CHARGE:  cpu time    0.0632: real time    0.0633
    --------------------------------------------
      LOOP:  cpu time   95.6514: real time   95.6805

 eigenvalue-minimisations  :     0
 total energy-change (2. order) :-0.3397657E+00  (-0.1905386E+00)
 number of electron     144.0000005 magnetization 
 augmentation part      -23.8967312 magnetization 

 Free energy of the ion-electron system (eV)
  ---------------------------------------------------
  alpha Z        PSCENC =       571.43673610
  Ewald energy   TEWEN  =     -6387.87460875
  -Hartree energ DENC   =      -891.43449669
  -exchange      EXHF   =       236.97974449
  -V(xc)+E(xc)   XCENC  =        54.97731590
  PAW double counting   =      4077.68508167    -3880.96225405
  entropy T*S    EENTRO =        -0.00000000
  eigenvalues    EBANDS =     -1143.43876710
  atomic energy  EATOM  =      7242.43157640
  ---------------------------------------------------
  free energy    TOTEN  =      -120.19967203 eV

  energy without entropy =     -120.19967203  energy(sigma->0) =     -120.19967203
  exchange ACFDT corr.  =        -0.00000000  see jH, gK, PRB 81, 115126


--------------------------------------------------------------------------------------------------------




--------------------------------------- Iteration      1(   9)  ---------------------------------------


    POTLOK:  cpu time    0.0251: real time    0.0253
    SETDIJ:  cpu time    0.1510: real time    0.1511
    TRIAL :  cpu time   95.2061: real time   95.2316
    CORREC:  cpu time    0.0004: real time    0.0004
    CHARGE:  cpu time    0.0601: real time    0.0601
    --------------------------------------------
      LOOP:  cpu time   95.4441: real time   95.4707

 eigenvalue-minimisations  :     0
 total energy-change (2. order) :-0.1513316E+00  (-0.8443013E-01)
 number of electron     144.0000005 magnetization 
 augmentation part      -23.8941790 magnetization 

 Free energy of the ion-electron system (eV)
  ---------------------------------------------------
  alpha Z        PSCENC =       571.43673610
  Ewald energy   TEWEN  =     -6387.87460875
  -Hartree energ DENC   =      -891.78239405
  -exchange      EXHF   =       237.01332198
  -V(xc)+E(xc)   XCENC  =        54.99068938
  PAW double counting   =      4077.90351199    -3881.16260054
  entropy T*S    EENTRO =        -0.00000000
  eigenvalues    EBANDS =     -1143.30723611
  atomic energy  EATOM  =      7242.43157640
  ---------------------------------------------------
  free energy    TOTEN  =      -120.35100359 eV

  energy without entropy =     -120.35100359  energy(sigma->0) =     -120.35100359
  exchange ACFDT corr.  =        -0.00000000  see jH, gK, PRB 81, 115126


--------------------------------------------------------------------------------------------------------




--------------------------------------- Iteration      1(  10)  ---------------------------------------


    POTLOK:  cpu time    0.0302: real time    0.0302
    SETDIJ:  cpu time    0.1489: real time    0.1489
    TRIAL :  cpu time   95.3229: real time   95.3481
    CORREC:  cpu time    0.0007: real time    0.0007
    CHARGE:  cpu time    0.0604: real time    0.0604
    --------------------------------------------
      LOOP:  cpu time   95.5641: real time   95.5893

 eigenvalue-minimisations  :     0
 total energy-change (2. order) :-0.6818901E-01  (-0.3898431E-01)
 number of electron     144.0000005 magnetization 
 augmentation part      -23.8920759 magnetization 

 Free energy of the ion-electron system (eV)
  ---------------------------------------------------
  alpha Z        PSCENC =       571.43673610
  Ewald energy   TEWEN  =     -6387.87460875
  -Hartree energ DENC   =      -891.98975851
  -exchange      EXHF   =       237.03801068
  -V(xc)+E(xc)   XCENC  =        55.00392549
  PAW double counting   =      4077.98066755    -3881.22697603
  entropy T*S    EENTRO =        -0.00000000
  eigenvalues    EBANDS =     -1143.21876555
  atomic energy  EATOM  =      7242.43157640
  ---------------------------------------------------
  free energy    TOTEN  =      -120.41919261 eV

  energy without entropy =     -120.41919261  energy(sigma->0) =     -120.41919261
  exchange ACFDT corr.  =        -0.00000000  see jH, gK, PRB 81, 115126


--------------------------------------------------------------------------------------------------------




--------------------------------------- Iteration      1(  11)  ---------------------------------------


    POTLOK:  cpu time    0.0247: real time    0.0247
    SETDIJ:  cpu time    0.1507: real time    0.1507
    TRIAL :  cpu time   95.4936: real time   95.5190
    CORREC:  cpu time    0.0006: real time    0.0006
    CHARGE:  cpu time    0.0603: real time    0.0603
    --------------------------------------------
      LOOP:  cpu time   95.7308: real time   95.7563

 eigenvalue-minimisations  :     0
 total energy-change (2. order) :-0.3172146E-01  (-0.1815658E-01)
 number of electron     144.0000005 magnetization 
 augmentation part      -23.8909629 magnetization 

 Free energy of the ion-electron system (eV)
  ---------------------------------------------------
  alpha Z        PSCENC =       571.43673610
  Ewald energy   TEWEN  =     -6387.87460875
  -Hartree energ DENC   =      -891.90202797
  -exchange      EXHF   =       237.04247908
  -V(xc)+E(xc)   XCENC  =        55.00528534
  PAW double counting   =      4077.63178156    -3880.87535496
  entropy T*S    EENTRO =        -0.00000000
  eigenvalues    EBANDS =     -1143.34678086
  atomic energy  EATOM  =      7242.43157640
  ---------------------------------------------------
  free energy    TOTEN  =      -120.45091407 eV

  energy without entropy =     -120.45091407  energy(sigma->0) =     -120.45091407
  exchange ACFDT corr.  =        -0.00000000  see jH, gK, PRB 81, 115126


--------------------------------------------------------------------------------------------------------




--------------------------------------- Iteration      1(  12)  ---------------------------------------


    POTLOK:  cpu time    0.0245: real time    0.0245
    SETDIJ:  cpu time    0.1517: real time    0.1517
    TRIAL :  cpu time   98.6116: real time   98.6377
    CORREC:  cpu time    0.0027: real time    0.0027
    CHARGE:  cpu time    0.0665: real time    0.0665
    --------------------------------------------
      LOOP:  cpu time   98.8580: real time   98.8840

 eigenvalue-minimisations  :     0
 total energy-change (2. order) :-0.1478619E-01  (-0.8452069E-02)
 number of electron     144.0000005 magnetization 
 augmentation part      -23.8903806 magnetization 

 Free energy of the ion-electron system (eV)
  ---------------------------------------------------
  alpha Z        PSCENC =       571.43673610
  Ewald energy   TEWEN  =     -6387.87460875
  -Hartree energ DENC   =      -891.76860777
  -exchange      EXHF   =       237.04003964
  -V(xc)+E(xc)   XCENC  =        55.00234460
  PAW double counting   =      4077.29230568    -3880.53863578
  entropy T*S    EENTRO =        -0.00000000
  eigenvalues    EBANDS =     -1143.48685038
  atomic energy  EATOM  =      7242.43157640
  ---------------------------------------------------
  free energy    TOTEN  =      -120.46570026 eV

  energy without entropy =     -120.46570026  energy(sigma->0) =     -120.46570026
  exchange ACFDT corr.  =        -0.00000000  see jH, gK, PRB 81, 115126


--------------------------------------------------------------------------------------------------------




--------------------------------------- Iteration      1(  13)  ---------------------------------------


    POTLOK:  cpu time    0.0250: real time    0.0250
    SETDIJ:  cpu time    0.1501: real time    0.1503
    TRIAL :  cpu time   95.3169: real time   95.3424
    CORREC:  cpu time    0.0005: real time    0.0005
    CHARGE:  cpu time    0.0601: real time    0.0601
    --------------------------------------------
      LOOP:  cpu time   95.5538: real time   95.5795

 eigenvalue-minimisations  :     0
 total energy-change (2. order) :-0.6918408E-02  (-0.4006309E-02)
 number of electron     144.0000005 magnetization 
 augmentation part      -23.8899023 magnetization 

 Free energy of the ion-electron system (eV)
  ---------------------------------------------------
  alpha Z        PSCENC =       571.43673610
  Ewald energy   TEWEN  =     -6387.87460875
  -Hartree energ DENC   =      -891.74113151
  -exchange      EXHF   =       237.04115256
  -V(xc)+E(xc)   XCENC  =        55.00168902
  PAW double counting   =      4077.19767349    -3880.44470622
  entropy T*S    EENTRO =        -0.00000000
  eigenvalues    EBANDS =     -1143.52099975
  atomic energy  EATOM  =      7242.43157640
  ---------------------------------------------------
  free energy    TOTEN  =      -120.47261867 eV

  energy without entropy =     -120.47261867  energy(sigma->0) =     -120.47261867
  exchange ACFDT corr.  =        -0.00000000  see jH, gK, PRB 81, 115126


--------------------------------------------------------------------------------------------------------




--------------------------------------- Iteration      1(  14)  ---------------------------------------


    POTLOK:  cpu time    0.0248: real time    0.0248
    SETDIJ:  cpu time    0.1516: real time    0.1516
    TRIAL :  cpu time   95.3549: real time   95.3803
    CORREC:  cpu time    0.0004: real time    0.0004
    CHARGE:  cpu time    0.0601: real time    0.0601
    --------------------------------------------
      LOOP:  cpu time   95.5929: real time   95.6183

 eigenvalue-minimisations  :     0
 total energy-change (2. order) :-0.3296366E-02  (-0.1950548E-02)
 number of electron     144.0000005 magnetization 
 augmentation part      -23.8893936 magnetization 

 Free energy of the ion-electron system (eV)
  ---------------------------------------------------
  alpha Z        PSCENC =       571.43673610
  Ewald energy   TEWEN  =     -6387.87460875
  -Hartree energ DENC   =      -891.76608224
  -exchange      EXHF   =       237.04435708
  -V(xc)+E(xc)   XCENC  =        55.00254456
  PAW double counting   =      4077.21363031    -3880.46096795
  entropy T*S    EENTRO =        -0.00000000
  eigenvalues    EBANDS =     -1143.50310054
  atomic energy  EATOM  =      7242.43157640
  ---------------------------------------------------
  free energy    TOTEN  =      -120.47591504 eV

  energy without entropy =     -120.47591504  energy(sigma->0) =     -120.47591504
  exchange ACFDT corr.  =        -0.00000000  see jH, gK, PRB 81, 115126


--------------------------------------------------------------------------------------------------------




--------------------------------------- Iteration      1(  15)  ---------------------------------------


    POTLOK:  cpu time    0.0246: real time    0.0246
    SETDIJ:  cpu time    0.1508: real time    0.1508
    TRIAL :  cpu time   95.2399: real time   95.2652
    CORREC:  cpu time    0.0004: real time    0.0004
    CHARGE:  cpu time    0.0600: real time    0.0600
    --------------------------------------------
      LOOP:  cpu time   95.4766: real time   95.5020

 eigenvalue-minimisations  :     0
 total energy-change (2. order) :-0.1613131E-02  (-0.9930152E-03)
 number of electron     144.0000005 magnetization 
 augmentation part      -23.8889317 magnetization 

 Free energy of the ion-electron system (eV)
  ---------------------------------------------------
  alpha Z        PSCENC =       571.43673610
  Ewald energy   TEWEN  =     -6387.87460875
  -Hartree energ DENC   =      -891.77894057
  -exchange      EXHF   =       237.04655002
  -V(xc)+E(xc)   XCENC  =        55.00305252
  PAW double counting   =      4077.21162409    -3880.45988318
  entropy T*S    EENTRO =        -0.00000000
  eigenvalues    EBANDS =     -1143.49363480
  atomic energy  EATOM  =      7242.43157640
  ---------------------------------------------------
  free energy    TOTEN  =      -120.47752817 eV

  energy without entropy =     -120.47752817  energy(sigma->0) =     -120.47752817
  exchange ACFDT corr.  =        -0.00000000  see jH, gK, PRB 81, 115126


--------------------------------------------------------------------------------------------------------




--------------------------------------- Iteration      1(  16)  ---------------------------------------


    POTLOK:  cpu time    0.0245: real time    0.0245
    SETDIJ:  cpu time    0.1506: real time    0.1508
    TRIAL :  cpu time   95.3739: real time   95.3990
    CORREC:  cpu time    0.0004: real time    0.0004
    CHARGE:  cpu time    0.0616: real time    0.0616
    --------------------------------------------
      LOOP:  cpu time   95.6120: real time   95.6374

 eigenvalue-minimisations  :     0
 total energy-change (2. order) :-0.8258678E-03  (-0.5326455E-03)
 number of electron     144.0000005 magnetization 
 augmentation part      -23.8885747 magnetization 

 Free energy of the ion-electron system (eV)
  ---------------------------------------------------
  alpha Z        PSCENC =       571.43673610
  Ewald energy   TEWEN  =     -6387.87460875
  -Hartree energ DENC   =      -891.77261903
  -exchange      EXHF   =       237.04735940
  -V(xc)+E(xc)   XCENC  =        55.00297191
  PAW double counting   =      4077.17909580    -3880.42867723
  entropy T*S    EENTRO =        -0.00000000
  eigenvalues    EBANDS =     -1143.50018864
  atomic energy  EATOM  =      7242.43157640
  ---------------------------------------------------
  free energy    TOTEN  =      -120.47835403 eV

  energy without entropy =     -120.47835403  energy(sigma->0) =     -120.47835403
  exchange ACFDT corr.  =        -0.00000000  see jH, gK, PRB 81, 115126


--------------------------------------------------------------------------------------------------------




--------------------------------------- Iteration      1(  17)  ---------------------------------------


    POTLOK:  cpu time    0.0249: real time    0.0249
    SETDIJ:  cpu time    0.1506: real time    0.1506
    TRIAL :  cpu time   95.2463: real time   95.2709
    CORREC:  cpu time    0.0004: real time    0.0004
    CHARGE:  cpu time    0.0601: real time    0.0601
    --------------------------------------------
      LOOP:  cpu time   95.4833: real time   95.5079

 eigenvalue-minimisations  :     0
 total energy-change (2. order) :-0.4459094E-03  (-0.3003862E-03)
 number of electron     144.0000005 magnetization 
 augmentation part      -23.8883156 magnetization 

 Free energy of the ion-electron system (eV)
  ---------------------------------------------------
  alpha Z        PSCENC =       571.43673610
  Ewald energy   TEWEN  =     -6387.87460875
  -Hartree energ DENC   =      -891.76432617
  -exchange      EXHF   =       237.04775557
  -V(xc)+E(xc)   XCENC  =        55.00285748
  PAW double counting   =      4077.14938624    -3880.40008057
  entropy T*S    EENTRO =        -0.00000000
  eigenvalues    EBANDS =     -1143.50809624
  atomic energy  EATOM  =      7242.43157640
  ---------------------------------------------------
  free energy    TOTEN  =      -120.47879994 eV

  energy without entropy =     -120.47879994  energy(sigma->0) =     -120.47879994
  exchange ACFDT corr.  =        -0.00000000  see jH, gK, PRB 81, 115126


--------------------------------------------------------------------------------------------------------




--------------------------------------- Iteration      1(  18)  ---------------------------------------


    POTLOK:  cpu time    0.0248: real time    0.0248
    SETDIJ:  cpu time    0.1508: real time    0.1508
    TRIAL :  cpu time   95.4343: real time   95.4599
    CORREC:  cpu time    0.0004: real time    0.0004
    CHARGE:  cpu time    0.0607: real time    0.0607
    --------------------------------------------
      LOOP:  cpu time   95.6720: real time   95.6976

 eigenvalue-minimisations  :     0
 total energy-change (2. order) :-0.2534671E-03  (-0.1774181E-03)
 number of electron     144.0000005 magnetization 
 augmentation part      -23.8881309 magnetization 

 Free energy of the ion-electron system (eV)
  ---------------------------------------------------
  alpha Z        PSCENC =       571.43673610
  Ewald energy   TEWEN  =     -6387.87460875
  -Hartree energ DENC   =      -891.76256572
  -exchange      EXHF   =       237.04827480
  -V(xc)+E(xc)   XCENC  =        55.00296926
  PAW double counting   =      4077.13776811    -3880.38915402
  entropy T*S    EENTRO =        -0.00000000
  eigenvalues    EBANDS =     -1143.51004960
  atomic energy  EATOM  =      7242.43157640
  ---------------------------------------------------
  free energy    TOTEN  =      -120.47905341 eV

  energy without entropy =     -120.47905341  energy(sigma->0) =     -120.47905341
  exchange ACFDT corr.  =        -0.00000000  see jH, gK, PRB 81, 115126


--------------------------------------------------------------------------------------------------------




--------------------------------------- Iteration      1(  19)  ---------------------------------------


    POTLOK:  cpu time    0.0255: real time    0.0255
    SETDIJ:  cpu time    0.1496: real time    0.1496
    TRIAL :  cpu time   95.3892: real time   95.4150
    CORREC:  cpu time    0.0005: real time    0.0005
    CHARGE:  cpu time    0.0628: real time    0.0628
    --------------------------------------------
      LOOP:  cpu time   95.6286: real time   95.6543

 eigenvalue-minimisations  :     0
 total energy-change (2. order) :-0.1509044E-03  (-0.1096688E-03)
 number of electron     144.0000005 magnetization 
 augmentation part      -23.8880035 magnetization 

 Free energy of the ion-electron system (eV)
  ---------------------------------------------------
  alpha Z        PSCENC =       571.43673610
  Ewald energy   TEWEN  =     -6387.87460875
  -Hartree energ DENC   =      -891.76392105
  -exchange      EXHF   =       237.04878869
  -V(xc)+E(xc)   XCENC  =        55.00315995
  PAW double counting   =      4077.13566947    -3880.38748353
  entropy T*S    EENTRO =        -0.00000000
  eigenvalues    EBANDS =     -1143.50912161
  atomic energy  EATOM  =      7242.43157640
  ---------------------------------------------------
  free energy    TOTEN  =      -120.47920431 eV

  energy without entropy =     -120.47920431  energy(sigma->0) =     -120.47920431
  exchange ACFDT corr.  =        -0.00000000  see jH, gK, PRB 81, 115126


--------------------------------------------------------------------------------------------------------




--------------------------------------- Iteration      1(  20)  ---------------------------------------


    POTLOK:  cpu time    0.0294: real time    0.0294
    SETDIJ:  cpu time    0.1517: real time    0.1517
    TRIAL :  cpu time   95.4670: real time   95.4928
    CORREC:  cpu time    0.0005: real time    0.0005
    CHARGE:  cpu time    0.0625: real time    0.0625
    --------------------------------------------
      LOOP:  cpu time   95.7124: real time   95.7382

 eigenvalue-minimisations  :     0
 total energy-change (2. order) :-0.9393904E-04  (-0.7003720E-04)
 number of electron     144.0000005 magnetization 
 augmentation part      -23.8879200 magnetization 

 Free energy of the ion-electron system (eV)
  ---------------------------------------------------
  alpha Z        PSCENC =       571.43673610
  Ewald energy   TEWEN  =     -6387.87460875
  -Hartree energ DENC   =      -891.76475028
  -exchange      EXHF   =       237.04914580
  -V(xc)+E(xc)   XCENC  =        55.00329383
  PAW double counting   =      4077.13432969    -3880.38646086
  entropy T*S    EENTRO =        -0.00000000
  eigenvalues    EBANDS =     -1143.50856018
  atomic energy  EATOM  =      7242.43157640
  ---------------------------------------------------
  free energy    TOTEN  =      -120.47929825 eV

  energy without entropy =     -120.47929825  energy(sigma->0) =     -120.47929825
  exchange ACFDT corr.  =        -0.00000000  see jH, gK, PRB 81, 115126


--------------------------------------------------------------------------------------------------------




--------------------------------------- Iteration      1(  21)  ---------------------------------------


    POTLOK:  cpu time    0.0249: real time    0.0249
    SETDIJ:  cpu time    0.1510: real time    0.1510
    TRIAL :  cpu time   95.4541: real time   95.4794
    CORREC:  cpu time    0.0004: real time    0.0004
    CHARGE:  cpu time    0.0601: real time    0.0601
    --------------------------------------------
      LOOP:  cpu time   95.6914: real time   95.7176

 eigenvalue-minimisations  :     0
 total energy-change (2. order) :-0.6039058E-04  (-0.4597571E-04)
 number of electron     144.0000005 magnetization 
 augmentation part      -23.8878675 magnetization 

 Free energy of the ion-electron system (eV)
  ---------------------------------------------------
  alpha Z        PSCENC =       571.43673610
  Ewald energy   TEWEN  =     -6387.87460875
  -Hartree energ DENC   =      -891.76472032
  -exchange      EXHF   =       237.04936013
  -V(xc)+E(xc)   XCENC  =        55.00336457
  PAW double counting   =      4077.13225386    -3880.38462928
  entropy T*S    EENTRO =        -0.00000000
  eigenvalues    EBANDS =     -1143.50869136
  atomic energy  EATOM  =      7242.43157640
  ---------------------------------------------------
  free energy    TOTEN  =      -120.47935864 eV

  energy without entropy =     -120.47935864  energy(sigma->0) =     -120.47935864
  exchange ACFDT corr.  =        -0.00000000  see jH, gK, PRB 81, 115126


--------------------------------------------------------------------------------------------------------




--------------------------------------- Iteration      1(  22)  ---------------------------------------


    POTLOK:  cpu time    0.0246: real time    0.0246
    SETDIJ:  cpu time    0.1514: real time    0.1514
    TRIAL :  cpu time   95.1943: real time   95.2195
    CORREC:  cpu time    0.0005: real time    0.0005
    CHARGE:  cpu time    0.0605: real time    0.0605
    --------------------------------------------
      LOOP:  cpu time   95.4322: real time   95.4574

 eigenvalue-minimisations  :     0
 total energy-change (2. order) :-0.3988373E-04  (-0.3090835E-04)
 number of electron     144.0000005 magnetization 
 augmentation part      -23.8878369 magnetization 

 Free energy of the ion-electron system (eV)
  ---------------------------------------------------
  alpha Z        PSCENC =       571.43673610
  Ewald energy   TEWEN  =     -6387.87460875
  -Hartree energ DENC   =      -891.76470539
  -exchange      EXHF   =       237.04950400
  -V(xc)+E(xc)   XCENC  =        55.00341247
  PAW double counting   =      4077.13094509    -3880.38348175
  entropy T*S    EENTRO =        -0.00000000
  eigenvalues    EBANDS =     -1143.50877671
  atomic energy  EATOM  =      7242.43157640
  ---------------------------------------------------
  free energy    TOTEN  =      -120.47939853 eV

  energy without entropy =     -120.47939853  energy(sigma->0) =     -120.47939853
  exchange ACFDT corr.  =        -0.00000000  see jH, gK, PRB 81, 115126


--------------------------------------------------------------------------------------------------------




--------------------------------------- Iteration      1(  23)  ---------------------------------------


    POTLOK:  cpu time    0.0251: real time    0.0251
    SETDIJ:  cpu time    0.1511: real time    0.1511
    TRIAL :  cpu time   95.4452: real time   95.4707
    CORREC:  cpu time    0.0004: real time    0.0004
    CHARGE:  cpu time    0.0601: real time    0.0601
    --------------------------------------------
      LOOP:  cpu time   95.6828: real time   95.7084

 eigenvalue-minimisations  :     0
 total energy-change (2. order) :-0.2694089E-04  (-0.2135650E-04)
 number of electron     144.0000005 magnetization 
 augmentation part      -23.8878222 magnetization 

 Free energy of the ion-electron system (eV)
  ---------------------------------------------------
  alpha Z        PSCENC =       571.43673610
  Ewald energy   TEWEN  =     -6387.87460875
  -Hartree energ DENC   =      -891.76490579
  -exchange      EXHF   =       237.04960926
  -V(xc)+E(xc)   XCENC  =        55.00345104
  PAW double counting   =      4077.13060265    -3880.38322708
  entropy T*S    EENTRO =        -0.00000000
  eigenvalues    EBANDS =     -1143.50865931
  atomic energy  EATOM  =      7242.43157640
  ---------------------------------------------------
  free energy    TOTEN  =      -120.47942547 eV

  energy without entropy =     -120.47942547  energy(sigma->0) =     -120.47942547
  exchange ACFDT corr.  =        -0.00000000  see jH, gK, PRB 81, 115126


--------------------------------------------------------------------------------------------------------




--------------------------------------- Iteration      1(  24)  ---------------------------------------


    POTLOK:  cpu time    0.0247: real time    0.0247
    SETDIJ:  cpu time    0.1515: real time    0.1515
    TRIAL :  cpu time   95.3277: real time   95.3529
    CORREC:  cpu time    0.0005: real time    0.0005
    CHARGE:  cpu time    0.0603: real time    0.0603
    --------------------------------------------
      LOOP:  cpu time   95.5657: real time   95.5909

 eigenvalue-minimisations  :     0
 total energy-change (2. order) :-0.1867026E-04  (-0.1513240E-04)
 number of electron     144.0000005 magnetization 
 augmentation part      -23.8878199 magnetization 

 Free energy of the ion-electron system (eV)
  ---------------------------------------------------
  alpha Z        PSCENC =       571.43673610
  Ewald energy   TEWEN  =     -6387.87460875
  -Hartree energ DENC   =      -891.76513999
  -exchange      EXHF   =       237.04968327
  -V(xc)+E(xc)   XCENC  =        55.00347844
  PAW double counting   =      4077.13067532    -3880.38333848
  entropy T*S    EENTRO =        -0.00000000
  eigenvalues    EBANDS =     -1143.50850646
  atomic energy  EATOM  =      7242.43157640
  ---------------------------------------------------
  free energy    TOTEN  =      -120.47944414 eV

  energy without entropy =     -120.47944414  energy(sigma->0) =     -120.47944414
  exchange ACFDT corr.  =        -0.00000000  see jH, gK, PRB 81, 115126


--------------------------------------------------------------------------------------------------------




--------------------------------------- Iteration      1(  25)  ---------------------------------------


    POTLOK:  cpu time    0.0290: real time    0.0290
    SETDIJ:  cpu time    0.1511: real time    0.1511
    TRIAL :  cpu time   95.2728: real time   95.2975
    CORREC:  cpu time    0.0005: real time    0.0005
    CHARGE:  cpu time    0.0602: real time    0.0602
    --------------------------------------------
      LOOP:  cpu time   95.5146: real time   95.5393

 eigenvalue-minimisations  :     0
 total energy-change (2. order) :-0.1324470E-04  (-0.1102498E-04)
 number of electron     144.0000005 magnetization 
 augmentation part      -23.8878263 magnetization 

 Free energy of the ion-electron system (eV)
  ---------------------------------------------------
  alpha Z        PSCENC =       571.43673610
  Ewald energy   TEWEN  =     -6387.87460875
  -Hartree energ DENC   =      -891.76530777
  -exchange      EXHF   =       237.04973066
  -V(xc)+E(xc)   XCENC  =        55.00349365
  PAW double counting   =      4077.13084269    -3880.38350872
  entropy T*S    EENTRO =        -0.00000000
  eigenvalues    EBANDS =     -1143.50841164
  atomic energy  EATOM  =      7242.43157640
  ---------------------------------------------------
  free energy    TOTEN  =      -120.47945738 eV

  energy without entropy =     -120.47945738  energy(sigma->0) =     -120.47945738
  exchange ACFDT corr.  =        -0.00000000  see jH, gK, PRB 81, 115126


--------------------------------------------------------------------------------------------------------




--------------------------------------- Iteration      1(  26)  ---------------------------------------


    POTLOK:  cpu time    0.0250: real time    0.0250
    SETDIJ:  cpu time    0.1500: real time    0.1500
    TRIAL :  cpu time   95.2867: real time   95.3153
    CORREC:  cpu time    0.0005: real time    0.0005
    CHARGE:  cpu time    0.0609: real time    0.0609
    --------------------------------------------
      LOOP:  cpu time   95.5240: real time   95.5526

 eigenvalue-minimisations  :     0
 total energy-change (2. order) :-0.9640653E-05  (-0.8302391E-05)
 number of electron     144.0000005 magnetization 
 augmentation part      -23.8878384 magnetization 

 Free energy of the ion-electron system (eV)
  ---------------------------------------------------
  alpha Z        PSCENC =       571.43673610
  Ewald energy   TEWEN  =     -6387.87460875
  -Hartree energ DENC   =      -891.76543691
  -exchange      EXHF   =       237.04976021
  -V(xc)+E(xc)   XCENC  =        55.00350035
  PAW double counting   =      4077.13106405    -3880.38370614
  entropy T*S    EENTRO =        -0.00000000
  eigenvalues    EBANDS =     -1143.50835233
  atomic energy  EATOM  =      7242.43157640
  ---------------------------------------------------
  free energy    TOTEN  =      -120.47946702 eV

  energy without entropy =     -120.47946702  energy(sigma->0) =     -120.47946702
  exchange ACFDT corr.  =        -0.00000000  see jH, gK, PRB 81, 115126


--------------------------------------------------------------------------------------------------------




--------------------------------------- Iteration      1(  27)  ---------------------------------------


    POTLOK:  cpu time    0.0251: real time    0.0251
    SETDIJ:  cpu time    0.1525: real time    0.1525
    TRIAL :  cpu time   95.2232: real time   95.2482
    CORREC:  cpu time    0.0004: real time    0.0004
    CHARGE:  cpu time    0.0621: real time    0.0621
    --------------------------------------------
      LOOP:  cpu time   95.4644: real time   95.4894

 eigenvalue-minimisations  :     0
 total energy-change (2. order) :-0.7246876E-05  (-0.6531554E-05)
 number of electron     144.0000005 magnetization 
 augmentation part      -23.8878538 magnetization 

 Free energy of the ion-electron system (eV)
  ---------------------------------------------------
  alpha Z        PSCENC =       571.43673610
  Ewald energy   TEWEN  =     -6387.87460875
  -Hartree energ DENC   =      -891.76556724
  -exchange      EXHF   =       237.04977970
  -V(xc)+E(xc)   XCENC  =        55.00350243
  PAW double counting   =      4077.13136706    -3880.38396553
  entropy T*S    EENTRO =        -0.00000000
  eigenvalues    EBANDS =     -1143.50829443
  atomic energy  EATOM  =      7242.43157640
  ---------------------------------------------------
  free energy    TOTEN  =      -120.47947427 eV

  energy without entropy =     -120.47947427  energy(sigma->0) =     -120.47947427
  exchange ACFDT corr.  =        -0.00000000  see jH, gK, PRB 81, 115126


--------------------------------------------------------------------------------------------------------




--------------------------------------- Iteration      1(  28)  ---------------------------------------


    POTLOK:  cpu time    0.0247: real time    0.0247
    SETDIJ:  cpu time    0.1509: real time    0.1509
    TRIAL :  cpu time   95.3199: real time   95.3448
    CORREC:  cpu time    0.0006: real time    0.0006
    CHARGE:  cpu time    0.0600: real time    0.0600
    --------------------------------------------
      LOOP:  cpu time   95.5570: real time   95.5819

 eigenvalue-minimisations  :     0
 total energy-change (2. order) :-0.5687995E-05  (-0.5421168E-05)
 number of electron     144.0000005 magnetization 
 augmentation part      -23.8878711 magnetization 

 Free energy of the ion-electron system (eV)
  ---------------------------------------------------
  alpha Z        PSCENC =       571.43673610
  Ewald energy   TEWEN  =     -6387.87460875
  -Hartree energ DENC   =      -891.76568483
  -exchange      EXHF   =       237.04979215
  -V(xc)+E(xc)   XCENC  =        55.00350128
[...]
     10     -11.9607      2.00000
     11     -11.8911      2.00000
     12     -11.8372      2.00000
     13     -11.8224      2.00000
     14     -11.7870      2.00000
     15     -11.7804      2.00000
     16     -11.7449      2.00000
     17     -11.7171      2.00000
     18     -11.6862      2.00000
     19     -11.6700      2.00000
     20     -11.6560      2.00000
     21     -11.6196      2.00000
     22     -11.6131      2.00000
     23     -11.5956      2.00000
     24     -11.5532      2.00000
     25     -11.5485      2.00000
     26     -11.5403      2.00000
     27     -11.5310      2.00000
     28     -11.5288      2.00000
     29     -11.5019      2.00000
     30     -11.4953      2.00000
     31     -11.4924      2.00000
     32     -11.4873      2.00000
     33      -9.3799      2.00000
     34      -9.2374      2.00000
     35      -9.2022      2.00000
     36      -9.1756      2.00000
     37      -5.1041      2.00000
     38      -5.1029      2.00000
     39      -4.9918      2.00000
     40      -4.9686      2.00000
     41      -4.8510      2.00000
     42      -4.7619      2.00000
     43      -4.7611      2.00000
     44      -4.7364      2.00000
     45      -4.6779      2.00000
     46      -4.6475      2.00000
     47      -4.6165      2.00000
     48      -4.5377      2.00000
     49      -0.5655      2.00000
     50      -0.1576      2.00000
     51       0.0676      2.00000
     52       0.1402      2.00000
     53       0.1957      2.00000
     54       0.2453      2.00000
     55       0.5204      2.00000
     56       0.6058      2.00000
     57       0.6662      2.00000
     58       0.7907      2.00000
     59       0.8076      2.00000
     60       0.8180      2.00000
     61       0.9064      2.00000
     62       0.9420      2.00000
     63       1.1345      2.00000
     64       1.2819      2.00000
     65       1.3545      2.00000
     66       1.5131      2.00000
     67       1.5182      2.00000
     68       1.6361      2.00000
     69       1.6901      2.00000
     70       1.8472      2.00000
     71       2.0204      2.00000
     72       2.1101      2.00000
     73       3.7103      0.00000
     74       3.8160      0.00000
     75       4.0006      0.00000
     76       4.1349      0.00000
     77       4.2029      0.00000
     78       4.4222      0.00000
     79       4.5304      0.00000
     80       4.6842      0.00000
     81       4.9077      0.00000
     82       4.9269      0.00000
     83       5.0913      0.00000
     84       5.2324      0.00000
     85       5.4663      0.00000
     86       5.7240      0.00000
     87       5.9977      0.00000
     88       6.2166      0.00000

 k-point    12 :       0.5000    0.2500    0.0000
  band No.  band energies     occupation 
      1     -27.3578      2.00000
      2     -27.3578      2.00000
      3     -27.3537      2.00000
      4     -27.3537      2.00000
      5     -27.2579      2.00000
      6     -27.2579      2.00000
      7     -27.2568      2.00000
      8     -27.2568      2.00000
      9     -11.9712      2.00000
     10     -11.9712      2.00000
     11     -11.8638      2.00000
     12     -11.8638      2.00000
     13     -11.7870      2.00000
     14     -11.7870      2.00000
     15     -11.7719      2.00000
     16     -11.7719      2.00000
     17     -11.6824      2.00000
     18     -11.6824      2.00000
     19     -11.6709      2.00000
     20     -11.6709      2.00000
     21     -11.6354      2.00000
     22     -11.6354      2.00000
     23     -11.5697      2.00000
     24     -11.5697      2.00000
     25     -11.5424      2.00000
     26     -11.5424      2.00000
     27     -11.5284      2.00000
     28     -11.5284      2.00000
     29     -11.5040      2.00000
     30     -11.5040      2.00000
     31     -11.4888      2.00000
     32     -11.4888      2.00000
     33      -9.2972      2.00000
     34      -9.2972      2.00000
     35      -9.1807      2.00000
     36      -9.1807      2.00000
     37      -5.0666      2.00000
     38      -5.0666      2.00000
     39      -5.0482      2.00000
     40      -5.0482      2.00000
     41      -4.8096      2.00000
     42      -4.8096      2.00000
     43      -4.7614      2.00000
     44      -4.7614      2.00000
     45      -4.6548      2.00000
     46      -4.6548      2.00000
     47      -4.6135      2.00000
     48      -4.6135      2.00000
     49      -0.3762      2.00000
     50      -0.3762      2.00000
     51       0.1498      2.00000
     52       0.1498      2.00000
     53       0.3804      2.00000
     54       0.3804      2.00000
     55       0.4978      2.00000
     56       0.4978      2.00000
     57       0.7499      2.00000
     58       0.7499      2.00000
     59       0.8384      2.00000
     60       0.8384      2.00000
     61       0.9862      2.00000
     62       0.9862      2.00000
     63       1.2239      2.00000
     64       1.2239      2.00000
     65       1.4345      2.00000
     66       1.4345      2.00000
     67       1.5956      2.00000
     68       1.5956      2.00000
     69       1.8166      2.00000
     70       1.8166      2.00000
     71       1.9781      2.00000
     72       1.9781      2.00000
     73       3.8045      0.00000
     74       3.8045      0.00000
     75       4.0416      0.00000
     76       4.0416      0.00000
     77       4.2127      0.00000
     78       4.2128      0.00000
     79       4.5772      0.00000
     80       4.5773      0.00000
     81       4.7867      0.00000
     82       4.7890      0.00000
     83       4.8992      0.00000
     84       4.9041      0.00000
     85       5.4811      0.00000
     86       5.5131      0.00000
     87       5.7962      0.00000
     88       5.8963      0.00000


--------------------------------------------------------------------------------------------------------


 soft charge-density along one line, spin component           1
         0         1         2         3         4         5         6         7         8         9
 total charge-density along one line
 
 pseudopotential strength for first ion, spin component:           1
  1.472  -4.163  -0.000   0.004   0.004  -0.000   0.001   0.002
 -4.163  -2.809   0.000  -0.001  -0.002  -0.000   0.000   0.001
 -0.000   0.000  -7.744   0.000  -0.000   0.673   0.000  -0.000
  0.004  -0.001   0.000  -7.742  -0.000   0.000   0.674  -0.001
  0.004  -0.002  -0.000  -0.000  -7.743  -0.000  -0.001   0.672
 -0.000  -0.000   0.673   0.000  -0.000   7.695   0.000  -0.000
  0.001   0.000   0.000   0.674  -0.001   0.000   7.694  -0.000
  0.002   0.001  -0.000  -0.001   0.672  -0.000  -0.000   7.694
 -0.000   0.000   0.001  -0.000  -0.000   0.001  -0.000  -0.000
  0.000  -0.000   0.001  -0.000  -0.000   0.001  -0.000  -0.000
  0.001  -0.000   0.000   0.001  -0.001   0.000   0.000  -0.001
 -0.000   0.000  -0.000   0.001   0.001  -0.000   0.001   0.000
  0.000   0.000   0.000  -0.000   0.001   0.000  -0.000   0.001
  0.000   0.000  -0.000   0.000   0.000   0.000  -0.000   0.000
 -0.000  -0.000  -0.000   0.000   0.000  -0.000   0.000  -0.000
 -0.000  -0.000  -0.000  -0.000   0.000  -0.000  -0.000  -0.000
  0.000   0.000   0.000  -0.000   0.000  -0.000  -0.000  -0.000
  0.000   0.000  -0.000   0.000  -0.000  -0.000  -0.000  -0.000
 total augmentation occupancy for first ion, spin component:           1
  2.072  -0.192   0.000  -0.007  -0.002  -0.000   0.003   0.001  -0.000   0.000   0.002  -0.008  -0.013   0.000  -0.000  -0.003
 -0.192   0.555  -0.000   0.018   0.006   0.000  -0.007  -0.001   0.000  -0.000  -0.004   0.018   0.029  -0.000   0.000   0.008
  0.000  -0.000   2.020  -0.000  -0.000  -0.014   0.000   0.000  -0.018   0.002   0.000   0.000   0.000   0.031  -0.007   0.000
 -0.007   0.018  -0.000   2.012   0.001   0.000  -0.010  -0.001  -0.000  -0.000   0.003   0.027   0.012   0.000   0.000   0.002
 -0.002   0.006  -0.000   0.001   2.017   0.000  -0.001  -0.013  -0.000   0.000   0.019   0.015   0.009   0.000   0.000  -0.029
 -0.000   0.000  -0.014   0.000   0.000   0.011  -0.000  -0.000   0.008   0.001  -0.000  -0.000   0.000  -0.014  -0.003  -0.000
  0.003  -0.007   0.000  -0.010  -0.001  -0.000   0.009   0.000   0.000   0.000  -0.001  -0.009  -0.006   0.000  -0.000   0.002
  0.001  -0.001   0.000  -0.001  -0.013  -0.000   0.000   0.011  -0.000  -0.000  -0.008  -0.006  -0.003  -0.000  -0.000   0.015
 -0.000   0.000  -0.018  -0.000  -0.000   0.008   0.000  -0.000   0.107  -0.042   0.000   0.000  -0.000  -0.224   0.088  -0.000
  0.000  -0.000   0.002  -0.000   0.000   0.001   0.000  -0.000  -0.042   0.075   0.000  -0.000   0.000   0.088  -0.155   0.000
  0.002  -0.004   0.000   0.003   0.019  -0.000  -0.001  -0.008   0.000   0.000   0.096   0.028   0.005   0.000  -0.000  -0.201
 -0.008   0.018   0.000   0.027   0.015  -0.000  -0.009  -0.006   0.000  -0.000   0.028   0.111   0.024  -0.000   0.000  -0.057
 -0.013   0.029   0.000   0.012   0.009   0.000  -0.006  -0.003  -0.000   0.000   0.005   0.024   0.073  -0.000   0.000  -0.010
  0.000  -0.000   0.031   0.000   0.000  -0.014   0.000  -0.000  -0.224   0.088   0.000  -0.000  -0.000   0.503  -0.201  -0.000
 -0.000   0.000  -0.007   0.000   0.000  -0.003  -0.000  -0.000   0.088  -0.155  -0.000   0.000   0.000  -0.201   0.339  -0.000
 -0.003   0.008   0.000   0.002  -0.029  -0.000   0.002   0.015  -0.000   0.000  -0.201  -0.057  -0.010  -0.000  -0.000   0.451
  0.008  -0.022   0.000  -0.026  -0.013  -0.000   0.018   0.008   0.000  -0.000  -0.057  -0.227  -0.045  -0.000   0.000   0.134
  0.022  -0.061   0.000  -0.011  -0.001  -0.000   0.010   0.005   0.000  -0.000  -0.010  -0.045  -0.155   0.000  -0.000   0.025


------------------------ aborting loop because EDIFF is reached ----------------------------------------


 


 total charge     
 
# of ion       s       p       d       tot
------------------------------------------
    1        2.011   5.605   0.294   7.910
    2        2.011   5.605   0.294   7.910
    3        2.011   5.605   0.294   7.910
    4        2.011   5.605   0.294   7.910
    5        2.003   5.602   0.276   7.881
    6        2.003   5.602   0.276   7.881
    7        2.003   5.602   0.276   7.881
    8        2.003   5.602   0.276   7.881
    9        1.185   1.157   0.039   2.381
   10        1.185   1.157   0.039   2.381
   11        1.185   1.157   0.039   2.381
   12        1.185   1.157   0.039   2.381
   13        1.186   1.154   0.039   2.379
   14        1.186   1.154   0.039   2.379
   15        1.186   1.154   0.039   2.379
   16        1.186   1.154   0.039   2.379
   17        1.203   1.078   0.041   2.321
   18        1.203   1.078   0.041   2.321
   19        1.203   1.078   0.041   2.321
   20        1.203   1.078   0.041   2.321
   21        1.175   1.159   0.039   2.373
   22        1.175   1.159   0.039   2.373
   23        1.175   1.159   0.039   2.373
   24        1.175   1.159   0.039   2.373
--------------------------------------------------
tot         35.052  63.015   2.917 100.984
 
    FORLOC:  cpu time    0.0017: real time    0.0017
    FORHF :  cpu time  127.2453: real time  127.2763
    FORNL :  cpu time    0.0458: real time    0.0459
    FORCOR:  cpu time    0.1754: real time    0.1757
    OFIELD:  cpu time    0.0000: real time    0.0000

 VOLUME and BASIS-vectors are now :
 -----------------------------------------------------------------------------
  energy-cutoff  :      500.00
  volume of cell :      721.92
      direct lattice vectors                 reciprocal lattice vectors
     9.081119998  0.000000000  0.000000000     0.110118576  0.000000000  0.000000000
     0.000000000  6.815485279  0.000000000     0.000000000  0.146724695  0.000000000
     0.000000000  0.000000000 11.664210625     0.000000000  0.000000000  0.085732334

  length of vectors
     9.081119998  6.815485279 11.664210625     0.110118576  0.146724695  0.085732334


 FORCES acting on ions:
    Electron-Ion                     Ewald-Force                    Non-Local-Force
 -----------------------------------------------------------------------------------------------
   0.174E+01 0.661E-05 0.711E+01   -.214E+01 0.137E-04 -.743E+01   0.694E-01 0.211E-17 0.383E+00
   -.174E+01 -.168E-04 -.711E+01   0.214E+01 -.192E-04 0.743E+01   -.694E-01 -.210E-17 -.383E+00
   -.174E+01 0.676E-05 0.711E+01   0.214E+01 -.192E-04 -.743E+01   -.694E-01 0.126E-17 0.383E+00
   0.174E+01 -.150E-04 -.711E+01   -.214E+01 0.137E-04 0.743E+01   0.694E-01 0.291E-17 -.383E+00
   -.203E+02 -.248E-04 -.525E+01   0.191E+02 -.175E-04 0.505E+01   0.728E+00 -.772E-18 -.246E+00
   0.203E+02 0.179E-04 0.525E+01   -.191E+02 0.167E-04 -.505E+01   -.728E+00 -.151E-18 0.246E+00
   0.203E+02 0.262E-05 -.525E+01   -.191E+02 0.167E-04 0.505E+01   -.728E+00 -.419E-18 -.246E+00
   -.203E+02 -.880E-05 0.525E+01   0.191E+02 -.175E-04 -.505E+01   0.728E+00 0.375E-18 0.246E+00
   0.568E+01 0.192E+02 -.101E+02   -.648E+01 -.202E+02 0.111E+02   0.809E+00 0.102E+01 -.113E+01
   -.568E+01 -.192E+02 0.101E+02   0.648E+01 0.202E+02 -.111E+02   -.809E+00 -.102E+01 0.113E+01
   -.568E+01 -.192E+02 -.101E+02   0.648E+01 0.202E+02 0.111E+02   -.809E+00 -.102E+01 -.113E+01
   0.568E+01 0.192E+02 0.101E+02   -.648E+01 -.202E+02 -.111E+02   0.809E+00 0.102E+01 0.113E+01
   -.568E+01 0.192E+02 0.101E+02   0.648E+01 -.202E+02 -.111E+02   -.809E+00 0.102E+01 0.113E+01
   0.568E+01 -.192E+02 -.101E+02   -.648E+01 0.202E+02 0.111E+02   0.809E+00 -.102E+01 -.113E+01
   0.568E+01 -.192E+02 0.101E+02   -.648E+01 0.202E+02 -.111E+02   0.809E+00 -.102E+01 0.113E+01
   -.568E+01 0.192E+02 -.101E+02   0.648E+01 -.202E+02 0.111E+02   -.809E+00 0.102E+01 -.113E+01
   0.307E+02 -.148E-04 0.134E+01   -.322E+02 -.788E-05 -.202E+01   0.199E+01 -.245E-17 0.531E+00
   -.307E+02 0.116E-04 -.134E+01   0.322E+02 0.799E-05 0.202E+01   -.199E+01 0.252E-17 -.531E+00
   -.307E+02 -.958E-05 0.134E+01   0.322E+02 0.799E-05 -.202E+01   -.199E+01 -.284E-17 0.531E+00
   0.307E+02 0.621E-05 -.134E+01   -.322E+02 -.788E-05 0.202E+01   0.199E+01 -.104E-17 -.531E+00
   0.369E+01 0.644E-05 0.219E+02   -.387E+01 0.858E-05 -.231E+02   0.299E+00 -.286E-18 0.185E+01
   -.369E+01 -.863E-05 -.219E+02   0.387E+01 -.911E-05 0.231E+02   -.299E+00 0.411E-18 -.185E+01
   -.369E+01 -.389E-05 0.219E+02   0.387E+01 -.911E-05 -.231E+02   -.299E+00 0.162E-18 0.185E+01
   0.369E+01 0.103E-05 -.219E+02   -.387E+01 0.858E-05 0.231E+02   0.299E+00 -.668E-19 -.185E+01
 -----------------------------------------------------------------------------------------------
   -.342E-06 -.130E-04 -.799E-03   -.888E-14 -.304E-13 0.107E-13   0.000E+00 -.358E-17 -.222E-15
 
 
 POSITION                                       TOTAL-FORCE (eV/Angst)
 -----------------------------------------------------------------------------------
      0.13600      1.70387      8.06709        -0.289115     -0.000000      0.176981
      8.94512      5.11161      3.59712         0.289115      0.000000     -0.176981
      4.40456      5.11161      2.23499         0.289115     -0.000000      0.176981
      4.67656      1.70387      9.42922        -0.289115      0.000000     -0.176981
      1.43845      5.11161     10.57733        -0.244786      0.000000     -0.468132
      7.64267      1.70387      1.08688         0.244786     -0.000000      0.468132
      3.10211      1.70387      4.74522         0.244786     -0.000000     -0.468132
      5.97901      5.11161      6.91899        -0.244786      0.000000      0.468132
      1.73210      0.40954      1.75879         0.064504      0.154159     -0.249671
      7.34902      6.40595      9.90543        -0.064504     -0.154159      0.249671
      2.80846      6.40595      7.59089        -0.064504     -0.154159     -0.249671
      6.27266      0.40954      4.07332         0.064504      0.154159      0.249671
      7.34902      3.81728      9.90543        -0.064504      0.154159      0.249671
      1.73210      2.99821      1.75879         0.064504     -0.154159     -0.249671
      6.27266      2.99821      4.07332         0.064504     -0.154159      0.249671
      2.80846      3.81728      7.59089        -0.064504      0.154159     -0.249671
      0.65415      5.11161      6.90954         0.585686      0.000000     -0.142005
      8.42697      1.70387      4.75467        -0.585686     -0.000000      0.142005
      3.88641      1.70387      1.07743        -0.585686     -0.000000     -0.142005
      5.19471      5.11161     10.58678         0.585686     -0.000000      0.142005
      1.76135      1.70387     11.17871         0.167070     -0.000000      0.837401
      7.31977      5.11161      0.48550        -0.167070      0.000000     -0.837401
      2.77921      5.11161      5.34660        -0.167070      0.000000      0.837401
      6.30191      1.70387      6.31761         0.167070      0.000000     -0.837401
 -----------------------------------------------------------------------------------
    total drift:                               -0.000000     -0.000013     -0.000799


--------------------------------------------------------------------------------------------------------



  FREE ENERGIE OF THE ION-ELECTRON SYSTEM (eV)
  ---------------------------------------------------
  free  energy   TOTEN  =      -120.47953152 eV

  energy  without entropy=     -120.47953152  energy(sigma->0) =     -120.47953152
 


--------------------------------------------------------------------------------------------------------


    POTLOK:  cpu time    0.1751: real time    0.1751


--------------------------------------------------------------------------------------------------------


     LOOP+:  cpu time 7102.4468: real time 7104.8678
    4ORBIT:  cpu time    0.0000: real time    0.0000
 


 total charge     
 
# of ion       s       p       d       tot
------------------------------------------
    1        2.011   5.605   0.294   7.910
    2        2.011   5.605   0.294   7.910
    3        2.011   5.605   0.294   7.910
    4        2.011   5.605   0.294   7.910
    5        2.003   5.602   0.276   7.881
    6        2.003   5.602   0.276   7.881
    7        2.003   5.602   0.276   7.881
    8        2.003   5.602   0.276   7.881
    9        1.185   1.157   0.039   2.381
   10        1.185   1.157   0.039   2.381
   11        1.185   1.157   0.039   2.381
   12        1.185   1.157   0.039   2.381
   13        1.186   1.154   0.039   2.379
   14        1.186   1.154   0.039   2.379
   15        1.186   1.154   0.039   2.379
   16        1.186   1.154   0.039   2.379
   17        1.203   1.078   0.041   2.321
   18        1.203   1.078   0.041   2.321
   19        1.203   1.078   0.041   2.321
   20        1.203   1.078   0.041   2.321
   21        1.175   1.159   0.039   2.373
   22        1.175   1.159   0.039   2.373
   23        1.175   1.159   0.039   2.373
   24        1.175   1.159   0.039   2.373
--------------------------------------------------
tot         35.052  63.015   2.917 100.984
 

 total amount of memory used by VASP MPI-rank0    44743. kBytes
=======================================================================

   base      :      30000. kBytes
   nonlr-proj:       6624. kBytes
   fftplans  :        837. kBytes
   grid      :        888. kBytes
   one-center:         31. kBytes
   HF        :        129. kBytes
   wavefun   :       6234. kBytes
 
  
  
 General timing and accounting informations for this job:
 ========================================================
  
                  Total CPU time used (sec):     7139.138
                            User time (sec):     7116.831
                          System time (sec):       22.307
                         Elapsed time (sec):     7164.544
  
                   Maximum memory used (kb):      225932.
                   Average memory used (kb):           0.
  
                          Minor page faults:       322038
                          Major page faults:           16
                 Voluntary context switches:         7560
