<?xml version="1.0" encoding="ISO-8859-1"?>
<modeling>
 <generator>
  <i name="program" type="string">vasp </i>
  <i name="version" type="string">5.4.4.18Apr17-6-g9f103f2a35  </i>
  <i name="subversion" type="string">(build Nov 21 2017 15:30:27) complex            parallel </i>
  <i name="platform" type="string">LinuxIFC </i>
  <i name="date" type="string">2021 03 17 </i>
  <i name="time" type="string">16:30:09 </i>
 </generator>
 <incar>
  <i type="string" name="PREC">normal</i>
  <i type="int" name="ICHARG">    11</i>
  <i type="int" name="NELM">   100</i>
  <i name="EDIFF">      0.00000100</i>
  <i name="EDIFFG">     -0.01000000</i>
  <i name="ENCUT">    500.00000000</i>
  <i name="POTIM">      0.30000000</i>
  <i type="string" name="LREAL"> Auto       ! Projection in reciprocal s</i>
  <i type="int" name="ISMEAR">     0</i>
  <i name="SIGMA">      0.01000000</i>
  <i type="logical" name="LWAVE"> T  </i>
  <i type="logical" name="LCHARG"> T  </i>
  <i type="logical" name="LASPH"> T  </i>
  <v type="int" name="KPOINT_BSE">    -1     0     0     0</v>
  <i type="int" name="NELM">   100</i>
  <i type="string" name="GGA"> MK</i>
  <i name="PARAM1">      0.12340000</i>
  <i name="PARAM2">      0.71135700</i>
  <i type="logical" name="LUSE_VDW"> T  </i>
  <i name="Zab_VDW">     -1.88670000</i>
  <i name="AGGAC">      0.00000000</i>
  <i type="logical" name="LASPH"> T  </i>
 </incar>
 <structure name="primitive_cell" >
  <crystal>
   <varray name="basis" >
    <v>      61.41372023       0.00000000       0.07765504 </v>
    <v>       0.00000000       6.69894496       0.00000000 </v>
    <v>       0.01476465       0.00000000      11.47764596 </v>
   </varray>
   <i name="volume">   4721.97772025 </i>
   <varray name="rec_basis" >
    <v>       0.01628303       0.00000000      -0.00002095 </v>
    <v>       0.00000000       0.14927724       0.00000000 </v>
    <v>      -0.00011017       0.00000000       0.08712602 </v>
   </varray>
  </crystal>
  <varray name="positions" >
   <v>       0.01580264       0.25000000      -0.29386976 </v>
   <v>       0.03734066       0.25000000      -0.03346120 </v>
   <v>       0.05559211      -0.42849200      -0.35453025 </v>
   <v>       0.05559211      -0.07150800      -0.35453025 </v>
   <v>       0.02110736      -0.24999998      -0.37559668 </v>
   <v>       0.04172306      -0.24999998      -0.08420889 </v>
   <v>       0.06069943       0.25000000       0.39935181 </v>
   <v>       0.08595533       0.25000000      -0.18844130 </v>
   <v>       0.04761995      -0.24999998       0.46587934 </v>
   <v>       0.03698846       0.42851569       0.14895638 </v>
   <v>       0.03698846       0.07148430       0.14895638 </v>
   <v>       0.07035982       0.25000000       0.08633127 </v>
   <v>       0.11153585       0.25000000      -0.46103575 </v>
   <v>       0.09641181      -0.24999998      -0.08730654 </v>
   <v>       0.10697211      -0.24999998      -0.40089309 </v>
   <v>       0.11109693       0.43068476       0.35713551 </v>
   <v>       0.11109693       0.06931523       0.35713551 </v>
   <v>       0.12888335      -0.43028350      -0.14223938 </v>
   <v>       0.12888335      -0.06971650      -0.14223938 </v>
   <v>       0.07925544      -0.24999998       0.19672513 </v>
   <v>       0.13205582       0.25000000       0.09685282 </v>
   <v>       0.14367452       0.25000000       0.41178415 </v>
   <v>       0.12773573      -0.24999998       0.04012036 </v>
   <v>       0.15858030       0.25000000      -0.30639660 </v>
   <v>       0.16834405      -0.24999998      -0.40615336 </v>
   <v>       0.15378756      -0.24999998       0.31125419 </v>
   <v>       0.18452840       0.25000000      -0.03318160 </v>
   <v>       0.17981376      -0.24999998      -0.09121651 </v>
   <v>       0.18393006       0.42976337       0.14846196 </v>
   <v>       0.18393006       0.07023662       0.14846196 </v>
   <v>       0.20102563      -0.42992505      -0.35197826 </v>
   <v>       0.20102563      -0.07007495      -0.35197826 </v>
   <v>       0.20053091      -0.24999998       0.46626376 </v>
   <v>       0.20575682       0.25000000       0.40726737 </v>
   <v>       0.21666576       0.25000000       0.09369080 </v>
   <v>       0.23133349       0.25000000      -0.18911397 </v>
   <v>       0.24126807      -0.24999998      -0.08964581 </v>
   <v>       0.22672224      -0.24999998       0.19323250 </v>
   <v>       0.25246142      -0.24999998      -0.40423134 </v>
   <v>       0.25773375       0.25000000      -0.46290684 </v>
   <v>       0.25720581       0.42987699       0.35536325 </v>
   <v>       0.25720581       0.07012301       0.35536325 </v>
   <v>       0.27396160      -0.43000451      -0.14460113 </v>
   <v>       0.27396160      -0.06999549      -0.14460113 </v>
   <v>       0.27339743      -0.24999998       0.03722677 </v>
   <v>       0.27869790       0.25000000       0.09587749 </v>
   <v>       0.28992025       0.25000000       0.40972815 </v>
   <v>       0.30438535       0.25000000      -0.30746370 </v>
   <v>      -0.27091025       0.25000000       0.37559668 </v>
   <v>      -0.26560553      -0.24999998       0.29386976 </v>
   <v>       0.29979837      -0.24999998       0.30984094 </v>
   <v>       0.31430107      -0.24999998      -0.40731709 </v>
   <v>      -0.28679139      -0.42851569      -0.14895640 </v>
   <v>      -0.28679139      -0.07148431      -0.14895640 </v>
   <v>      -0.28714355      -0.24999998       0.03346121 </v>
   <v>      -0.29742281       0.25000000      -0.46587942 </v>
   <v>      -0.29152594       0.25000000       0.08420887 </v>
   <v>       0.32538924      -0.24999998      -0.09328352 </v>
   <v>       0.33070800       0.25000000      -0.03499415 </v>
   <v>       0.33010847       0.42979475       0.14687643 </v>
   <v>       0.33010847       0.07020525       0.14687643 </v>
   <v>      -0.30539505       0.42849200       0.35453025 </v>
   <v>      -0.30539505       0.07150800       0.35453025 </v>
   <v>      -0.31050230      -0.24999998      -0.39935177 </v>
   <v>       0.34700893      -0.42988321      -0.35308904 </v>
   <v>       0.34700893      -0.07011679      -0.35308904 </v>
   <v>       0.34648989      -0.24999998       0.46515515 </v>
   <v>       0.35172351       0.25000000       0.40634084 </v>
   <v>      -0.32016267      -0.24999998      -0.08633129 </v>
   <v>      -0.32905830       0.25000000      -0.19672515 </v>
   <v>       0.36282041       0.25000000       0.09174380 </v>
   <v>       0.37741615       0.25000000      -0.19113677 </v>
   <v>      -0.33575822      -0.24999998       0.18844128 </v>
   <v>      -0.34621469       0.25000000       0.08730652 </v>
   <v>       0.37278095      -0.24999998       0.19113675 </v>
   <v>      -0.35677505       0.25000000       0.40089313 </v>
   <v>       0.38737668      -0.24999998      -0.09174382 </v>
   <v>      -0.36089979      -0.43068476      -0.35713551 </v>
   <v>      -0.36089979      -0.06931524      -0.35713551 </v>
   <v>      -0.36133874      -0.24999998       0.46103567 </v>
   <v>       0.39847358      -0.24999998      -0.40634080 </v>
   <v>       0.40370720       0.25000000      -0.46515523 </v>
   <v>       0.40318817       0.42988321       0.35308904 </v>
   <v>       0.40318817       0.07011678       0.35308904 </v>
   <v>      -0.37753866       0.25000000      -0.04012035 </v>
   <v>      -0.38185877      -0.24999998      -0.09685284 </v>
   <v>      -0.37868623       0.43028350       0.14223936 </v>
   <v>      -0.37868623       0.06971649       0.14223936 </v>
   <v>       0.42008862      -0.42979475      -0.14687645 </v>
   <v>       0.42008862      -0.07020525      -0.14687645 </v>
   <v>       0.41948913      -0.24999998       0.03499417 </v>
   <v>      -0.39347744      -0.24999998      -0.41178415 </v>
   <v>       0.42480785       0.25000000       0.09328350 </v>
   <v>      -0.40359048       0.25000000      -0.31125419 </v>
   <v>       0.43589606       0.25000000       0.40731709 </v>
   <v>      -0.40838319      -0.24999998       0.30639660 </v>
   <v>       0.45039873       0.25000000      -0.30984094 </v>
   <v>      -0.41814694       0.25000000       0.40615336 </v>
   <v>       0.44581175      -0.24999998       0.30746370 </v>
   <v>       0.46027688      -0.24999998      -0.40972815 </v>
   <v>      -0.42961663       0.25000000       0.09121649 </v>
   <v>      -0.43373298      -0.42976337      -0.14846198 </v>
   <v>      -0.43373298      -0.07023663      -0.14846198 </v>
   <v>      -0.43433127      -0.24999998       0.03318162 </v>
   <v>       0.47149919      -0.24999998      -0.09587751 </v>
   <v>       0.47679967       0.25000000      -0.03722675 </v>
   <v>      -0.45033383       0.25000000      -0.46626384 </v>
   <v>       0.47623553       0.43000451       0.14460111 </v>
   <v>       0.47623553       0.06999548       0.14460111 </v>
   <v>      -0.45082850       0.42992505       0.35197826 </v>
   <v>      -0.45082850       0.07007495       0.35197826 </v>
   <v>      -0.45555969      -0.24999998      -0.40726732 </v>
   <v>       0.49299133      -0.42987699      -0.35536325 </v>
   <v>       0.49299133      -0.07012301      -0.35536325 </v>
   <v>       0.49246338      -0.24999998       0.46290676 </v>
   <v>       0.49773568       0.25000000       0.40423138 </v>
   <v>      -0.46646860      -0.24999998      -0.09369082 </v>
   <v>      -0.47652511       0.25000000      -0.19323252 </v>
   <v>      -0.49107092       0.25000000       0.08964579 </v>
   <v>      -0.48113634      -0.24999998       0.18911395 </v>
  </varray>
 </structure>
 <varray name="primitive_index" >
  <v type="int" >        1 </v>
  <v type="int" >      101 </v>
  <v type="int" >       76 </v>
  <v type="int" >       51 </v>
  <v type="int" >       81 </v>
  <v type="int" >       21 </v>
  <v type="int" >       31 </v>
  <v type="int" >       16 </v>
  <v type="int" >      111 </v>
  <v type="int" >       66 </v>
  <v type="int" >       41 </v>
  <v type="int" >       91 </v>
  <v type="int" >      116 </v>
  <v type="int" >       96 </v>
  <v type="int" >       36 </v>
  <v type="int" >       71 </v>
  <v type="int" >       56 </v>
  <v type="int" >       61 </v>
  <v type="int" >       46 </v>
  <v type="int" >       11 </v>
  <v type="int" >       26 </v>
  <v type="int" >       86 </v>
  <v type="int" >      106 </v>
  <v type="int" >        2 </v>
  <v type="int" >       82 </v>
  <v type="int" >        6 </v>
  <v type="int" >      102 </v>
  <v type="int" >       22 </v>
  <v type="int" >       67 </v>
  <v type="int" >       42 </v>
  <v type="int" >       77 </v>
  <v type="int" >       52 </v>
  <v type="int" >      112 </v>
  <v type="int" >       32 </v>
  <v type="int" >       92 </v>
  <v type="int" >       17 </v>
  <v type="int" >       97 </v>
  <v type="int" >       12 </v>
  <v type="int" >       37 </v>
  <v type="int" >      117 </v>
  <v type="int" >       72 </v>
  <v type="int" >       57 </v>
  <v type="int" >       62 </v>
  <v type="int" >       47 </v>
  <v type="int" >      107 </v>
  <v type="int" >       27 </v>
  <v type="int" >       87 </v>
  <v type="int" >        3 </v>
  <v type="int" >       90 </v>
  <v type="int" >       10 </v>
  <v type="int" >        7 </v>
  <v type="int" >       83 </v>
  <v type="int" >       65 </v>
  <v type="int" >       50 </v>
  <v type="int" >      110 </v>
  <v type="int" >      120 </v>
  <v type="int" >       30 </v>
  <v type="int" >       23 </v>
  <v type="int" >      103 </v>
  <v type="int" >       68 </v>
  <v type="int" >       43 </v>
  <v type="int" >       75 </v>
  <v type="int" >       60 </v>
  <v type="int" >       40 </v>
  <v type="int" >       78 </v>
  <v type="int" >       53 </v>
  <v type="int" >      113 </v>
  <v type="int" >       33 </v>
  <v type="int" >      100 </v>
  <v type="int" >       20 </v>
  <v type="int" >       93 </v>
  <v type="int" >       18 </v>
  <v type="int" >       15 </v>
  <v type="int" >       95 </v>
  <v type="int" >       13 </v>
  <v type="int" >       35 </v>
  <v type="int" >       98 </v>
  <v type="int" >       80 </v>
  <v type="int" >       55 </v>
  <v type="int" >      115 </v>
  <v type="int" >       38 </v>
  <v type="int" >      118 </v>
  <v type="int" >       73 </v>
  <v type="int" >       58 </v>
  <v type="int" >      105 </v>
  <v type="int" >       25 </v>
  <v type="int" >       70 </v>
  <v type="int" >       45 </v>
  <v type="int" >       63 </v>
  <v type="int" >       48 </v>
  <v type="int" >      108 </v>
  <v type="int" >       85 </v>
  <v type="int" >       28 </v>
  <v type="int" >        5 </v>
  <v type="int" >       88 </v>
  <v type="int" >        9 </v>
  <v type="int" >        4 </v>
  <v type="int" >       89 </v>
  <v type="int" >        8 </v>
  <v type="int" >       84 </v>
  <v type="int" >       29 </v>
  <v type="int" >       64 </v>
  <v type="int" >       49 </v>
  <v type="int" >      109 </v>
  <v type="int" >       24 </v>
  <v type="int" >      104 </v>
  <v type="int" >      119 </v>
  <v type="int" >       69 </v>
  <v type="int" >       44 </v>
  <v type="int" >       74 </v>
  <v type="int" >       59 </v>
  <v type="int" >       39 </v>
  <v type="int" >       79 </v>
  <v type="int" >       54 </v>
  <v type="int" >      114 </v>
  <v type="int" >       34 </v>
  <v type="int" >       99 </v>
  <v type="int" >       19 </v>
  <v type="int" >       94 </v>
  <v type="int" >       14 </v>
 </varray>
 <kpoints>
  <generation param="listgenerated">
   <i name="divisions" type="int">      20 </i>
   <v>       0.00000000       0.00000000       0.00000000 </v>
   <v>       0.00000000       0.50000000       0.00000000 </v>
   <v>       0.00000000       0.50000000       0.50000000 </v>
   <v>       0.00000000       0.00000000       0.50000000 </v>
   <v>       0.00000000       0.00000000       0.00000000 </v>
  </generation>
  <varray name="kpointlist" >
   <v>       0.00000000       0.00000000       0.00000000 </v>
   <v>       0.00000000       0.02631579       0.00000000 </v>
   <v>       0.00000000       0.05263158       0.00000000 </v>
   <v>       0.00000000       0.07894737       0.00000000 </v>
   <v>       0.00000000       0.10526316       0.00000000 </v>
   <v>       0.00000000       0.13157895       0.00000000 </v>
   <v>       0.00000000       0.15789474       0.00000000 </v>
   <v>       0.00000000       0.18421053       0.00000000 </v>
   <v>       0.00000000       0.21052632       0.00000000 </v>
   <v>       0.00000000       0.23684211       0.00000000 </v>
   <v>       0.00000000       0.26315789       0.00000000 </v>
   <v>       0.00000000       0.28947368       0.00000000 </v>
   <v>       0.00000000       0.31578947       0.00000000 </v>
   <v>       0.00000000       0.34210526       0.00000000 </v>
   <v>       0.00000000       0.36842105       0.00000000 </v>
   <v>       0.00000000       0.39473684       0.00000000 </v>
   <v>       0.00000000       0.42105263       0.00000000 </v>
   <v>       0.00000000       0.44736842       0.00000000 </v>
   <v>       0.00000000       0.47368421       0.00000000 </v>
   <v>       0.00000000       0.50000000       0.00000000 </v>
   <v>       0.00000000       0.50000000       0.00000000 </v>
   <v>       0.00000000       0.50000000       0.02631579 </v>
   <v>       0.00000000       0.50000000       0.05263158 </v>
   <v>       0.00000000       0.50000000       0.07894737 </v>
   <v>       0.00000000       0.50000000       0.10526316 </v>
   <v>       0.00000000       0.50000000       0.13157895 </v>
   <v>       0.00000000       0.50000000       0.15789474 </v>
   <v>       0.00000000       0.50000000       0.18421053 </v>
   <v>       0.00000000       0.50000000       0.21052632 </v>
   <v>       0.00000000       0.50000000       0.23684211 </v>
   <v>       0.00000000       0.50000000       0.26315789 </v>
   <v>       0.00000000       0.50000000       0.28947368 </v>
   <v>       0.00000000       0.50000000       0.31578947 </v>
   <v>       0.00000000       0.50000000       0.34210526 </v>
   <v>       0.00000000       0.50000000       0.36842105 </v>
   <v>       0.00000000       0.50000000       0.39473684 </v>
   <v>       0.00000000       0.50000000       0.42105263 </v>
   <v>       0.00000000       0.50000000       0.44736842 </v>
   <v>       0.00000000       0.50000000       0.47368421 </v>
   <v>       0.00000000       0.50000000       0.50000000 </v>
   <v>       0.00000000       0.50000000       0.50000000 </v>
   <v>       0.00000000       0.47368421       0.50000000 </v>
   <v>       0.00000000       0.44736842       0.50000000 </v>
   <v>       0.00000000       0.42105263       0.50000000 </v>
   <v>       0.00000000       0.39473684       0.50000000 </v>
   <v>       0.00000000       0.36842105       0.50000000 </v>
   <v>       0.00000000       0.34210526       0.50000000 </v>
   <v>       0.00000000       0.31578947       0.50000000 </v>
   <v>       0.00000000       0.28947368       0.50000000 </v>
   <v>       0.00000000       0.26315789       0.50000000 </v>
   <v>       0.00000000       0.23684211       0.50000000 </v>
   <v>       0.00000000       0.21052632       0.50000000 </v>
   <v>       0.00000000       0.18421053       0.50000000 </v>
   <v>       0.00000000       0.15789474       0.50000000 </v>
   <v>       0.00000000       0.13157895       0.50000000 </v>
   <v>       0.00000000       0.10526316       0.50000000 </v>
   <v>       0.00000000       0.07894737       0.50000000 </v>
   <v>       0.00000000       0.05263158       0.50000000 </v>
   <v>       0.00000000       0.02631579       0.50000000 </v>
   <v>       0.00000000       0.00000000       0.50000000 </v>
   <v>       0.00000000       0.00000000       0.50000000 </v>
   <v>       0.00000000       0.00000000       0.47368421 </v>
   <v>       0.00000000       0.00000000       0.44736842 </v>
   <v>       0.00000000       0.00000000       0.42105263 </v>
   <v>       0.00000000       0.00000000       0.39473684 </v>
   <v>       0.00000000       0.00000000       0.36842105 </v>
   <v>       0.00000000       0.00000000       0.34210526 </v>
   <v>       0.00000000       0.00000000       0.31578947 </v>
   <v>       0.00000000       0.00000000       0.28947368 </v>
   <v>       0.00000000       0.00000000       0.26315789 </v>
   <v>       0.00000000       0.00000000       0.23684211 </v>
   <v>       0.00000000       0.00000000       0.21052632 </v>
   <v>       0.00000000       0.00000000       0.18421053 </v>
   <v>       0.00000000       0.00000000       0.15789474 </v>
   <v>       0.00000000       0.00000000       0.13157895 </v>
   <v>       0.00000000       0.00000000       0.10526316 </v>
   <v>       0.00000000       0.00000000       0.07894737 </v>
   <v>       0.00000000       0.00000000       0.05263158 </v>
   <v>       0.00000000       0.00000000       0.02631579 </v>
   <v>       0.00000000       0.00000000       0.00000000 </v>
  </varray>
  <varray name="weights" >
   <v>       0.01250000 </v>
   <v>       0.01250000 </v>
   <v>       0.01250000 </v>
   <v>       0.01250000 </v>
   <v>       0.01250000 </v>
   <v>       0.01250000 </v>
   <v>       0.01250000 </v>
   <v>       0.01250000 </v>
   <v>       0.01250000 </v>
   <v>       0.01250000 </v>
   <v>       0.01250000 </v>
   <v>       0.01250000 </v>
   <v>       0.01250000 </v>
   <v>       0.01250000 </v>
   <v>       0.01250000 </v>
   <v>       0.01250000 </v>
   <v>       0.01250000 </v>
   <v>       0.01250000 </v>
   <v>       0.01250000 </v>
   <v>       0.01250000 </v>
   <v>       0.01250000 </v>
   <v>       0.01250000 </v>
   <v>       0.01250000 </v>
   <v>       0.01250000 </v>
   <v>       0.01250000 </v>
   <v>       0.01250000 </v>
   <v>       0.01250000 </v>
   <v>       0.01250000 </v>
   <v>       0.01250000 </v>
   <v>       0.01250000 </v>
   <v>       0.01250000 </v>
   <v>       0.01250000 </v>
   <v>       0.01250000 </v>
   <v>       0.01250000 </v>
   <v>       0.01250000 </v>
   <v>       0.01250000 </v>
   <v>       0.01250000 </v>
   <v>       0.01250000 </v>
   <v>       0.01250000 </v>
   <v>       0.01250000 </v>
   <v>       0.01250000 </v>
   <v>       0.01250000 </v>
   <v>       0.01250000 </v>
   <v>       0.01250000 </v>
   <v>       0.01250000 </v>
   <v>       0.01250000 </v>
   <v>       0.01250000 </v>
   <v>       0.01250000 </v>
   <v>       0.01250000 </v>
   <v>       0.01250000 </v>
   <v>       0.01250000 </v>
   <v>       0.01250000 </v>
   <v>       0.01250000 </v>
   <v>       0.01250000 </v>
   <v>       0.01250000 </v>
   <v>       0.01250000 </v>
   <v>       0.01250000 </v>
   <v>       0.01250000 </v>
   <v>       0.01250000 </v>
   <v>       0.01250000 </v>
   <v>       0.01250000 </v>
   <v>       0.01250000 </v>
   <v>       0.01250000 </v>
   <v>       0.01250000 </v>
   <v>       0.01250000 </v>
   <v>       0.01250000 </v>
   <v>       0.01250000 </v>
   <v>       0.01250000 </v>
   <v>       0.01250000 </v>
   <v>       0.01250000 </v>
   <v>       0.01250000 </v>
   <v>       0.01250000 </v>
   <v>       0.01250000 </v>
   <v>       0.01250000 </v>
   <v>       0.01250000 </v>
   <v>       0.01250000 </v>
   <v>       0.01250000 </v>
   <v>       0.01250000 </v>
   <v>       0.01250000 </v>
   <v>       0.01250000 </v>
  </varray>
 </kpoints>
 <parameters>
  <separator name="general" >
   <i type="string" name="SYSTEM">unknown system</i>
   <i type="logical" name="LCOMPAT"> F  </i>
  </separator>
  <separator name="electronic" >
   <i type="string" name="PREC">normal</i>
   <i name="ENMAX">    500.00000000</i>
   <i name="ENAUG">    351.16500000</i>
   <i name="EDIFF">      0.00000100</i>
   <i type="int" name="IALGO">    38</i>
   <i type="int" name="IWAVPR">    10</i>
   <i type="int" name="NBANDS">   432</i>
   <i name="NELECT">    720.00000000</i>
   <i type="int" name="TURBO">     0</i>
   <i type="int" name="IRESTART">     0</i>
   <i type="int" name="NREBOOT">     0</i>
   <i type="int" name="NMIN">     0</i>
   <i name="EREF">      0.00000000</i>
   <separator name="electronic smearing" >
    <i type="int" name="ISMEAR">     0</i>
    <i name="SIGMA">      0.01000000</i>
    <i name="KSPACING">      0.50000000</i>
    <i type="logical" name="KGAMMA"> T  </i>
   </separator>
   <separator name="electronic projectors" >
    <i type="logical" name="LREAL"> T  </i>
    <v name="ROPT">     -0.00050000     -0.00050000</v>
    <i type="int" name="LMAXPAW">  -100</i>
    <i type="int" name="LMAXMIX">     2</i>
    <i type="logical" name="NLSPLINE"> F  </i>
   </separator>
   <separator name="electronic startup" >
    <i type="int" name="ISTART">     0</i>
    <i type="int" name="ICHARG">    11</i>
    <i type="int" name="INIWAV">     1</i>
   </separator>
   <separator name="electronic spin" >
    <i type="int" name="ISPIN">     1</i>
    <i type="logical" name="LNONCOLLINEAR"> F  </i>
    <v name="MAGMOM">      1.00000000      1.00000000      1.00000000      1.00000000      1.00000000      1.00000000      1.00000000      1.00000000      1.00000000      1.00000000      1.00000000      1.00000000      1.00000000      1.00000000      1.00000000      1.00000000      1.00000000      1.00000000      1.00000000      1.00000000
      1.00000000      1.00000000      1.00000000      1.00000000      1.00000000      1.00000000      1.00000000      1.00000000      1.00000000      1.00000000      1.00000000      1.00000000      1.00000000      1.00000000      1.00000000      1.00000000      1.00000000      1.00000000      1.00000000      1.00000000
      1.00000000      1.00000000      1.00000000      1.00000000      1.00000000      1.00000000      1.00000000      1.00000000      1.00000000      1.00000000      1.00000000      1.00000000      1.00000000      1.00000000      1.00000000      1.00000000      1.00000000      1.00000000      1.00000000      1.00000000
      1.00000000      1.00000000      1.00000000      1.00000000      1.00000000      1.00000000      1.00000000      1.00000000      1.00000000      1.00000000      1.00000000      1.00000000      1.00000000      1.00000000      1.00000000      1.00000000      1.00000000      1.00000000      1.00000000      1.00000000
      1.00000000      1.00000000      1.00000000      1.00000000      1.00000000      1.00000000      1.00000000      1.00000000      1.00000000      1.00000000      1.00000000      1.00000000      1.00000000      1.00000000      1.00000000      1.00000000      1.00000000      1.00000000      1.00000000      1.00000000
      1.00000000      1.00000000      1.00000000      1.00000000      1.00000000      1.00000000      1.00000000      1.00000000      1.00000000      1.00000000      1.00000000      1.00000000      1.00000000      1.00000000      1.00000000      1.00000000      1.00000000      1.00000000      1.00000000      1.00000000
</v>
    <i name="NUPDOWN">     -1.00000000</i>
    <i type="logical" name="LSORBIT"> F  </i>
    <v name="SAXIS">      0.00000000      0.00000000      1.00000000</v>
    <i type="logical" name="LSPIRAL"> F  </i>
    <v name="QSPIRAL">      0.00000000      0.00000000      0.00000000</v>
    <i type="logical" name="LZEROZ"> F  </i>
   </separator>
   <separator name="electronic exchange-correlation" >
    <i type="logical" name="LASPH"> T  </i>
    <i type="logical" name="LMETAGGA"> F  </i>
   </separator>
   <separator name="electronic convergence" >
    <i type="int" name="NELM">   100</i>
    <i type="int" name="NELMDL">    -5</i>
    <i type="int" name="NELMIN">     2</i>
    <i name="ENINI">    500.00000000</i>
    <separator name="electronic convergence detail" >
     <i type="logical" name="LDIAG"> T  </i>
     <i type="logical" name="LSUBROT"> F  </i>
     <i name="WEIMIN">      0.00000000</i>
     <i name="EBREAK">      0.00000000</i>
     <i name="DEPER">      0.30000000</i>
     <i type="int" name="NRMM">     4</i>
     <i name="TIME">      0.40000000</i>
    </separator>
   </separator>
   <separator name="electronic mixer" >
    <i name="AMIX">      0.40000000</i>
    <i name="BMIX">      1.00000000</i>
    <i name="AMIN">      0.10000000</i>
    <i name="AMIX_MAG">      1.60000000</i>
    <i name="BMIX_MAG">      1.00000000</i>
    <separator name="electronic mixer details" >
     <i type="int" name="IMIX">     4</i>
     <i type="logical" name="MIXFIRST"> F  </i>
     <i type="int" name="MAXMIX">   -45</i>
     <i name="WC">    100.00000000</i>
     <i type="int" name="INIMIX">     1</i>
     <i type="int" name="MIXPRE">     1</i>
     <i type="int" name="MREMOVE">     5</i>
    </separator>
   </separator>
   <separator name="electronic dipolcorrection" >
    <i type="logical" name="LDIPOL"> F  </i>
    <i type="logical" name="LMONO"> F  </i>
    <i type="int" name="IDIPOL">     0</i>
    <i name="EPSILON">      1.00000000</i>
    <v name="DIPOL">   -100.00000000   -100.00000000   -100.00000000</v>
    <i name="EFIELD">      0.00000000</i>
   </separator>
  </separator>
  <separator name="grids" >
   <i type="int" name="NGX">   336</i>
   <i type="int" name="NGY">    40</i>
   <i type="int" name="NGZ">    64</i>
   <i type="int" name="NGXF">   672</i>
   <i type="int" name="NGYF">    80</i>
   <i type="int" name="NGZF">   128</i>
   <i type="logical" name="ADDGRID"> F  </i>
  </separator>
  <separator name="ionic" >
   <i type="int" name="NSW">     0</i>
   <i type="int" name="IBRION">    -1</i>
   <i type="int" name="MDALGO">     0</i>
   <i type="int" name="ISIF">     2</i>
   <i name="PSTRESS">      0.00000000</i>
   <i name="EDIFFG">     -0.01000000</i>
   <i type="int" name="NFREE">     0</i>
   <i name="POTIM">      0.30000000</i>
   <i name="SMASS">     -3.00000000</i>
   <i name="SCALEE">      1.00000000</i>
  </separator>
  <separator name="ionic md" >
   <i name="TEBEG">      0.00010000</i>
   <i name="TEEND">      0.00010000</i>
   <i type="int" name="NBLOCK">     1</i>
   <i type="int" name="KBLOCK">     1</i>
   <i type="int" name="NPACO">   256</i>
   <i name="APACO">     16.00000000</i>
  </separator>
  <separator name="symmetry" >
   <i type="int" name="ISYM">     2</i>
   <i name="SYMPREC">      0.00001000</i>
  </separator>
  <separator name="dos" >
   <i type="int" name="LORBIT">     0</i>
   <v name="RWIGS">     -1.00000000     -1.00000000</v>
   <i type="int" name="NEDOS">   301</i>
   <i name="EMIN">     10.00000000</i>
   <i name="EMAX">    -10.00000000</i>
   <i name="EFERMI">      0.00000000</i>
  </separator>
  <separator name="writing" >
   <i type="int" name="NWRITE">     2</i>
   <i type="logical" name="LWAVE"> T  </i>
   <i type="logical" name="LDOWNSAMPLE"> F  </i>
   <i type="logical" name="LCHARG"> T  </i>
   <i type="logical" name="LPARD"> F  </i>
   <i type="logical" name="LVTOT"> F  </i>
   <i type="logical" name="LVHAR"> F  </i>
   <i type="logical" name="LELF"> F  </i>
   <i type="logical" name="LOPTICS"> F  </i>
   <v name="STM">      0.00000000      0.00000000      0.00000000      0.00000000      0.00000000      0.00000000      0.00000000</v>
  </separator>
  <separator name="performance" >
   <i type="int" name="NPAR">     8</i>
   <i type="int" name="NSIM">     4</i>
   <i type="int" name="NBLK">    -1</i>
   <i type="logical" name="LPLANE"> T  </i>
   <i type="logical" name="LSCALAPACK"> T  </i>
   <i type="logical" name="LSCAAWARE"> F  </i>
   <i type="logical" name="LSCALU"> F  </i>
   <i type="logical" name="LASYNC"> F  </i>
   <i type="logical" name="LORBITALREAL"> F  </i>
  </separator>
  <separator name="miscellaneous" >
   <i type="int" name="IDIOT">     3</i>
   <i type="int" name="ISPECIAL">     0</i>
   <i type="logical" name="LMUSIC"> F  </i>
   <v name="POMASS">    137.32700000     28.08500000</v>
   <v name="DARWINR">      0.00000000      0.00000000</v>
   <v name="DARWINV">      1.00000000      1.00000000</v>
   <i type="logical" name="LCORR"> T  </i>
  </separator>
  <i type="logical" name="GGA_COMPAT"> T  </i>
  <i type="logical" name="LBERRY"> F  </i>
  <i type="int" name="ICORELEVEL">     0</i>
  <i type="logical" name="LDAU"> F  </i>
  <i type="int" name="I_CONSTRAINED_M">     0</i>
  <separator name="electronic exchange-correlation" >
   <i type="string" name="GGA">MK</i>
   <i type="int" name="VOSKOWN">     0</i>
   <i type="logical" name="LHFCALC"> F  </i>
   <i type="string" name="PRECFOCK"></i>
   <i type="logical" name="LSYMGRAD"> F  </i>
   <i type="logical" name="LHFONE"> F  </i>
   <i type="logical" name="LRHFCALC"> F  </i>
   <i type="logical" name="LTHOMAS"> F  </i>
   <i type="logical" name="LMODELHF"> F  </i>
   <i name="ENCUT4O">     -1.00000000</i>
   <i type="int" name="EXXOEP">     0</i>
   <i type="int" name="FOURORBIT">     0</i>
   <i name="AEXX">      0.00000000</i>
   <i name="HFALPHA">      0.00000000</i>
   <i name="MCALPHA">      0.00000000</i>
   <i name="ALDAX">      1.00000000</i>
   <i name="AGGAX">      1.00000000</i>
   <i name="ALDAC">      1.00000000</i>
   <i name="AGGAC">      0.00000000</i>
   <i type="int" name="NKREDX">     1</i>
   <i type="int" name="NKREDY">     1</i>
   <i type="int" name="NKREDZ">     1</i>
   <i type="logical" name="SHIFTRED"> F  </i>
   <i type="logical" name="ODDONLY"> F  </i>
   <i type="logical" name="EVENONLY"> F  </i>
   <i type="int" name="LMAXFOCK">     0</i>
   <i type="int" name="NMAXFOCKAE">     0</i>
   <i type="logical" name="LFOCKAEDFT"> F  </i>
   <i name="HFSCREEN">      0.00000000</i>
   <i name="HFSCREENC">      0.00000000</i>
   <i type="int" name="NBANDSGWLOW">     0</i>
  </separator>
  <separator name="vdW DFT" >
   <i type="logical" name="LUSE_VDW"> T  </i>
   <i name="Zab_VDW">     -1.88670000</i>
   <i name="PARAM1">      0.12340000</i>
   <i name="PARAM2">      0.71135700</i>
   <i name="PARAM3">      0.00000000</i>
  </separator>
  <separator name="model GW" >
   <i type="int" name="MODEL_GW">     0</i>
   <i name="MODEL_EPS0">     23.60988860</i>
   <i name="MODEL_ALPHA">      1.00000000</i>
  </separator>
  <separator name="linear response parameters" >
   <i type="logical" name="LEPSILON"> F  </i>
   <i type="logical" name="LRPA"> F  </i>
   <i type="logical" name="LNABLA"> F  </i>
   <i type="logical" name="LVEL"> F  </i>
   <i type="int" name="KINTER">     0</i>
   <i name="CSHIFT">      0.10000000</i>
   <i name="OMEGAMAX">     -1.00000000</i>
   <i name="DEG_THRESHOLD">      0.00200000</i>
   <i name="RTIME">     -0.10000000</i>
   <i name="WPLASMAI">      0.00000000</i>
   <v name="DFIELD">      0.00000000      0.00000000      0.00000000</v>
   <v name="WPLASMA">      0.00000000      0.00000000      0.00000000      0.00000000      0.00000000      0.00000000      0.00000000      0.00000000      0.00000000</v>
  </separator>
  <separator name="orbital magnetization" >
   <i type="logical" name="NUCIND"> F  </i>
   <v name="MAGPOS">      0.00000000      0.00000000      0.00000000</v>
   <i type="logical" name="LNICSALL"> T  </i>
   <i type="logical" name="ORBITALMAG"> F  </i>
   <i type="logical" name="LMAGBLOCH"> F  </i>
   <i type="logical" name="LCHIMAG"> F  </i>
   <i type="logical" name="LGAUGE"> T  </i>
   <i type="int" name="MAGATOM">     0</i>
   <v name="MAGDIPOL">      0.00000000      0.00000000      0.00000000</v>
   <v name="AVECCONST">      0.00000000      0.00000000      0.00000000</v>
  </separator>
  <separator name="response functions" >
   <i type="logical" name="LADDER"> F  </i>
   <i type="logical" name="LRPAFORCE"> F  </i>
   <i type="logical" name="LFXC"> F  </i>
   <i type="logical" name="LHARTREE"> T  </i>
   <i type="int" name="IBSE">     0</i>
   <v type="int" name="KPOINT">    -1     0     0     0</v>
   <i type="logical" name="LTCTE"> F  </i>
   <i type="logical" name="LTETE"> F  </i>
   <i type="logical" name="LTRIPLET"> F  </i>
   <i type="logical" name="LFXCEPS"> F  </i>
   <i type="logical" name="LFXHEG"> F  </i>
   <i type="int" name="NATURALO">     2</i>
   <i type="logical" name="L2ORDER"> F  </i>
   <i type="logical" name="LMP2LT"> F  </i>
   <i type="logical" name="LUSEW"> F  </i>
   <i name="ENCUTGW">     -2.00000000</i>
   <i name="ENCUTGWSOFT">     -2.00000000</i>
   <i name="ENCUTLF">     -1.00000000</i>
   <i type="int" name="LMAXMP2">    -1</i>
   <i name="SCISSOR">      0.00000000</i>
   <i type="int" name="NOMEGA">     0</i>
   <i type="int" name="NOMEGAR">     0</i>
   <i type="int" name="NBANDSGW">    -1</i>
   <i type="int" name="NBANDSO">    -1</i>
   <i type="int" name="NBANDSV">    -1</i>
   <i type="int" name="NELM">   100</i>
   <i type="int" name="NELMHF">     1</i>
   <i type="int" name="DIM">     3</i>
   <i type="int" name="ANTIRES">     0</i>
   <i name="OMEGAMAX">    -30.00000000</i>
   <i name="OMEGAMIN">    -30.00000000</i>
   <i name="OMEGATL">   -200.00000000</i>
   <i type="int" name="OMEGAGRID">   140</i>
   <i name="CSHIFT">     -0.10000000</i>
   <i type="logical" name="SELFENERGY"> F  </i>
   <i type="logical" name="LSPECTRAL"> F  </i>
   <i type="logical" name="LSPECTRALGW"> F  </i>
   <i type="logical" name="LSINGLES"> F  </i>
   <i type="logical" name="LFERMIGW"> F  </i>
   <i type="logical" name="ODDONLYGW"> F  </i>
   <i type="logical" name="EVENONLYGW"> F  </i>
   <i type="int" name="NKREDLFX">     1</i>
   <i type="int" name="NKREDLFY">     1</i>
   <i type="int" name="NKREDLFZ">     1</i>
   <i type="int" name="MAXMEM">  2800</i>
   <i type="int" name="TELESCOPE">     0</i>
   <i type="int" name="TAUPAR">     1</i>
   <i type="int" name="OMEGAPAR">    -1</i>
   <i name="LAMBDA">      1.00000000</i>
  </separator>
  <separator name="External order field" >
   <i name="OFIELD_KAPPA">      0.00000000</i>
   <v name="OFIELD_K">      0.00000000      0.00000000      0.00000000</v>
   <i name="OFIELD_Q6_NEAR">      0.00000000</i>
   <i name="OFIELD_Q6_FAR">      0.00000000</i>
   <i name="OFIELD_A">      0.00000000</i>
  </separator>
 </parameters>
 <atominfo>
  <atoms>     120 </atoms>
  <types>       2 </types>
  <array name="atoms" >
   <dimension dim="1">ion</dimension>
   <field type="string">element</field>
   <field type="int">atomtype</field>
   <set>
    <rc><c>Ba</c><c>   1</c></rc>
    <rc><c>Ba</c><c>   1</c></rc>
    <rc><c>Ba</c><c>   1</c></rc>
    <rc><c>Ba</c><c>   1</c></rc>
    <rc><c>Ba</c><c>   1</c></rc>
    <rc><c>Ba</c><c>   1</c></rc>
    <rc><c>Ba</c><c>   1</c></rc>
    <rc><c>Ba</c><c>   1</c></rc>
    <rc><c>Ba</c><c>   1</c></rc>
    <rc><c>Ba</c><c>   1</c></rc>
    <rc><c>Ba</c><c>   1</c></rc>
    <rc><c>Ba</c><c>   1</c></rc>
    <rc><c>Ba</c><c>   1</c></rc>
    <rc><c>Ba</c><c>   1</c></rc>
    <rc><c>Ba</c><c>   1</c></rc>
    <rc><c>Ba</c><c>   1</c></rc>
    <rc><c>Ba</c><c>   1</c></rc>
    <rc><c>Ba</c><c>   1</c></rc>
    <rc><c>Ba</c><c>   1</c></rc>
    <rc><c>Ba</c><c>   1</c></rc>
    <rc><c>Ba</c><c>   1</c></rc>
    <rc><c>Ba</c><c>   1</c></rc>
    <rc><c>Ba</c><c>   1</c></rc>
    <rc><c>Ba</c><c>   1</c></rc>
    <rc><c>Ba</c><c>   1</c></rc>
    <rc><c>Ba</c><c>   1</c></rc>
    <rc><c>Ba</c><c>   1</c></rc>
    <rc><c>Ba</c><c>   1</c></rc>
    <rc><c>Ba</c><c>   1</c></rc>
    <rc><c>Ba</c><c>   1</c></rc>
    <rc><c>Ba</c><c>   1</c></rc>
    <rc><c>Ba</c><c>   1</c></rc>
    <rc><c>Ba</c><c>   1</c></rc>
    <rc><c>Ba</c><c>   1</c></rc>
    <rc><c>Ba</c><c>   1</c></rc>
    <rc><c>Ba</c><c>   1</c></rc>
    <rc><c>Ba</c><c>   1</c></rc>
    <rc><c>Ba</c><c>   1</c></rc>
    <rc><c>Ba</c><c>   1</c></rc>
    <rc><c>Ba</c><c>   1</c></rc>
    <rc><c>Si</c><c>   2</c></rc>
    <rc><c>Si</c><c>   2</c></rc>
    <rc><c>Si</c><c>   2</c></rc>
    <rc><c>Si</c><c>   2</c></rc>
    <rc><c>Si</c><c>   2</c></rc>
    <rc><c>Si</c><c>   2</c></rc>
    <rc><c>Si</c><c>   2</c></rc>
    <rc><c>Si</c><c>   2</c></rc>
    <rc><c>Si</c><c>   2</c></rc>
    <rc><c>Si</c><c>   2</c></rc>
    <rc><c>Si</c><c>   2</c></rc>
    <rc><c>Si</c><c>   2</c></rc>
    <rc><c>Si</c><c>   2</c></rc>
    <rc><c>Si</c><c>   2</c></rc>
    <rc><c>Si</c><c>   2</c></rc>
    <rc><c>Si</c><c>   2</c></rc>
    <rc><c>Si</c><c>   2</c></rc>
    <rc><c>Si</c><c>   2</c></rc>
    <rc><c>Si</c><c>   2</c></rc>
    <rc><c>Si</c><c>   2</c></rc>
    <rc><c>Si</c><c>   2</c></rc>
    <rc><c>Si</c><c>   2</c></rc>
    <rc><c>Si</c><c>   2</c></rc>
    <rc><c>Si</c><c>   2</c></rc>
    <rc><c>Si</c><c>   2</c></rc>
    <rc><c>Si</c><c>   2</c></rc>
    <rc><c>Si</c><c>   2</c></rc>
    <rc><c>Si</c><c>   2</c></rc>
    <rc><c>Si</c><c>   2</c></rc>
    <rc><c>Si</c><c>   2</c></rc>
    <rc><c>Si</c><c>   2</c></rc>
    <rc><c>Si</c><c>   2</c></rc>
    <rc><c>Si</c><c>   2</c></rc>
    <rc><c>Si</c><c>   2</c></rc>
    <rc><c>Si</c><c>   2</c></rc>
    <rc><c>Si</c><c>   2</c></rc>
    <rc><c>Si</c><c>   2</c></rc>
    <rc><c>Si</c><c>   2</c></rc>
    <rc><c>Si</c><c>   2</c></rc>
    <rc><c>Si</c><c>   2</c></rc>
    <rc><c>Si</c><c>   2</c></rc>
    <rc><c>Si</c><c>   2</c></rc>
    <rc><c>Si</c><c>   2</c></rc>
    <rc><c>Si</c><c>   2</c></rc>
    <rc><c>Si</c><c>   2</c></rc>
    <rc><c>Si</c><c>   2</c></rc>
    <rc><c>Si</c><c>   2</c></rc>
    <rc><c>Si</c><c>   2</c></rc>
    <rc><c>Si</c><c>   2</c></rc>
    <rc><c>Si</c><c>   2</c></rc>
    <rc><c>Si</c><c>   2</c></rc>
    <rc><c>Si</c><c>   2</c></rc>
    <rc><c>Si</c><c>   2</c></rc>
    <rc><c>Si</c><c>   2</c></rc>
    <rc><c>Si</c><c>   2</c></rc>
    <rc><c>Si</c><c>   2</c></rc>
    <rc><c>Si</c><c>   2</c></rc>
    <rc><c>Si</c><c>   2</c></rc>
    <rc><c>Si</c><c>   2</c></rc>
    <rc><c>Si</c><c>   2</c></rc>
    <rc><c>Si</c><c>   2</c></rc>
    <rc><c>Si</c><c>   2</c></rc>
    <rc><c>Si</c><c>   2</c></rc>
    <rc><c>Si</c><c>   2</c></rc>
    <rc><c>Si</c><c>   2</c></rc>
    <rc><c>Si</c><c>   2</c></rc>
    <rc><c>Si</c><c>   2</c></rc>
    <rc><c>Si</c><c>   2</c></rc>
    <rc><c>Si</c><c>   2</c></rc>
    <rc><c>Si</c><c>   2</c></rc>
    <rc><c>Si</c><c>   2</c></rc>
    <rc><c>Si</c><c>   2</c></rc>
    <rc><c>Si</c><c>   2</c></rc>
    <rc><c>Si</c><c>   2</c></rc>
    <rc><c>Si</c><c>   2</c></rc>
    <rc><c>Si</c><c>   2</c></rc>
    <rc><c>Si</c><c>   2</c></rc>
    <rc><c>Si</c><c>   2</c></rc>
    <rc><c>Si</c><c>   2</c></rc>
    <rc><c>Si</c><c>   2</c></rc>
   </set>
  </array>
  <array name="atomtypes" >
   <dimension dim="1">type</dimension>
   <field type="int">atomspertype</field>
   <field type="string">element</field>
   <field>mass</field>
   <field>valence</field>
   <field type="string">pseudopotential</field>
   <set>
    <rc><c>  40</c><c>Ba</c><c>    137.32700000</c><c>     10.00000000</c><c> PAW_PBE Ba_sv 06Sep2000                </c></rc>
    <rc><c>  80</c><c>Si</c><c>     28.08500000</c><c>      4.00000000</c><c> PAW_PBE Si 05Jan2001                   </c></rc>
   </set>
  </array>
 </atominfo>
 <structure name="initialpos" >
  <crystal>
   <varray name="basis" >
    <v>      61.41372023       0.00000000       0.07765504 </v>
    <v>       0.00000000       6.69894496       0.00000000 </v>
    <v>       0.01476465       0.00000000      11.47764596 </v>
   </varray>
   <i name="volume">   4721.97772025 </i>
   <varray name="rec_basis" >
    <v>       0.01628303       0.00000000      -0.00002095 </v>
    <v>       0.00000000       0.14927724       0.00000000 </v>
    <v>      -0.00011017       0.00000000       0.08712602 </v>
   </varray>
  </crystal>
  <varray name="positions" >
   <v>       0.01580264       0.25000000       0.70613024 </v>
   <v>       0.15858030       0.25000000       0.69360340 </v>
   <v>       0.30438535       0.25000000       0.69253630 </v>
   <v>       0.45039873       0.25000000       0.69015906 </v>
   <v>       0.59640952       0.25000000       0.68874581 </v>
   <v>       0.15378756       0.75000002       0.31125419 </v>
   <v>       0.29979837       0.75000002       0.30984094 </v>
   <v>       0.44581175       0.75000002       0.30746370 </v>
   <v>       0.59161681       0.75000002       0.30639660 </v>
   <v>       0.73439447       0.75000002       0.29386976 </v>
   <v>       0.07925544       0.75000002       0.19672513 </v>
   <v>       0.22672224       0.75000002       0.19323250 </v>
   <v>       0.37278095       0.75000002       0.19113675 </v>
   <v>       0.51886366       0.75000002       0.18911395 </v>
   <v>       0.66424178       0.75000002       0.18844128 </v>
   <v>       0.08595533       0.25000000       0.81155870 </v>
   <v>       0.23133349       0.25000000       0.81088603 </v>
   <v>       0.37741615       0.25000000       0.80886323 </v>
   <v>       0.52347489       0.25000000       0.80676748 </v>
   <v>       0.67094170       0.25000000       0.80327485 </v>
   <v>       0.04172306       0.75000002       0.91579111 </v>
   <v>       0.17981376       0.75000002       0.90878349 </v>
   <v>       0.32538924       0.75000002       0.90671648 </v>
   <v>       0.47149919       0.75000002       0.90412249 </v>
   <v>       0.61814123       0.75000002       0.90314716 </v>
   <v>       0.13205582       0.25000000       0.09685282 </v>
   <v>       0.27869790       0.25000000       0.09587749 </v>
   <v>       0.42480785       0.25000000       0.09328350 </v>
   <v>       0.57038337       0.25000000       0.09121649 </v>
   <v>       0.70847406       0.25000000       0.08420887 </v>
   <v>       0.06069943       0.25000000       0.39935181 </v>
   <v>       0.20575682       0.25000000       0.40726737 </v>
   <v>       0.35172351       0.25000000       0.40634084 </v>
   <v>       0.49773568       0.25000000       0.40423138 </v>
   <v>       0.64322495       0.25000000       0.40089313 </v>
   <v>       0.10697211       0.75000002       0.59910691 </v>
   <v>       0.25246142       0.75000002       0.59576866 </v>
   <v>       0.39847358       0.75000002       0.59365920 </v>
   <v>       0.54444031       0.75000002       0.59273268 </v>
   <v>       0.68949770       0.75000002       0.60064823 </v>
   <v>       0.03698846       0.07148430       0.14895638 </v>
   <v>       0.18393006       0.07023662       0.14846196 </v>
   <v>       0.33010847       0.07020525       0.14687643 </v>
   <v>       0.47623553       0.06999548       0.14460111 </v>
   <v>       0.62131377       0.06971649       0.14223936 </v>
   <v>       0.12888335       0.93028350       0.85776062 </v>
   <v>       0.27396160       0.93000451       0.85539887 </v>
   <v>       0.42008862       0.92979475       0.85312355 </v>
   <v>       0.56626702       0.92976337       0.85153802 </v>
   <v>       0.71320861       0.92851569       0.85104360 </v>
   <v>       0.05559211       0.92849200       0.64546975 </v>
   <v>       0.20102563       0.92992505       0.64802174 </v>
   <v>       0.34700893       0.92988321       0.64691096 </v>
   <v>       0.49299133       0.92987699       0.64463675 </v>
   <v>       0.63910021       0.93068476       0.64286449 </v>
   <v>       0.11109693       0.06931523       0.35713551 </v>
   <v>       0.25720581       0.07012301       0.35536325 </v>
   <v>       0.40318817       0.07011678       0.35308904 </v>
   <v>       0.54917150       0.07007495       0.35197826 </v>
   <v>       0.69460495       0.07150800       0.35453025 </v>
   <v>       0.12888335       0.56971650       0.85776062 </v>
   <v>       0.27396160       0.56999549       0.85539887 </v>
   <v>       0.42008862       0.57020525       0.85312355 </v>
   <v>       0.56626702       0.57023663       0.85153802 </v>
   <v>       0.71320861       0.57148431       0.85104360 </v>
   <v>       0.03698846       0.42851569       0.14895638 </v>
   <v>       0.18393006       0.42976337       0.14846196 </v>
   <v>       0.33010847       0.42979475       0.14687643 </v>
   <v>       0.47623553       0.43000451       0.14460111 </v>
   <v>       0.62131377       0.43028350       0.14223936 </v>
   <v>       0.11109693       0.43068476       0.35713551 </v>
   <v>       0.25720581       0.42987699       0.35536325 </v>
   <v>       0.40318817       0.42988321       0.35308904 </v>
   <v>       0.54917150       0.42992505       0.35197826 </v>
   <v>       0.69460495       0.42849200       0.35453025 </v>
   <v>       0.05559211       0.57150800       0.64546975 </v>
   <v>       0.20102563       0.57007495       0.64802174 </v>
   <v>       0.34700893       0.57011679       0.64691096 </v>
   <v>       0.49299133       0.57012301       0.64463675 </v>
   <v>       0.63910021       0.56931524       0.64286449 </v>
   <v>       0.02110736       0.75000002       0.62440332 </v>
   <v>       0.16834405       0.75000002       0.59384664 </v>
   <v>       0.31430107       0.75000002       0.59268291 </v>
   <v>       0.46027688       0.75000002       0.59027185 </v>
   <v>       0.60652256       0.75000002       0.58821585 </v>
   <v>       0.14367452       0.25000000       0.41178415 </v>
   <v>       0.28992025       0.25000000       0.40972815 </v>
   <v>       0.43589606       0.25000000       0.40731709 </v>
   <v>       0.58185306       0.25000000       0.40615336 </v>
   <v>       0.72908975       0.25000000       0.37559668 </v>
   <v>       0.07035982       0.25000000       0.08633127 </v>
   <v>       0.21666576       0.25000000       0.09369080 </v>
   <v>       0.36282041       0.25000000       0.09174380 </v>
   <v>       0.50892908       0.25000000       0.08964579 </v>
   <v>       0.65378531       0.25000000       0.08730652 </v>
   <v>       0.09641181       0.75000002       0.91269346 </v>
   <v>       0.24126807       0.75000002       0.91035419 </v>
   <v>       0.38737668       0.75000002       0.90825618 </v>
   <v>       0.53353140       0.75000002       0.90630918 </v>
   <v>       0.67983733       0.75000002       0.91366871 </v>
   <v>       0.03734066       0.25000000       0.96653880 </v>
   <v>       0.18452840       0.25000000       0.96681840 </v>
   <v>       0.33070800       0.25000000       0.96500585 </v>
   <v>       0.47679967       0.25000000       0.96277325 </v>
   <v>       0.62246134       0.25000000       0.95987965 </v>
   <v>       0.12773573       0.75000002       0.04012036 </v>
   <v>       0.27339743       0.75000002       0.03722677 </v>
   <v>       0.41948913       0.75000002       0.03499417 </v>
   <v>       0.56566873       0.75000002       0.03318162 </v>
   <v>       0.71285645       0.75000002       0.03346121 </v>
   <v>       0.04761995       0.75000002       0.46587934 </v>
   <v>       0.20053091       0.75000002       0.46626376 </v>
   <v>       0.34648989       0.75000002       0.46515515 </v>
   <v>       0.49246338       0.75000002       0.46290676 </v>
   <v>       0.63866126       0.75000002       0.46103567 </v>
   <v>       0.11153585       0.25000000       0.53896425 </v>
   <v>       0.25773375       0.25000000       0.53709316 </v>
   <v>       0.40370720       0.25000000       0.53484477 </v>
   <v>       0.54966617       0.25000000       0.53373616 </v>
   <v>       0.70257719       0.25000000       0.53412058 </v>
  </varray>
 </structure>
 <calculation>
  <scstep>
   <time name="dav">  119.34  119.64</time>
   <time name="total">  123.50  123.88</time>
   <energy>
    <i name="alphaZ">   1703.90312992 </i>
    <i name="ewald"> 197696.38170794 </i>
    <i name="hartreedc">-232388.45164137 </i>
    <i name="XCdc">    243.49142849 </i>
    <i name="pawpsdc">  19320.03122326 </i>
    <i name="pawaedc"> -17847.97710927 </i>
    <i name="eentropy">     -0.00182014 </i>
    <i name="bandstr">   -115.05632627 </i>
    <i name="atom">  36345.75727070 </i>
    <i name="e_fr_energy">   4958.07786327 </i>
    <i name="e_wo_entrp">   4958.07968341 </i>
    <i name="e_0_energy">   4958.07877334 </i>
   </energy>
  </scstep>
  <scstep>
   <time name="dav">  159.06  159.44</time>
   <time name="total">  159.07  159.45</time>
   <energy>
    <i name="e_fr_energy">    154.60988124 </i>
    <i name="e_wo_entrp">    154.61047679 </i>
    <i name="e_0_energy">    154.61017902 </i>
   </energy>
  </scstep>
  <scstep>
   <time name="dav">  147.96  148.31</time>
   <time name="total">  147.97  148.32</time>
   <energy>
    <i name="e_fr_energy">   -450.47619671 </i>
    <i name="e_wo_entrp">   -450.47619671 </i>
    <i name="e_0_energy">   -450.47619671 </i>
   </energy>
  </scstep>
  <scstep>
   <time name="dav">  163.88  164.27</time>
   <time name="total">  163.88  164.27</time>
   <energy>
    <i name="e_fr_energy">   -479.46754168 </i>
    <i name="e_wo_entrp">   -479.46754168 </i>
    <i name="e_0_energy">   -479.46754168 </i>
   </energy>
  </scstep>
  <scstep>
   <time name="dav">  177.15  177.57</time>
   <time name="total">  177.15  177.57</time>
   <energy>
    <i name="e_fr_energy">   -480.74310250 </i>
    <i name="e_wo_entrp">   -480.74310250 </i>
    <i name="e_0_energy">   -480.74310250 </i>
   </energy>
  </scstep>
  <scstep>
   <time name="dav">  161.03  161.41</time>
   <time name="total">  161.03  161.42</time>
   <energy>
    <i name="e_fr_energy">   -480.77862351 </i>
    <i name="e_wo_entrp">   -480.77862351 </i>
    <i name="e_0_energy">   -480.77862351 </i>
   </energy>
  </scstep>
  <scstep>
   <time name="dav">  176.12  176.54</time>
   <time name="total">  176.12  176.54</time>
   <energy>
    <i name="e_fr_energy">   -480.78017217 </i>
    <i name="e_wo_entrp">   -480.78017217 </i>
    <i name="e_0_energy">   -480.78017217 </i>
   </energy>
  </scstep>
  <scstep>
   <time name="dav">  162.21  162.60</time>
   <time name="total">  162.22  162.60</time>
   <energy>
    <i name="e_fr_energy">   -480.78023668 </i>
    <i name="e_wo_entrp">   -480.78023668 </i>
    <i name="e_0_energy">   -480.78023668 </i>
   </energy>
  </scstep>
  <scstep>
   <time name="dav">  146.04  146.39</time>
   <time name="total">  146.05  146.40</time>
   <energy>
    <i name="e_fr_energy">   -480.78024011 </i>
    <i name="e_wo_entrp">   -480.78024011 </i>
    <i name="e_0_energy">   -480.78024011 </i>
   </energy>
  </scstep>
  <scstep>
   <time name="dav">  102.47  102.71</time>
   <time name="total">  102.47  102.72</time>
   <energy>
    <i name="alphaZ">   1703.90312992 </i>
    <i name="ewald"> 197696.38170794 </i>
    <i name="hartreedc">-232388.45164137 </i>
    <i name="XCdc">    243.49142849 </i>
    <i name="pawpsdc">  19320.03122326 </i>
    <i name="pawaedc"> -17847.97710927 </i>
    <i name="eentropy">     -0.00000000 </i>
    <i name="bandstr">  -5553.91624995 </i>
    <i name="atom">  36345.75727070 </i>
    <i name="e_fr_energy">   -480.78024027 </i>
    <i name="e_wo_entrp">   -480.78024027 </i>
    <i name="e_0_energy">   -480.78024027 </i>
   </energy>
  </scstep>
  <structure>
   <crystal>
    <varray name="basis" >
     <v>      61.41372023       0.00000000       0.07765504 </v>
     <v>       0.00000000       6.69894496       0.00000000 </v>
     <v>       0.01476465       0.00000000      11.47764596 </v>
    </varray>
    <i name="volume">   4721.97772025 </i>
    <varray name="rec_basis" >
     <v>       0.01628303       0.00000000      -0.00002095 </v>
     <v>       0.00000000       0.14927724       0.00000000 </v>
     <v>      -0.00011017       0.00000000       0.08712602 </v>
    </varray>
   </crystal>
   <varray name="positions" >
    <v>       0.01580264       0.25000000       0.70613024 </v>
    <v>       0.15858030       0.25000000       0.69360340 </v>
    <v>       0.30438535       0.25000000       0.69253630 </v>
    <v>       0.45039873       0.25000000       0.69015906 </v>
    <v>       0.59640952       0.25000000       0.68874581 </v>
    <v>       0.15378756       0.75000002       0.31125419 </v>
    <v>       0.29979837       0.75000002       0.30984094 </v>
    <v>       0.44581175       0.75000002       0.30746370 </v>
    <v>       0.59161681       0.75000002       0.30639660 </v>
    <v>       0.73439447       0.75000002       0.29386976 </v>
    <v>       0.07925544       0.75000002       0.19672513 </v>
    <v>       0.22672224       0.75000002       0.19323250 </v>
    <v>       0.37278095       0.75000002       0.19113675 </v>
    <v>       0.51886366       0.75000002       0.18911395 </v>
    <v>       0.66424178       0.75000002       0.18844128 </v>
    <v>       0.08595533       0.25000000       0.81155870 </v>
    <v>       0.23133349       0.25000000       0.81088603 </v>
    <v>       0.37741615       0.25000000       0.80886323 </v>
    <v>       0.52347489       0.25000000       0.80676748 </v>
    <v>       0.67094170       0.25000000       0.80327485 </v>
    <v>       0.04172306       0.75000002       0.91579111 </v>
    <v>       0.17981376       0.75000002       0.90878349 </v>
    <v>       0.32538924       0.75000002       0.90671648 </v>
    <v>       0.47149919       0.75000002       0.90412249 </v>
    <v>       0.61814123       0.75000002       0.90314716 </v>
    <v>       0.13205582       0.25000000       0.09685282 </v>
    <v>       0.27869790       0.25000000       0.09587749 </v>
    <v>       0.42480785       0.25000000       0.09328350 </v>
    <v>       0.57038337       0.25000000       0.09121649 </v>
    <v>       0.70847406       0.25000000       0.08420887 </v>
    <v>       0.06069943       0.25000000       0.39935181 </v>
    <v>       0.20575682       0.25000000       0.40726737 </v>
    <v>       0.35172351       0.25000000       0.40634084 </v>
    <v>       0.49773568       0.25000000       0.40423138 </v>
    <v>       0.64322495       0.25000000       0.40089313 </v>
    <v>       0.10697211       0.75000002       0.59910691 </v>
    <v>       0.25246142       0.75000002       0.59576866 </v>
    <v>       0.39847358       0.75000002       0.59365920 </v>
    <v>       0.54444031       0.75000002       0.59273268 </v>
    <v>       0.68949770       0.75000002       0.60064823 </v>
    <v>       0.03698846       0.07148430       0.14895638 </v>
    <v>       0.18393006       0.07023662       0.14846196 </v>
    <v>       0.33010847       0.07020525       0.14687643 </v>
    <v>       0.47623553       0.06999548       0.14460111 </v>
    <v>       0.62131377       0.06971649       0.14223936 </v>
    <v>       0.12888335       0.93028350       0.85776062 </v>
    <v>       0.27396160       0.93000451       0.85539887 </v>
    <v>       0.42008862       0.92979475       0.85312355 </v>
    <v>       0.56626702       0.92976337       0.85153802 </v>
    <v>       0.71320861       0.92851569       0.85104360 </v>
    <v>       0.05559211       0.92849200       0.64546975 </v>
    <v>       0.20102563       0.92992505       0.64802174 </v>
    <v>       0.34700893       0.92988321       0.64691096 </v>
    <v>       0.49299133       0.92987699       0.64463675 </v>
    <v>       0.63910021       0.93068476       0.64286449 </v>
    <v>       0.11109693       0.06931523       0.35713551 </v>
    <v>       0.25720581       0.07012301       0.35536325 </v>
    <v>       0.40318817       0.07011678       0.35308904 </v>
    <v>       0.54917150       0.07007495       0.35197826 </v>
    <v>       0.69460495       0.07150800       0.35453025 </v>
    <v>       0.12888335       0.56971650       0.85776062 </v>
    <v>       0.27396160       0.56999549       0.85539887 </v>
    <v>       0.42008862       0.57020525       0.85312355 </v>
    <v>       0.56626702       0.57023663       0.85153802 </v>
    <v>       0.71320861       0.57148431       0.85104360 </v>
    <v>       0.03698846       0.42851569       0.14895638 </v>
    <v>       0.18393006       0.42976337       0.14846196 </v>
    <v>       0.33010847       0.42979475       0.14687643 </v>
    <v>       0.47623553       0.43000451       0.14460111 </v>
    <v>       0.62131377       0.43028350       0.14223936 </v>
    <v>       0.11109693       0.43068476       0.35713551 </v>
    <v>       0.25720581       0.42987699       0.35536325 </v>
    <v>       0.40318817       0.42988321       0.35308904 </v>
    <v>       0.54917150       0.42992505       0.35197826 </v>
    <v>       0.69460495       0.42849200       0.35453025 </v>
    <v>       0.05559211       0.57150800       0.64546975 </v>
    <v>       0.20102563       0.57007495       0.64802174 </v>
    <v>       0.34700893       0.57011679       0.64691096 </v>
    <v>       0.49299133       0.57012301       0.64463675 </v>
    <v>       0.63910021       0.56931524       0.64286449 </v>
    <v>       0.02110736       0.75000002       0.62440332 </v>
    <v>       0.16834405       0.75000002       0.59384664 </v>
    <v>       0.31430107       0.75000002       0.59268291 </v>
    <v>       0.46027688       0.75000002       0.59027185 </v>
    <v>       0.60652256       0.75000002       0.58821585 </v>
    <v>       0.14367452       0.25000000       0.41178415 </v>
    <v>       0.28992025       0.25000000       0.40972815 </v>
    <v>       0.43589606       0.25000000       0.40731709 </v>
    <v>       0.58185306       0.25000000       0.40615336 </v>
    <v>       0.72908975       0.25000000       0.37559668 </v>
    <v>       0.07035982       0.25000000       0.08633127 </v>
    <v>       0.21666576       0.25000000       0.09369080 </v>
    <v>       0.36282041       0.25000000       0.09174380 </v>
    <v>       0.50892908       0.25000000       0.08964579 </v>
    <v>       0.65378531       0.25000000       0.08730652 </v>
    <v>       0.09641181       0.75000002       0.91269346 </v>
    <v>       0.24126807       0.75000002       0.91035419 </v>
    <v>       0.38737668       0.75000002       0.90825618 </v>
    <v>       0.53353140       0.75000002       0.90630918 </v>
    <v>       0.67983733       0.75000002       0.91366871 </v>
    <v>       0.03734066       0.25000000       0.96653880 </v>
    <v>       0.18452840       0.25000000       0.96681840 </v>
    <v>       0.33070800       0.25000000       0.96500585 </v>
    <v>       0.47679967       0.25000000       0.96277325 </v>
    <v>       0.62246134       0.25000000       0.95987965 </v>
    <v>       0.12773573       0.75000002       0.04012036 </v>
    <v>       0.27339743       0.75000002       0.03722677 </v>
    <v>       0.41948913       0.75000002       0.03499417 </v>
    <v>       0.56566873       0.75000002       0.03318162 </v>
    <v>       0.71285645       0.75000002       0.03346121 </v>
    <v>       0.04761995       0.75000002       0.46587934 </v>
    <v>       0.20053091       0.75000002       0.46626376 </v>
    <v>       0.34648989       0.75000002       0.46515515 </v>
    <v>       0.49246338       0.75000002       0.46290676 </v>
    <v>       0.63866126       0.75000002       0.46103567 </v>
    <v>       0.11153585       0.25000000       0.53896425 </v>
    <v>       0.25773375       0.25000000       0.53709316 </v>
    <v>       0.40370720       0.25000000       0.53484477 </v>
    <v>       0.54966617       0.25000000       0.53373616 </v>
    <v>       0.70257719       0.25000000       0.53412058 </v>
   </varray>
  </structure>
  <varray name="forces" >
   <v>       0.01837916       0.00000000      -0.03543367 </v>
   <v>       0.03701402       0.00000000      -0.01781622 </v>
   <v>       0.03387916       0.00000000      -0.02217379 </v>
   <v>       0.03117481       0.00000000      -0.02643814 </v>
   <v>       0.03498421       0.00000000      -0.02179594 </v>
   <v>      -0.03498421       0.00000000       0.02179594 </v>
   <v>      -0.03117481       0.00000000       0.02643814 </v>
   <v>      -0.03387916       0.00000000       0.02217379 </v>
   <v>      -0.03701402       0.00000000       0.01781622 </v>
   <v>      -0.01837916       0.00000000       0.03543367 </v>
   <v>      -0.05092163       0.00000000      -0.01945300 </v>
   <v>      -0.03577522       0.00000000      -0.02064856 </v>
   <v>      -0.03701943       0.00000000      -0.02029529 </v>
   <v>      -0.03759034       0.00000000      -0.01588209 </v>
   <v>      -0.04360211       0.00000000      -0.02134499 </v>
   <v>       0.04360211       0.00000000       0.02134499 </v>
   <v>       0.03759034       0.00000000       0.01588209 </v>
   <v>       0.03701943       0.00000000       0.02029529 </v>
   <v>       0.03577522       0.00000000       0.02064856 </v>
   <v>       0.05092163       0.00000000       0.01945300 </v>
   <v>       0.00588433       0.00000000      -0.00442982 </v>
   <v>       0.01589877       0.00000000       0.02896665 </v>
   <v>       0.01653036       0.00000000       0.02868126 </v>
   <v>       0.01558292       0.00000000       0.03426662 </v>
   <v>       0.00473797       0.00000000       0.02499844 </v>
   <v>      -0.00473797       0.00000000      -0.02499844 </v>
   <v>      -0.01558292       0.00000000      -0.03426662 </v>
   <v>      -0.01653036       0.00000000      -0.02868126 </v>
   <v>      -0.01589877       0.00000000      -0.02896665 </v>
   <v>      -0.00588433       0.00000000       0.00442982 </v>
   <v>      -0.01210610       0.00000000       0.03049807 </v>
   <v>      -0.01147457       0.00000000       0.02979659 </v>
   <v>      -0.01685765       0.00000000       0.02420670 </v>
   <v>      -0.01894186       0.00000000       0.02765331 </v>
   <v>      -0.01461169       0.00000000       0.02077551 </v>
   <v>       0.01461169       0.00000000      -0.02077551 </v>
   <v>       0.01894186       0.00000000      -0.02765331 </v>
   <v>       0.01685765       0.00000000      -0.02420670 </v>
   <v>       0.01147457       0.00000000      -0.02979659 </v>
   <v>       0.01210610       0.00000000      -0.03049807 </v>
   <v>       0.01713090       0.01251379       0.00761367 </v>
   <v>       0.01997633       0.02389453      -0.00393324 </v>
   <v>       0.02549154       0.02195445      -0.00883586 </v>
   <v>       0.01975740       0.02463760      -0.00977358 </v>
   <v>       0.02024076       0.02088108      -0.00910947 </v>
   <v>      -0.02024076      -0.02088108       0.00910947 </v>
   <v>      -0.01975740      -0.02463760       0.00977358 </v>
   <v>      -0.02549154      -0.02195445       0.00883586 </v>
   <v>      -0.01997633      -0.02389453       0.00393324 </v>
   <v>      -0.01713090      -0.01251379      -0.00761367 </v>
   <v>      -0.01569906      -0.02494241      -0.00100290 </v>
   <v>      -0.01644341      -0.02166211      -0.00901775 </v>
   <v>      -0.01964345      -0.02074383      -0.00385565 </v>
   <v>      -0.02208235      -0.02262435      -0.00976948 </v>
   <v>      -0.03023615      -0.03108782      -0.01300145 </v>
   <v>       0.03023615       0.03108782       0.01300145 </v>
   <v>       0.02208235       0.02262435       0.00976948 </v>
   <v>       0.01964345       0.02074383       0.00385565 </v>
   <v>       0.01644341       0.02166211       0.00901775 </v>
   <v>       0.01569906       0.02494241       0.00100290 </v>
   <v>      -0.02024076       0.02088108       0.00910947 </v>
   <v>      -0.01975740       0.02463760       0.00977358 </v>
   <v>      -0.02549154       0.02195445       0.00883586 </v>
   <v>      -0.01997633       0.02389453       0.00393324 </v>
   <v>      -0.01713090       0.01251379      -0.00761367 </v>
   <v>       0.01713090      -0.01251379       0.00761367 </v>
   <v>       0.01997633      -0.02389453      -0.00393324 </v>
   <v>       0.02549154      -0.02195445      -0.00883586 </v>
   <v>       0.01975740      -0.02463760      -0.00977358 </v>
   <v>       0.02024076      -0.02088108      -0.00910947 </v>
   <v>       0.03023615      -0.03108782       0.01300145 </v>
   <v>       0.02208235      -0.02262435       0.00976948 </v>
   <v>       0.01964345      -0.02074383       0.00385565 </v>
   <v>       0.01644341      -0.02166211       0.00901775 </v>
   <v>       0.01569906      -0.02494241       0.00100290 </v>
   <v>      -0.01569906       0.02494241      -0.00100290 </v>
   <v>      -0.01644341       0.02166211      -0.00901775 </v>
   <v>      -0.01964345       0.02074383      -0.00385565 </v>
   <v>      -0.02208235       0.02262435      -0.00976948 </v>
   <v>      -0.03023615       0.03108782      -0.01300145 </v>
   <v>       0.03045726       0.00000000       0.01722234 </v>
   <v>       0.00629186       0.00000000       0.01482311 </v>
   <v>      -0.00092269       0.00000000       0.00491602 </v>
   <v>       0.00103371       0.00000000       0.00698142 </v>
   <v>       0.00217304       0.00000000       0.00507764 </v>
   <v>      -0.00217304       0.00000000      -0.00507764 </v>
   <v>      -0.00103371       0.00000000      -0.00698142 </v>
   <v>       0.00092269       0.00000000      -0.00491602 </v>
   <v>      -0.00629186       0.00000000      -0.01482311 </v>
   <v>      -0.03045726       0.00000000      -0.01722234 </v>
   <v>       0.01346524       0.00000000      -0.00677955 </v>
   <v>       0.00327449       0.00000000       0.01081484 </v>
   <v>      -0.00064065       0.00000000       0.01144406 </v>
   <v>      -0.00375534       0.00000000       0.00290912 </v>
   <v>       0.00292326       0.00000000       0.00622646 </v>
   <v>      -0.00292326       0.00000000      -0.00622646 </v>
   <v>       0.00375534       0.00000000      -0.00290912 </v>
   <v>       0.00064065       0.00000000      -0.01144406 </v>
   <v>      -0.00327449       0.00000000      -0.01081484 </v>
   <v>      -0.01346524       0.00000000       0.00677955 </v>
   <v>      -0.00108148       0.00000000       0.01550685 </v>
   <v>      -0.00564269       0.00000000       0.00086239 </v>
   <v>      -0.00869132       0.00000000       0.00156950 </v>
   <v>       0.00149158       0.00000000       0.00052022 </v>
   <v>      -0.01057174       0.00000000       0.00388032 </v>
   <v>       0.01057174       0.00000000      -0.00388032 </v>
   <v>      -0.00149158       0.00000000      -0.00052022 </v>
   <v>       0.00869132       0.00000000      -0.00156950 </v>
   <v>       0.00564269       0.00000000      -0.00086239 </v>
   <v>       0.00108148       0.00000000      -0.01550685 </v>
   <v>       0.01573304       0.00000000      -0.00325014 </v>
   <v>       0.00903158       0.00000000       0.00144130 </v>
   <v>       0.00109734       0.00000000      -0.00469677 </v>
   <v>       0.00712376       0.00000000      -0.00030508 </v>
   <v>       0.00530918       0.00000000      -0.00376940 </v>
   <v>      -0.00530918       0.00000000       0.00376940 </v>
   <v>      -0.00712376       0.00000000       0.00030508 </v>
   <v>      -0.00109734       0.00000000       0.00469677 </v>
   <v>      -0.00903158       0.00000000      -0.00144130 </v>
   <v>      -0.01573304       0.00000000       0.00325014 </v>
  </varray>
  <varray name="stress" >
   <v>      -1.49956844       0.00000000       0.04057623 </v>
   <v>       0.00000000      -1.56404130       0.00000000 </v>
   <v>       0.04057627       0.00000000      -1.82340412 </v>
  </varray>
  <energy>
   <i name="e_fr_energy">   -480.78024027 </i>
   <i name="e_wo_entrp">   -480.78024027 </i>
   <i name="e_0_energy">     -0.00000000 </i>
  </energy>
  <time name="totalsc"> 1905.51 1954.40</time>
  <eigenvalues>
   <array>
    <dimension dim="1">band</dimension>
    <dimension dim="2">kpoint</dimension>
    <dimension dim="3">spin</dimension>
    <field>eigene</field>
    <field>occ</field>
    <set>
     <set comment="spin 1">
      <set comment="kpoint 1">
       <r>  -26.9127    1.0000 </r>
       <r>  -26.9121    1.0000 </r>
       <r>  -25.9499    1.0000 </r>
       <r>  -25.9485    1.0000 </r>
       <r>  -25.9475    1.0000 </r>
       <r>  -25.9461    1.0000 </r>
       <r>  -25.9372    1.0000 </r>
       <r>  -25.9359    1.0000 </r>
       <r>  -25.8843    1.0000 </r>
       <r>  -25.8839    1.0000 </r>
       <r>  -25.8819    1.0000 </r>
       <r>  -25.8788    1.0000 </r>
       <r>  -25.8777    1.0000 </r>
       <r>  -25.8764    1.0000 </r>
       <r>  -25.8761    1.0000 </r>
       <r>  -25.8747    1.0000 </r>
       <r>  -25.8726    1.0000 </r>
       <r>  -25.8721    1.0000 </r>
       <r>  -25.8624    1.0000 </r>
       <r>  -25.8608    1.0000 </r>
       <r>  -25.8516    1.0000 </r>
       <r>  -25.8503    1.0000 </r>
       <r>  -25.8061    1.0000 </r>
       <r>  -25.8048    1.0000 </r>
       <r>  -25.7996    1.0000 </r>
       <r>  -25.7988    1.0000 </r>
       <r>  -25.7972    1.0000 </r>
       <r>  -25.7967    1.0000 </r>
       <r>  -25.7962    1.0000 </r>
       <r>  -25.7958    1.0000 </r>
       <r>  -25.7955    1.0000 </r>
       <r>  -25.7949    1.0000 </r>
       <r>  -25.7925    1.0000 </r>
       <r>  -25.7917    1.0000 </r>
       <r>  -25.7903    1.0000 </r>
       <r>  -25.7895    1.0000 </r>
       <r>  -25.7774    1.0000 </r>
       <r>  -25.7759    1.0000 </r>
       <r>  -25.7326    1.0000 </r>
       <r>  -25.7313    1.0000 </r>
       <r>  -12.2862    1.0000 </r>
       <r>  -12.2856    1.0000 </r>
       <r>  -12.2150    1.0000 </r>
       <r>  -12.2143    1.0000 </r>
       <r>  -12.1206    1.0000 </r>
       <r>  -12.1199    1.0000 </r>
       <r>  -11.5306    1.0000 </r>
       <r>  -11.5293    1.0000 </r>
       <r>  -11.4706    1.0000 </r>
       <r>  -11.4696    1.0000 </r>
       <r>  -11.4660    1.0000 </r>
       <r>  -11.4641    1.0000 </r>
       <r>  -11.4552    1.0000 </r>
       <r>  -11.4387    1.0000 </r>
       <r>  -11.4311    1.0000 </r>
       <r>  -11.4207    1.0000 </r>
       <r>  -11.4118    1.0000 </r>
       <r>  -11.4022    1.0000 </r>
       <r>  -11.4006    1.0000 </r>
       <r>  -11.4004    1.0000 </r>
       <r>  -11.3913    1.0000 </r>
       <r>  -11.3898    1.0000 </r>
       <r>  -11.3751    1.0000 </r>
       <r>  -11.3666    1.0000 </r>
       <r>  -11.3585    1.0000 </r>
       <r>  -11.3566    1.0000 </r>
       <r>  -11.3544    1.0000 </r>
       <r>  -11.3399    1.0000 </r>
       <r>  -11.3322    1.0000 </r>
       <r>  -11.3302    1.0000 </r>
       <r>  -11.3203    1.0000 </r>
       <r>  -11.3183    1.0000 </r>
       <r>  -11.3172    1.0000 </r>
       <r>  -11.3146    1.0000 </r>
       <r>  -11.3059    1.0000 </r>
       <r>  -11.3009    1.0000 </r>
       <r>  -11.3000    1.0000 </r>
       <r>  -11.2978    1.0000 </r>
       <r>  -11.2956    1.0000 </r>
       <r>  -11.2911    1.0000 </r>
       <r>  -11.2902    1.0000 </r>
       <r>  -11.2900    1.0000 </r>
       <r>  -11.2835    1.0000 </r>
       <r>  -11.2812    1.0000 </r>
       <r>  -11.2810    1.0000 </r>
       <r>  -11.2795    1.0000 </r>
       <r>  -11.2783    1.0000 </r>
       <r>  -11.2776    1.0000 </r>
       <r>  -11.2735    1.0000 </r>
       <r>  -11.2729    1.0000 </r>
       <r>  -11.2680    1.0000 </r>
       <r>  -11.2676    1.0000 </r>
       <r>  -11.2655    1.0000 </r>
       <r>  -11.2616    1.0000 </r>
       <r>  -11.2599    1.0000 </r>
       <r>  -11.2545    1.0000 </r>
       <r>  -11.2538    1.0000 </r>
       <r>  -11.2494    1.0000 </r>
       <r>  -11.2464    1.0000 </r>
       <r>  -11.2456    1.0000 </r>
       <r>  -11.2452    1.0000 </r>
       <r>  -11.2433    1.0000 </r>
       <r>  -11.2430    1.0000 </r>
       <r>  -11.2411    1.0000 </r>
       <r>  -11.2401    1.0000 </r>
       <r>  -11.2350    1.0000 </r>
       <r>  -11.2246    1.0000 </r>
       <r>  -11.2116    1.0000 </r>
       <r>  -11.2055    1.0000 </r>
       <r>  -11.1927    1.0000 </r>
       <r>  -11.1890    1.0000 </r>
       <r>  -11.1675    1.0000 </r>
       <r>  -11.1456    1.0000 </r>
       <r>  -11.1433    1.0000 </r>
       <r>  -11.1308    1.0000 </r>
       <r>  -11.1302    1.0000 </r>
       <r>  -11.1233    1.0000 </r>
       <r>  -11.1220    1.0000 </r>
       <r>  -11.1198    1.0000 </r>
       <r>  -11.1186    1.0000 </r>
       <r>  -11.1156    1.0000 </r>
       <r>  -11.1115    1.0000 </r>
       <r>  -11.1111    1.0000 </r>
       <r>  -11.1085    1.0000 </r>
       <r>  -11.1011    1.0000 </r>
       <r>  -11.0992    1.0000 </r>
       <r>  -11.0982    1.0000 </r>
       <r>  -11.0959    1.0000 </r>
       <r>  -11.0942    1.0000 </r>
       <r>  -11.0931    1.0000 </r>
       <r>  -11.0916    1.0000 </r>
       <r>  -11.0895    1.0000 </r>
       <r>  -11.0888    1.0000 </r>
       <r>  -11.0876    1.0000 </r>
       <r>  -11.0812    1.0000 </r>
       <r>  -11.0788    1.0000 </r>
       <r>  -11.0788    1.0000 </r>
       <r>  -11.0758    1.0000 </r>
       <r>  -11.0752    1.0000 </r>
       <r>  -11.0702    1.0000 </r>
       <r>  -11.0682    1.0000 </r>
       <r>  -11.0676    1.0000 </r>
       <r>  -11.0653    1.0000 </r>
       <r>  -11.0611    1.0000 </r>
       <r>  -11.0608    1.0000 </r>
       <r>  -11.0581    1.0000 </r>
       <r>  -11.0558    1.0000 </r>
       <r>  -11.0546    1.0000 </r>
       <r>  -11.0498    1.0000 </r>
       <r>  -11.0485    1.0000 </r>
       <r>  -11.0479    1.0000 </r>
       <r>  -11.0461    1.0000 </r>
       <r>  -11.0454    1.0000 </r>
       <r>  -11.0439    1.0000 </r>
       <r>  -11.0334    1.0000 </r>
       <r>  -11.0319    1.0000 </r>
       <r>  -11.0299    1.0000 </r>
       <r>  -11.0279    1.0000 </r>
       <r>  -11.0222    1.0000 </r>
       <r>  -11.0208    1.0000 </r>
       <r>   -9.1239    1.0000 </r>
       <r>   -9.0968    1.0000 </r>
       <r>   -9.0521    1.0000 </r>
       <r>   -8.9975    1.0000 </r>
       <r>   -8.9430    1.0000 </r>
       <r>   -8.8968    1.0000 </r>
       <r>   -8.8658    1.0000 </r>
       <r>   -8.8612    1.0000 </r>
       <r>   -8.8605    1.0000 </r>
       <r>   -8.8477    1.0000 </r>
       <r>   -8.8381    1.0000 </r>
       <r>   -8.8315    1.0000 </r>
       <r>   -8.8263    1.0000 </r>
       <r>   -8.8253    1.0000 </r>
       <r>   -8.8156    1.0000 </r>
       <r>   -8.8059    1.0000 </r>
       <r>   -8.8007    1.0000 </r>
       <r>   -8.8002    1.0000 </r>
       <r>   -8.4618    1.0000 </r>
       <r>   -8.4608    1.0000 </r>
       <r>   -4.5074    1.0000 </r>
       <r>   -4.5057    1.0000 </r>
       <r>   -4.4971    1.0000 </r>
       <r>   -4.4766    1.0000 </r>
       <r>   -4.4532    1.0000 </r>
       <r>   -4.4473    1.0000 </r>
       <r>   -4.4360    1.0000 </r>
       <r>   -4.4264    1.0000 </r>
       <r>   -4.3468    1.0000 </r>
       <r>   -4.3447    1.0000 </r>
       <r>   -4.2789    1.0000 </r>
       <r>   -4.2667    1.0000 </r>
       <r>   -4.2069    1.0000 </r>
       <r>   -4.1912    1.0000 </r>
       <r>   -4.1732    1.0000 </r>
       <r>   -4.1639    1.0000 </r>
       <r>   -4.1611    1.0000 </r>
       <r>   -4.1399    1.0000 </r>
       <r>   -4.1383    1.0000 </r>
       <r>   -4.1297    1.0000 </r>
       <r>   -4.1280    1.0000 </r>
       <r>   -4.1064    1.0000 </r>
       <r>   -4.0828    1.0000 </r>
       <r>   -4.0659    1.0000 </r>
       <r>   -4.0648    1.0000 </r>
       <r>   -4.0628    1.0000 </r>
       <r>   -4.0533    1.0000 </r>
       <r>   -4.0452    1.0000 </r>
       <r>   -4.0332    1.0000 </r>
       <r>   -4.0307    1.0000 </r>
       <r>   -4.0245    1.0000 </r>
       <r>   -4.0214    1.0000 </r>
       <r>   -4.0124    1.0000 </r>
       <r>   -4.0088    1.0000 </r>
       <r>   -4.0054    1.0000 </r>
       <r>   -4.0048    1.0000 </r>
       <r>   -3.9875    1.0000 </r>
       <r>   -3.9728    1.0000 </r>
       <r>   -3.9563    1.0000 </r>
       <r>   -3.9524    1.0000 </r>
       <r>   -3.9513    1.0000 </r>
       <r>   -3.9450    1.0000 </r>
       <r>   -3.9423    1.0000 </r>
       <r>   -3.9373    1.0000 </r>
       <r>   -3.9341    1.0000 </r>
       <r>   -3.9306    1.0000 </r>
       <r>   -3.9263    1.0000 </r>
       <r>   -3.9127    1.0000 </r>
       <r>   -3.9088    1.0000 </r>
       <r>   -3.8993    1.0000 </r>
       <r>   -3.8722    1.0000 </r>
       <r>   -3.8662    1.0000 </r>
       <r>   -3.8518    1.0000 </r>
       <r>   -3.7801    1.0000 </r>
       <r>   -3.7511    1.0000 </r>
       <r>   -3.7368    1.0000 </r>
       <r>   -3.6476    1.0000 </r>
       <r>   -3.6395    1.0000 </r>
       <r>   -3.4311    1.0000 </r>
       <r>   -3.4301    1.0000 </r>
       <r>   -1.8725    1.0000 </r>
       <r>   -1.7680    1.0000 </r>
       <r>   -1.6182    1.0000 </r>
       <r>   -1.4449    1.0000 </r>
       <r>   -1.2657    1.0000 </r>
       <r>   -1.1016    1.0000 </r>
       <r>   -0.9592    1.0000 </r>
       <r>   -0.8592    1.0000 </r>
       <r>   -0.8264    1.0000 </r>
       <r>   -0.8005    1.0000 </r>
       <r>   -0.7991    1.0000 </r>
       <r>   -0.7913    1.0000 </r>
       <r>   -0.7811    1.0000 </r>
       <r>   -0.7729    1.0000 </r>
       <r>   -0.7586    1.0000 </r>
       <r>   -0.7238    1.0000 </r>
       <r>   -0.7072    1.0000 </r>
       <r>   -0.6570    1.0000 </r>
       <r>   -0.6431    1.0000 </r>
       <r>   -0.6413    1.0000 </r>
       <r>   -0.5480    1.0000 </r>
       <r>   -0.4511    1.0000 </r>
       <r>   -0.4134    1.0000 </r>
       <r>   -0.3651    1.0000 </r>
       <r>   -0.3448    1.0000 </r>
       <r>   -0.2849    1.0000 </r>
       <r>   -0.2342    1.0000 </r>
       <r>   -0.2228    1.0000 </r>
       <r>   -0.1851    1.0000 </r>
       <r>   -0.1491    1.0000 </r>
       <r>   -0.1236    1.0000 </r>
       <r>   -0.0734    1.0000 </r>
       <r>   -0.0583    1.0000 </r>
       <r>   -0.0405    1.0000 </r>
       <r>   -0.0352    1.0000 </r>
       <r>   -0.0260    1.0000 </r>
       <r>   -0.0145    1.0000 </r>
       <r>    0.0166    1.0000 </r>
       <r>    0.0224    1.0000 </r>
       <r>    0.0408    1.0000 </r>
       <r>    0.0528    1.0000 </r>
       <r>    0.0632    1.0000 </r>
       <r>    0.0706    1.0000 </r>
       <r>    0.0783    1.0000 </r>
       <r>    0.0887    1.0000 </r>
       <r>    0.0972    1.0000 </r>
       <r>    0.1186    1.0000 </r>
       <r>    0.1424    1.0000 </r>
       <r>    0.1577    1.0000 </r>
       <r>    0.1592    1.0000 </r>
       <r>    0.1609    1.0000 </r>
       <r>    0.1617    1.0000 </r>
       <r>    0.1992    1.0000 </r>
       <r>    0.2526    1.0000 </r>
       <r>    0.2546    1.0000 </r>
       <r>    0.2614    1.0000 </r>
       <r>    0.2628    1.0000 </r>
       <r>    0.2662    1.0000 </r>
       <r>    0.2688    1.0000 </r>
       <r>    0.3197    1.0000 </r>
       <r>    0.3199    1.0000 </r>
       <r>    0.3443    1.0000 </r>
[...]
       <r>   -21.3344     0.0000    80.0000 </r>
       <r>   -21.2190     0.0000    80.0000 </r>
       <r>   -21.1037     0.0000    80.0000 </r>
       <r>   -20.9884     0.0000    80.0000 </r>
       <r>   -20.8730     0.0000    80.0000 </r>
       <r>   -20.7577     0.0000    80.0000 </r>
       <r>   -20.6423     0.0000    80.0000 </r>
       <r>   -20.5270     0.0000    80.0000 </r>
       <r>   -20.4117     0.0000    80.0000 </r>
       <r>   -20.2963     0.0000    80.0000 </r>
       <r>   -20.1810     0.0000    80.0000 </r>
       <r>   -20.0656     0.0000    80.0000 </r>
       <r>   -19.9503     0.0000    80.0000 </r>
       <r>   -19.8349     0.0000    80.0000 </r>
       <r>   -19.7196     0.0000    80.0000 </r>
       <r>   -19.6043     0.0000    80.0000 </r>
       <r>   -19.4889     0.0000    80.0000 </r>
       <r>   -19.3736     0.0000    80.0000 </r>
       <r>   -19.2582     0.0000    80.0000 </r>
       <r>   -19.1429     0.0000    80.0000 </r>
       <r>   -19.0276     0.0000    80.0000 </r>
       <r>   -18.9122     0.0000    80.0000 </r>
       <r>   -18.7969     0.0000    80.0000 </r>
       <r>   -18.6815     0.0000    80.0000 </r>
       <r>   -18.5662     0.0000    80.0000 </r>
       <r>   -18.4509     0.0000    80.0000 </r>
       <r>   -18.3355     0.0000    80.0000 </r>
       <r>   -18.2202     0.0000    80.0000 </r>
       <r>   -18.1048     0.0000    80.0000 </r>
       <r>   -17.9895     0.0000    80.0000 </r>
       <r>   -17.8741     0.0000    80.0000 </r>
       <r>   -17.7588     0.0000    80.0000 </r>
       <r>   -17.6435     0.0000    80.0000 </r>
       <r>   -17.5281     0.0000    80.0000 </r>
       <r>   -17.4128     0.0000    80.0000 </r>
       <r>   -17.2974     0.0000    80.0000 </r>
       <r>   -17.1821     0.0000    80.0000 </r>
       <r>   -17.0668     0.0000    80.0000 </r>
       <r>   -16.9514     0.0000    80.0000 </r>
       <r>   -16.8361     0.0000    80.0000 </r>
       <r>   -16.7207     0.0000    80.0000 </r>
       <r>   -16.6054     0.0000    80.0000 </r>
       <r>   -16.4901     0.0000    80.0000 </r>
       <r>   -16.3747     0.0000    80.0000 </r>
       <r>   -16.2594     0.0000    80.0000 </r>
       <r>   -16.1440     0.0000    80.0000 </r>
       <r>   -16.0287     0.0000    80.0000 </r>
       <r>   -15.9134     0.0000    80.0000 </r>
       <r>   -15.7980     0.0000    80.0000 </r>
       <r>   -15.6827     0.0000    80.0000 </r>
       <r>   -15.5673     0.0000    80.0000 </r>
       <r>   -15.4520     0.0000    80.0000 </r>
       <r>   -15.3366     0.0000    80.0000 </r>
       <r>   -15.2213     0.0000    80.0000 </r>
       <r>   -15.1060     0.0000    80.0000 </r>
       <r>   -14.9906     0.0000    80.0000 </r>
       <r>   -14.8753     0.0000    80.0000 </r>
       <r>   -14.7599     0.0000    80.0000 </r>
       <r>   -14.6446     0.0000    80.0000 </r>
       <r>   -14.5293     0.0000    80.0000 </r>
       <r>   -14.4139     0.0000    80.0000 </r>
       <r>   -14.2986     0.0000    80.0000 </r>
       <r>   -14.1832     0.0000    80.0000 </r>
       <r>   -14.0679     0.0000    80.0000 </r>
       <r>   -13.9526     0.0000    80.0000 </r>
       <r>   -13.8372     0.0000    80.0000 </r>
       <r>   -13.7219     0.0000    80.0000 </r>
       <r>   -13.6065     0.0000    80.0000 </r>
       <r>   -13.4912     0.0000    80.0000 </r>
       <r>   -13.3758     0.0000    80.0000 </r>
       <r>   -13.2605     0.0000    80.0000 </r>
       <r>   -13.1452     0.0000    80.0000 </r>
       <r>   -13.0298     0.0000    80.0000 </r>
       <r>   -12.9145     0.0000    80.0000 </r>
       <r>   -12.7991     0.0000    80.0000 </r>
       <r>   -12.6838     0.0000    80.0000 </r>
       <r>   -12.5685     0.0000    80.0000 </r>
       <r>   -12.4531     0.0000    80.0000 </r>
       <r>   -12.3378     0.0000    80.0000 </r>
       <r>   -12.2224    44.2681    85.1059 </r>
       <r>   -12.1071    34.2991    91.9561 </r>
       <r>   -11.9918     0.0000    92.0000 </r>
       <r>   -11.8764     0.0000    92.0000 </r>
       <r>   -11.7611     0.0000    92.0000 </r>
       <r>   -11.6457     0.0000    92.0000 </r>
       <r>   -11.5304     6.1232    92.7063 </r>
       <r>   -11.4151   201.1447   119.8502 </r>
       <r>   -11.2997   316.1328   168.6881 </r>
       <r>   -11.1844   272.2758   215.2046 </r>
       <r>   -11.0690   403.9063   272.5120 </r>
       <r>   -10.9537   108.3743   320.0000 </r>
       <r>   -10.8383     0.0000   320.0000 </r>
       <r>   -10.7230     0.0000   320.0000 </r>
       <r>   -10.6077     0.0000   320.0000 </r>
       <r>   -10.4923     0.0000   320.0000 </r>
       <r>   -10.3770     0.0000   320.0000 </r>
       <r>   -10.2616     0.0000   320.0000 </r>
       <r>   -10.1463     0.0000   320.0000 </r>
       <r>   -10.0310     0.0000   320.0000 </r>
       <r>    -9.9156     0.0000   320.0000 </r>
       <r>    -9.8003     0.0000   320.0000 </r>
       <r>    -9.6849     0.0000   320.0000 </r>
       <r>    -9.5696     0.0000   320.0000 </r>
       <r>    -9.4543     0.0000   320.0000 </r>
       <r>    -9.3389     0.0000   320.0000 </r>
       <r>    -9.2236     0.0000   320.0000 </r>
       <r>    -9.1082     2.0996   320.2422 </r>
       <r>    -8.9929    11.3519   322.0843 </r>
       <r>    -8.8775    44.3111   328.4359 </r>
       <r>    -8.7622   168.0751   355.9860 </r>
       <r>    -8.6469     0.0000   356.0000 </r>
       <r>    -8.5315     0.0000   356.0000 </r>
       <r>    -8.4162    20.0657   358.3144 </r>
       <r>    -8.3008     0.0000   360.0000 </r>
       <r>    -8.1855     0.0000   360.0000 </r>
       <r>    -8.0702     0.0000   360.0000 </r>
       <r>    -7.9548     0.0000   360.0000 </r>
       <r>    -7.8395     0.0000   360.0000 </r>
       <r>    -7.7241     0.0000   360.0000 </r>
       <r>    -7.6088     0.0000   360.0000 </r>
       <r>    -7.4935     0.0000   360.0000 </r>
       <r>    -7.3781     0.0000   360.0000 </r>
       <r>    -7.2628     0.0000   360.0000 </r>
       <r>    -7.1474     0.0000   360.0000 </r>
       <r>    -7.0321     0.0000   360.0000 </r>
       <r>    -6.9168     0.0000   360.0000 </r>
       <r>    -6.8014     0.0000   360.0000 </r>
       <r>    -6.6861     0.0000   360.0000 </r>
       <r>    -6.5707     0.0000   360.0000 </r>
       <r>    -6.4554     0.0000   360.0000 </r>
       <r>    -6.3400     0.0000   360.0000 </r>
       <r>    -6.2247     0.0000   360.0000 </r>
       <r>    -6.1094     0.0000   360.0000 </r>
       <r>    -5.9940     0.0000   360.0000 </r>
       <r>    -5.8787     0.0000   360.0000 </r>
       <r>    -5.7633     0.0000   360.0000 </r>
       <r>    -5.6480     0.0000   360.0000 </r>
       <r>    -5.5327     0.0000   360.0000 </r>
       <r>    -5.4173     0.0000   360.0000 </r>
       <r>    -5.3020     0.0000   360.0000 </r>
       <r>    -5.1866     0.0000   360.0000 </r>
       <r>    -5.0713     0.0000   360.0000 </r>
       <r>    -4.9560     0.0000   360.0000 </r>
       <r>    -4.8406     0.0000   360.0000 </r>
       <r>    -4.7253     0.0000   360.0000 </r>
       <r>    -4.6099     0.0000   360.0000 </r>
       <r>    -4.4946    12.6832   361.4629 </r>
       <r>    -4.3792    96.9351   375.8056 </r>
       <r>    -4.2639    60.8036   386.7381 </r>
       <r>    -4.1486    56.4830   395.2398 </r>
       <r>    -4.0332   172.8425   419.5108 </r>
       <r>    -3.9179   163.5883   448.1184 </r>
       <r>    -3.8025    75.9806   464.6387 </r>
       <r>    -3.6872    24.6116   470.1637 </r>
       <r>    -3.5719    54.9933   477.1930 </r>
       <r>    -3.4565     5.7100   478.5586 </r>
       <r>    -3.3412     0.0000   480.0000 </r>
       <r>    -3.2258     0.0000   480.0000 </r>
       <r>    -3.1105     0.0000   480.0000 </r>
       <r>    -2.9952     0.0000   480.0000 </r>
       <r>    -2.8798     0.0000   480.0000 </r>
       <r>    -2.7645     0.0000   480.0000 </r>
       <r>    -2.6491     0.0000   480.0000 </r>
       <r>    -2.5338     0.0000   480.0000 </r>
       <r>    -2.4185     0.0000   480.0000 </r>
       <r>    -2.3031     0.0000   480.0000 </r>
       <r>    -2.1878     0.0000   480.0000 </r>
       <r>    -2.0724     0.0000   480.0000 </r>
       <r>    -1.9571     0.0000   480.0000 </r>
       <r>    -1.8417     1.5054   480.1736 </r>
       <r>    -1.7264     2.6764   480.5587 </r>
       <r>    -1.6111     2.5693   480.9714 </r>
       <r>    -1.4957     2.9859   481.4944 </r>
       <r>    -1.3804     4.9694   482.1732 </r>
       <r>    -1.2650     5.8964   483.0301 </r>
       <r>    -1.1497     8.6660   484.6245 </r>
       <r>    -1.0344    13.7343   486.6841 </r>
       <r>    -0.9190    13.3625   488.7913 </r>
       <r>    -0.8037    47.2218   495.1966 </r>
       <r>    -0.6883    54.1844   504.2497 </r>
       <r>    -0.5730    51.7695   512.6962 </r>
       <r>    -0.4577    46.1904   521.2527 </r>
       <r>    -0.3423    62.4131   531.5988 </r>
       <r>    -0.2270    54.3158   539.6398 </r>
       <r>    -0.1116    61.6029   549.1553 </r>
       <r>     0.0037    81.4465   561.4441 </r>
       <r>     0.1191    95.8963   576.9108 </r>
       <r>     0.2344   107.5611   593.4812 </r>
       <r>     0.3497    93.5339   610.7133 </r>
       <r>     0.4651    90.0188   625.0829 </r>
       <r>     0.5804    66.3505   636.1029 </r>
       <r>     0.6958    98.5489   651.7167 </r>
       <r>     0.8111    81.0434   667.4726 </r>
       <r>     0.9264    51.7907   675.0986 </r>
       <r>     1.0418    66.6914   685.2173 </r>
       <r>     1.1571    53.5056   695.0214 </r>
       <r>     1.2725    63.7748   704.9808 </r>
       <r>     1.3878    51.4107   713.0548 </r>
       <r>     1.5031    23.3622   719.6196 </r>
       <r>     1.6185     2.1639   719.9996 </r>
       <r>     1.7338     0.0000   720.0000 </r>
       <r>     1.8492     0.0000   720.0000 </r>
       <r>     1.9645     0.0000   720.0000 </r>
       <r>     2.0798     0.0000   720.0000 </r>
       <r>     2.1952     0.0000   720.0000 </r>
       <r>     2.3105     0.0000   720.0000 </r>
       <r>     2.4259    15.8254   721.8253 </r>
       <r>     2.5412    33.3476   727.0213 </r>
       <r>     2.6566    39.1396   733.3894 </r>
       <r>     2.7719    42.4359   740.8446 </r>
       <r>     2.8872    51.9697   748.7692 </r>
       <r>     3.0026    60.8768   759.4716 </r>
       <r>     3.1179    59.2684   768.7111 </r>
       <r>     3.2333    51.9333   777.3900 </r>
       <r>     3.3486    60.3281   787.1833 </r>
       <r>     3.4639    52.5934   795.5662 </r>
       <r>     3.5793    54.0203   804.6058 </r>
       <r>     3.6946    59.6947   814.7602 </r>
       <r>     3.8100    50.3248   824.0795 </r>
       <r>     3.9253    44.9719   832.2371 </r>
       <r>     4.0406    65.7310   842.6065 </r>
       <r>     4.1560    58.0834   851.8744 </r>
       <r>     4.2713    38.1622   859.0517 </r>
       <r>     4.3867    21.2785   862.8043 </r>
       <r>     4.5020     4.8559   863.8851 </r>
       <r>     4.6174     0.4335   864.0000 </r>
       <r>     4.7327     0.0000   864.0000 </r>
       <r>     4.8480     0.0000   864.0000 </r>
       <r>     4.9634     0.0000   864.0000 </r>
       <r>     5.0787     0.0000   864.0000 </r>
       <r>     5.1941     0.0000   864.0000 </r>
       <r>     5.3094     0.0000   864.0000 </r>
       <r>     5.4247     0.0000   864.0000 </r>
       <r>     5.5401     0.0000   864.0000 </r>
       <r>     5.6554     0.0000   864.0000 </r>
       <r>     5.7708     0.0000   864.0000 </r>
       <r>     5.8861     0.0000   864.0000 </r>
       <r>     6.0014     0.0000   864.0000 </r>
       <r>     6.1168     0.0000   864.0000 </r>
      </set>
     </set>
    </array>
   </total>
  </dos>
 </calculation>
 <structure name="finalpos" >
  <crystal>
   <varray name="basis" >
    <v>      61.41372023       0.00000000       0.07765504 </v>
    <v>       0.00000000       6.69894496       0.00000000 </v>
    <v>       0.01476465       0.00000000      11.47764596 </v>
   </varray>
   <i name="volume">   4721.97772025 </i>
   <varray name="rec_basis" >
    <v>       0.01628303       0.00000000      -0.00002095 </v>
    <v>       0.00000000       0.14927724       0.00000000 </v>
    <v>      -0.00011017       0.00000000       0.08712602 </v>
   </varray>
  </crystal>
  <varray name="positions" >
   <v>       0.01580264       0.25000000       0.70613024 </v>
   <v>       0.15858030       0.25000000       0.69360340 </v>
   <v>       0.30438535       0.25000000       0.69253630 </v>
   <v>       0.45039873       0.25000000       0.69015906 </v>
   <v>       0.59640952       0.25000000       0.68874581 </v>
   <v>       0.15378756       0.75000002       0.31125419 </v>
   <v>       0.29979837       0.75000002       0.30984094 </v>
   <v>       0.44581175       0.75000002       0.30746370 </v>
   <v>       0.59161681       0.75000002       0.30639660 </v>
   <v>       0.73439447       0.75000002       0.29386976 </v>
   <v>       0.07925544       0.75000002       0.19672513 </v>
   <v>       0.22672224       0.75000002       0.19323250 </v>
   <v>       0.37278095       0.75000002       0.19113675 </v>
   <v>       0.51886366       0.75000002       0.18911395 </v>
   <v>       0.66424178       0.75000002       0.18844128 </v>
   <v>       0.08595533       0.25000000       0.81155870 </v>
   <v>       0.23133349       0.25000000       0.81088603 </v>
   <v>       0.37741615       0.25000000       0.80886323 </v>
   <v>       0.52347489       0.25000000       0.80676748 </v>
   <v>       0.67094170       0.25000000       0.80327485 </v>
   <v>       0.04172306       0.75000002       0.91579111 </v>
   <v>       0.17981376       0.75000002       0.90878349 </v>
   <v>       0.32538924       0.75000002       0.90671648 </v>
   <v>       0.47149919       0.75000002       0.90412249 </v>
   <v>       0.61814123       0.75000002       0.90314716 </v>
   <v>       0.13205582       0.25000000       0.09685282 </v>
   <v>       0.27869790       0.25000000       0.09587749 </v>
   <v>       0.42480785       0.25000000       0.09328350 </v>
   <v>       0.57038337       0.25000000       0.09121649 </v>
   <v>       0.70847406       0.25000000       0.08420887 </v>
   <v>       0.06069943       0.25000000       0.39935181 </v>
   <v>       0.20575682       0.25000000       0.40726737 </v>
   <v>       0.35172351       0.25000000       0.40634084 </v>
   <v>       0.49773568       0.25000000       0.40423138 </v>
   <v>       0.64322495       0.25000000       0.40089313 </v>
   <v>       0.10697211       0.75000002       0.59910691 </v>
   <v>       0.25246142       0.75000002       0.59576866 </v>
   <v>       0.39847358       0.75000002       0.59365920 </v>
   <v>       0.54444031       0.75000002       0.59273268 </v>
   <v>       0.68949770       0.75000002       0.60064823 </v>
   <v>       0.03698846       0.07148430       0.14895638 </v>
   <v>       0.18393006       0.07023662       0.14846196 </v>
   <v>       0.33010847       0.07020525       0.14687643 </v>
   <v>       0.47623553       0.06999548       0.14460111 </v>
   <v>       0.62131377       0.06971649       0.14223936 </v>
   <v>       0.12888335       0.93028350       0.85776062 </v>
   <v>       0.27396160       0.93000451       0.85539887 </v>
   <v>       0.42008862       0.92979475       0.85312355 </v>
   <v>       0.56626702       0.92976337       0.85153802 </v>
   <v>       0.71320861       0.92851569       0.85104360 </v>
   <v>       0.05559211       0.92849200       0.64546975 </v>
   <v>       0.20102563       0.92992505       0.64802174 </v>
   <v>       0.34700893       0.92988321       0.64691096 </v>
   <v>       0.49299133       0.92987699       0.64463675 </v>
   <v>       0.63910021       0.93068476       0.64286449 </v>
   <v>       0.11109693       0.06931523       0.35713551 </v>
   <v>       0.25720581       0.07012301       0.35536325 </v>
   <v>       0.40318817       0.07011678       0.35308904 </v>
   <v>       0.54917150       0.07007495       0.35197826 </v>
   <v>       0.69460495       0.07150800       0.35453025 </v>
   <v>       0.12888335       0.56971650       0.85776062 </v>
   <v>       0.27396160       0.56999549       0.85539887 </v>
   <v>       0.42008862       0.57020525       0.85312355 </v>
   <v>       0.56626702       0.57023663       0.85153802 </v>
   <v>       0.71320861       0.57148431       0.85104360 </v>
   <v>       0.03698846       0.42851569       0.14895638 </v>
   <v>       0.18393006       0.42976337       0.14846196 </v>
   <v>       0.33010847       0.42979475       0.14687643 </v>
   <v>       0.47623553       0.43000451       0.14460111 </v>
   <v>       0.62131377       0.43028350       0.14223936 </v>
   <v>       0.11109693       0.43068476       0.35713551 </v>
   <v>       0.25720581       0.42987699       0.35536325 </v>
   <v>       0.40318817       0.42988321       0.35308904 </v>
   <v>       0.54917150       0.42992505       0.35197826 </v>
   <v>       0.69460495       0.42849200       0.35453025 </v>
   <v>       0.05559211       0.57150800       0.64546975 </v>
   <v>       0.20102563       0.57007495       0.64802174 </v>
   <v>       0.34700893       0.57011679       0.64691096 </v>
   <v>       0.49299133       0.57012301       0.64463675 </v>
   <v>       0.63910021       0.56931524       0.64286449 </v>
   <v>       0.02110736       0.75000002       0.62440332 </v>
   <v>       0.16834405       0.75000002       0.59384664 </v>
   <v>       0.31430107       0.75000002       0.59268291 </v>
   <v>       0.46027688       0.75000002       0.59027185 </v>
   <v>       0.60652256       0.75000002       0.58821585 </v>
   <v>       0.14367452       0.25000000       0.41178415 </v>
   <v>       0.28992025       0.25000000       0.40972815 </v>
   <v>       0.43589606       0.25000000       0.40731709 </v>
   <v>       0.58185306       0.25000000       0.40615336 </v>
   <v>       0.72908975       0.25000000       0.37559668 </v>
   <v>       0.07035982       0.25000000       0.08633127 </v>
   <v>       0.21666576       0.25000000       0.09369080 </v>
   <v>       0.36282041       0.25000000       0.09174380 </v>
   <v>       0.50892908       0.25000000       0.08964579 </v>
   <v>       0.65378531       0.25000000       0.08730652 </v>
   <v>       0.09641181       0.75000002       0.91269346 </v>
   <v>       0.24126807       0.75000002       0.91035419 </v>
   <v>       0.38737668       0.75000002       0.90825618 </v>
   <v>       0.53353140       0.75000002       0.90630918 </v>
   <v>       0.67983733       0.75000002       0.91366871 </v>
   <v>       0.03734066       0.25000000       0.96653880 </v>
   <v>       0.18452840       0.25000000       0.96681840 </v>
   <v>       0.33070800       0.25000000       0.96500585 </v>
   <v>       0.47679967       0.25000000       0.96277325 </v>
   <v>       0.62246134       0.25000000       0.95987965 </v>
   <v>       0.12773573       0.75000002       0.04012036 </v>
   <v>       0.27339743       0.75000002       0.03722677 </v>
   <v>       0.41948913       0.75000002       0.03499417 </v>
   <v>       0.56566873       0.75000002       0.03318162 </v>
   <v>       0.71285645       0.75000002       0.03346121 </v>
   <v>       0.04761995       0.75000002       0.46587934 </v>
   <v>       0.20053091       0.75000002       0.46626376 </v>
   <v>       0.34648989       0.75000002       0.46515515 </v>
   <v>       0.49246338       0.75000002       0.46290676 </v>
   <v>       0.63866126       0.75000002       0.46103567 </v>
   <v>       0.11153585       0.25000000       0.53896425 </v>
   <v>       0.25773375       0.25000000       0.53709316 </v>
   <v>       0.40370720       0.25000000       0.53484477 </v>
   <v>       0.54966617       0.25000000       0.53373616 </v>
   <v>       0.70257719       0.25000000       0.53412058 </v>
  </varray>
 </structure>
</modeling>
