 vasp.5.4.4.18Apr17-6-g9f103f2a35 (build Nov 21 2017 15:30:27) complex          
  
 executed on             LinuxIFC date 2020.12.16  16:16:20
 running on   64 total cores
 distrk:  each k-point on   32 cores,    2 groups
 distr:  one band on NCORES_PER_BAND=   4 cores,    8 groups


--------------------------------------------------------------------------------------------------------


 INCAR:
 POTCAR:   PAW_PBE Ba_sv 06Sep2000                
 POTCAR:   PAW_PBE Ge 05Jan2001                   

 ----------------------------------------------------------------------------- 
|                                                                             |
|           W    W    AA    RRRRR   N    N  II  N    N   GGGG   !!!           |
|           W    W   A  A   R    R  NN   N  II  NN   N  G    G  !!!           |
|           W    W  A    A  R    R  N N  N  II  N N  N  G       !!!           |
|           W WW W  AAAAAA  RRRRR   N  N N  II  N  N N  G  GGG   !            |
|           WW  WW  A    A  R   R   N   NN  II  N   NN  G    G                |
|           W    W  A    A  R    R  N    N  II  N    N   GGGG   !!!           |
|                                                                             |
|      You have enabled k-point parallelism (KPAR>1).                         |
|      This developmental code was originally  written by Paul Kent at ORNL,  |
|      and carefully double checked in Vienna.                                |
|      GW as well as linear response parallelism added by Martijn Marsman     |
|      and Georg Kresse.                                                      |
|      Carefully verify results versus KPAR=1.                                |
|      Report problems to Paul Kent and Vienna.                               |
|                                                                             |
 ----------------------------------------------------------------------------- 

 POTCAR:   PAW_PBE Ba_sv 06Sep2000                
   VRHFIN =Ba: 5s5p6s                                                           
   LEXCH  = PE                                                                  
   EATOM  =   700.2255 eV,   51.4651 Ry                                         
                                                                                
   TITEL  = PAW_PBE Ba_sv 06Sep2000                                             
   LULTRA =        F    use ultrasoft PP ?                                      
   IUNSCR =        1    unscreen: 0-lin 1-nonlin 2-no                           
   RPACOR =    2.400    partial core radius                                     
   POMASS =  137.327; ZVAL   =   10.000    mass and valenz                      
   RCORE  =    2.800    outmost cutoff radius                                   
   RWIGS  =    3.740; RWIGS  =    1.979    wigner-seitz radius (au A)           
   ENMAX  =  187.210; ENMIN  =  140.408 eV                                      
   RCLOC  =    2.516    cutoff for local pot                                    
   LCOR   =        T    correct aug charges                                     
   LPAW   =        T    paw PP                                                  
   EAUG   =  351.165                                                            
   DEXC   =     .000                                                            
   RMAX   =    3.370    core radius for proj-oper                               
   RAUG   =    1.300    factor for augmentation sphere                          
   RDEP   =    2.976    radius for radial grids                                 
   QCUT   =   -3.709; QGAM   =    7.419    optimization parameters              
                                                                                
   Description                                                                  
     l     E      TYP  RCUT    TYP  RCUT                                        
     0   .000     23  2.800                                                     
     0   .000     23  2.800                                                     
     1   .000     23  2.700                                                     
     1  2.000     23  2.700                                                     
     2   .000     23  2.700                                                     
     2   .000     23  2.700                                                     
  local pseudopotential read in
  partial core-charges read in
  atomic valenz-charges read in
  non local Contribution for L=           0  read in
    real space projection operators read in
  non local Contribution for L=           0  read in
    real space projection operators read in
  non local Contribution for L=           1  read in
    real space projection operators read in
  non local Contribution for L=           1  read in
    real space projection operators read in
  non local Contribution for L=           2  read in
    real space projection operators read in
  non local Contribution for L=           2  read in
    real space projection operators read in
    PAW grid and wavefunctions read in
 
   number of l-projection  operators is LMAX  =           6
   number of lm-projection operators is LMMAX =          18
 
 POTCAR:   PAW_PBE Ge 05Jan2001                   
   VRHFIN =Ge: s2p2                                                             
   LEXCH  = PE                                                                  
   EATOM  =   104.9960 eV,    7.7170 Ry                                         
                                                                                
   TITEL  = PAW_PBE Ge 05Jan2001                                                
   LULTRA =        F    use ultrasoft PP ?                                      
   IUNSCR =        1    unscreen: 0-lin 1-nonlin 2-no                           
   RPACOR =    2.170    partial core radius                                     
   POMASS =   72.610; ZVAL   =    4.000    mass and valenz                      
   RCORE  =    2.300    outmost cutoff radius                                   
   RWIGS  =    2.300; RWIGS  =    1.217    wigner-seitz radius (au A)           
   ENMAX  =  173.807; ENMIN  =  130.355 eV                                      
   ICORE  =        3    local potential                                         
   LCOR   =        T    correct aug charges                                     
   LPAW   =        T    paw PP                                                  
   EAUG   =  385.843                                                            
   DEXC   =    -.138                                                            
   RMAX   =    3.497    core radius for proj-oper                               
   RAUG   =    1.300    factor for augmentation sphere                          
   RDEP   =    2.318    radius for radial grids                                 
   QCUT   =   -3.574; QGAM   =    7.148    optimization parameters              
                                                                                
   Description                                                                  
     l     E      TYP  RCUT    TYP  RCUT                                        
     0   .000     23  2.300                                                     
     0   .000     23  2.300                                                     
     1   .000     23  2.300                                                     
     1   .000     23  2.300                                                     
     2   .000     23  2.300                                                     
     3  -.100      7  2.300                                                     
  local pseudopotential read in
  partial core-charges read in
  atomic valenz-charges read in
  non local Contribution for L=           0  read in
    real space projection operators read in
  non local Contribution for L=           0  read in
    real space projection operators read in
  non local Contribution for L=           1  read in
    real space projection operators read in
  non local Contribution for L=           1  read in
    real space projection operators read in
  non local Contribution for L=           2  read in
    real space projection operators read in
    PAW grid and wavefunctions read in
 
   number of l-projection  operators is LMAX  =           5
   number of lm-projection operators is LMMAX =          13
 
 Optimization of the real space projectors (new method)

 maximal supplied QI-value         = 13.42
 optimisation between [QCUT,QGAM] = [ 11.40, 22.81] = [ 36.42,145.68] Ry 
 Optimized for a Real-space Cutoff    1.56 Angstroem

   l    n(q)    QCUT    max X(q) W(low)/X(q) W(high)/X(q)  e(spline) 
   0     11    11.404     7.198    0.14E-04    0.26E-04    0.99E-07
   0     11    11.404    15.603    0.29E-04    0.72E-04    0.44E-06
   1     10    11.404     3.746    0.20E-04    0.24E-04    0.43E-07
   1     10    11.404     4.362    0.22E-03    0.97E-04    0.22E-06
   2     10    11.404     5.782    0.83E-04    0.62E-05    0.27E-06
   2     10    11.404    65.505    0.42E-03    0.31E-04    0.12E-05
 Optimization of the real space projectors (new method)

 maximal supplied QI-value         = 16.25
 optimisation between [QCUT,QGAM] = [ 11.38, 22.75] = [ 36.24,144.96] Ry 
 Optimized for a Real-space Cutoff    1.27 Angstroem

   l    n(q)    QCUT    max X(q) W(low)/X(q) W(high)/X(q)  e(spline) 
   0      9    11.376     8.651    0.25E-04    0.12E-04    0.13E-07
   0      9    11.376    33.192    0.14E-03    0.18E-03    0.86E-07
   1      8    11.376     5.899    0.25E-04    0.48E-04    0.38E-07
   1      8    11.376    27.289    0.31E-03    0.36E-04    0.16E-06
   2      8    11.376     4.673    0.15E-03    0.22E-03    0.50E-07
 PAW_PBE Ba_sv 06Sep2000                :
 energy of atom  1       EATOM= -700.2255
 kinetic energy error for atom=    0.0005 (will be added to EATOM!!)
 PAW_PBE Ge 05Jan2001                   :
 energy of atom  2       EATOM= -104.9960
 kinetic energy error for atom=    0.0002 (will be added to EATOM!!)
 
 
 POSCAR: ba8 ge16                                
  positions in cartesian coordinates
  No initial velocities read in
 exchange correlation table for  LEXCH =        8
   RHO(1)=    0.500       N(1)  =     2000
   RHO(2)=  100.500       N(2)  =     4000
 


--------------------------------------------------------------------------------------------------------


 ion  position               nearest neighbor table
   1  0.015  0.250  0.691-  24 3.40  18 3.40  13 3.45  10 3.45  16 3.45  11 3.45  21 3.60  17 3.63
                            17 3.63   5 4.41   5 4.41   7 4.42   4 4.71   4 4.71
   2  0.985  0.750  0.309-  23 3.40  17 3.40   9 3.45  14 3.45  12 3.45  15 3.45  22 3.60  18 3.63
                            18 3.63   6 4.41   6 4.41   8 4.42   3 4.71   3 4.71
   3  0.485  0.750  0.191-  22 3.40  20 3.40  12 3.45  15 3.45   9 3.45  14 3.45  23 3.60  19 3.63
                            19 3.63   7 4.41   7 4.41   5 4.42   2 4.71   2 4.71
   4  0.515  0.250  0.809-  21 3.40  19 3.40  16 3.45  11 3.45  13 3.45  10 3.45  24 3.60  20 3.63
                            20 3.63   8 4.41   8 4.41   6 4.42   1 4.71   1 4.71
   5  0.159  0.750  0.907-  10 3.46  13 3.46  21 3.48  21 3.48  11 3.50  16 3.50  22 3.54   9 3.55
                            14 3.55  17 3.71  20 3.82   1 4.41   1 4.41   3 4.42
   6  0.841  0.250  0.093-  14 3.46   9 3.46  22 3.48  22 3.48  15 3.50  12 3.50  21 3.54  13 3.55
                            10 3.55  18 3.71  19 3.82   2 4.41   2 4.41   4 4.42
   7  0.341  0.250  0.407-  15 3.46  12 3.46  23 3.48  23 3.48  14 3.50   9 3.50  24 3.54  16 3.55
                            11 3.55  19 3.71  18 3.82   3 4.41   3 4.41   1 4.42
   8  0.659  0.750  0.593-  11 3.46  16 3.46  24 3.48  24 3.48  10 3.50  13 3.50  23 3.54  12 3.55
                            15 3.55  20 3.71  17 3.82   4 4.41   4 4.41   2 4.42
   9  0.194  0.073  0.147-  14 2.41  21 2.41  19 2.42   2 3.45   3 3.45   6 3.46   7 3.50   5 3.55

  10  0.806  0.927  0.853-  13 2.41  22 2.41  20 2.42   1 3.45   4 3.45   5 3.46   8 3.50   6 3.55

  11  0.306  0.927  0.647-  16 2.41  23 2.41  17 2.42   4 3.45   1 3.45   8 3.46   5 3.50   7 3.55

  12  0.694  0.073  0.353-  15 2.41  24 2.41  18 2.42   3 3.45   2 3.45   7 3.46   6 3.50   8 3.55

  13  0.806  0.573  0.853-  10 2.41  22 2.41  20 2.42   1 3.45   4 3.45   5 3.46   8 3.50   6 3.55

  14  0.194  0.427  0.147-   9 2.41  21 2.41  19 2.42   2 3.45   3 3.45   6 3.46   7 3.50   5 3.55

  15  0.694  0.427  0.353-  12 2.41  24 2.41  18 2.42   3 3.45   2 3.45   7 3.46   6 3.50   8 3.55

  16  0.306  0.573  0.647-  11 2.41  23 2.41  17 2.42   4 3.45   1 3.45   8 3.46   5 3.50   7 3.55

  17  0.083  0.750  0.592-  11 2.42  16 2.42  23 2.45   2 3.40   1 3.63   1 3.63   5 3.71   8 3.82

  18  0.917  0.250  0.408-  15 2.42  12 2.42  24 2.45   1 3.40   2 3.63   2 3.63   6 3.71   7 3.82

  19  0.417  0.250  0.092-  14 2.42   9 2.42  21 2.45   4 3.40   3 3.63   3 3.63   7 3.71   6 3.82

  20  0.583  0.750  0.908-  10 2.42  13 2.42  22 2.45   3 3.40   4 3.63   4 3.63   8 3.71   5 3.82

  21  0.198  0.250  0.967-  14 2.41   9 2.41  19 2.45   4 3.40   5 3.48   5 3.48   6 3.54   1 3.60

  22  0.802  0.750  0.033-  10 2.41  13 2.41  20 2.45   3 3.40   6 3.48   6 3.48   5 3.54   2 3.60

  23  0.302  0.750  0.467-  11 2.41  16 2.41  17 2.45   2 3.40   7 3.48   7 3.48   8 3.54   3 3.60

  24  0.698  0.250  0.533-  15 2.41  12 2.41  18 2.45   1 3.40   8 3.48   8 3.48   7 3.54   4 3.60

 
  LATTYP: Found a simple orthorhombic cell.
 ALAT       =     6.7778496742
 B/A-ratio  =     1.3292516818
 C/A-ratio  =     1.7117734747
  
  Lattice vectors:
  
 A1 = (   0.0000000000,  -6.7778496742,   0.0000000000)
 A2 = (  -9.0094680786,   0.0000000000,   0.0000000000)
 A3 = (   0.0000000000,   0.0000000000, -11.6021432877)


Analysis of symmetry for initial positions (statically):
=====================================================================
 Subroutine PRICEL returns:
 Original cell was already a primitive cell.
 

 Routine SETGRP: Setting up the symmetry group for a 
 simple orthorhombic supercell.


 Subroutine GETGRP returns: Found  8 space group operations
 (whereof  2 operations were pure point group operations)
 out of a pool of  8 trial point group operations.


The static configuration has the point symmetry S_2 .
 The point group associated with its full space group is D_2h.


Analysis of symmetry for dynamics (positions and initial velocities):
=====================================================================
 Subroutine PRICEL returns:
 Original cell was already a primitive cell.
 

 Routine SETGRP: Setting up the symmetry group for a 
 simple orthorhombic supercell.


 Subroutine GETGRP returns: Found  8 space group operations
 (whereof  2 operations were pure point group operations)
 out of a pool of  8 trial point group operations.


The dynamic configuration has the point symmetry S_2 .
 The point group associated with its full space group is D_2h.


 Subroutine INISYM returns: Found  8 space group operations
 (whereof  2 operations are pure point group operations),
 and found     1 'primitive' translations

 
 
 KPOINTS: k-density: 6.0                          

Automatic generation of k-mesh.
Space group operators:
 irot       det(A)        alpha          n_x          n_y          n_z        tau_x        tau_y        tau_z
    1     1.000000     0.000000     1.000000     0.000000     0.000000     0.000000     0.000000     0.000000
    2    -1.000000     0.000000     1.000000     0.000000     0.000000     0.000000     0.000000     0.000000
    3     1.000000   180.000000     0.000000     0.000000     1.000000    -0.500000     0.000000    -0.500000
    4    -1.000000   180.000000     0.000000     0.000000     1.000000    -0.500000     0.000000    -0.500000
    5     1.000000   180.000000     1.000000     0.000000     0.000000    -0.500000    -0.500000    -0.500000
    6    -1.000000   180.000000     1.000000     0.000000     0.000000    -0.500000    -0.500000    -0.500000
    7     1.000000   180.000000     0.000000     1.000000     0.000000    -0.000000    -0.500000    -0.000000
    8    -1.000000   180.000000     0.000000     1.000000     0.000000     0.000000    -0.500000     0.000000
 
 Subroutine IBZKPT returns following result:
 ===========================================
 
 Found     36 irreducible k-points:
 
 Following reciprocal coordinates:
            Coordinates               Weight
  0.000000  0.000000  0.000000      1.000000
  0.200000  0.000000  0.000000      2.000000
  0.400000  0.000000  0.000000      2.000000
  0.000000  0.166667  0.000000      2.000000
  0.200000  0.166667  0.000000      4.000000
  0.400000  0.166667  0.000000      4.000000
  0.000000  0.333333  0.000000      2.000000
  0.200000  0.333333  0.000000      4.000000
  0.400000  0.333333  0.000000      4.000000
  0.000000  0.500000  0.000000      1.000000
  0.200000  0.500000  0.000000      2.000000
  0.400000  0.500000  0.000000      2.000000
  0.000000  0.000000  0.250000      2.000000
  0.200000  0.000000  0.250000      4.000000
  0.400000  0.000000  0.250000      4.000000
  0.000000  0.166667  0.250000      4.000000
  0.200000  0.166667  0.250000      8.000000
  0.400000  0.166667  0.250000      8.000000
  0.000000  0.333333  0.250000      4.000000
  0.200000  0.333333  0.250000      8.000000
  0.400000  0.333333  0.250000      8.000000
  0.000000  0.500000  0.250000      2.000000
  0.200000  0.500000  0.250000      4.000000
  0.400000  0.500000  0.250000      4.000000
  0.000000  0.000000  0.500000      1.000000
  0.200000  0.000000  0.500000      2.000000
  0.400000  0.000000  0.500000      2.000000
  0.000000  0.166667  0.500000      2.000000
  0.200000  0.166667  0.500000      4.000000
  0.400000  0.166667  0.500000      4.000000
  0.000000  0.333333  0.500000      2.000000
  0.200000  0.333333  0.500000      4.000000
  0.400000  0.333333  0.500000      4.000000
  0.000000  0.500000  0.500000      1.000000
  0.200000  0.500000  0.500000      2.000000
  0.400000  0.500000  0.500000      2.000000
 
 Following cartesian coordinates:
            Coordinates               Weight
  0.000000  0.000000  0.000000      1.000000
  0.022199  0.000000  0.000000      2.000000
  0.044398  0.000000  0.000000      2.000000
  0.000000  0.024590  0.000000      2.000000
  0.022199  0.024590  0.000000      4.000000
  0.044398  0.024590  0.000000      4.000000
  0.000000  0.049180  0.000000      2.000000
  0.022199  0.049180  0.000000      4.000000
  0.044398  0.049180  0.000000      4.000000
  0.000000  0.073770  0.000000      1.000000
  0.022199  0.073770  0.000000      2.000000
  0.044398  0.073770  0.000000      2.000000
  0.000000  0.000000  0.021548      2.000000
  0.022199  0.000000  0.021548      4.000000
  0.044398  0.000000  0.021548      4.000000
  0.000000  0.024590  0.021548      4.000000
  0.022199  0.024590  0.021548      8.000000
  0.044398  0.024590  0.021548      8.000000
  0.000000  0.049180  0.021548      4.000000
  0.022199  0.049180  0.021548      8.000000
  0.044398  0.049180  0.021548      8.000000
  0.000000  0.073770  0.021548      2.000000
  0.022199  0.073770  0.021548      4.000000
  0.044398  0.073770  0.021548      4.000000
  0.000000  0.000000  0.043095      1.000000
  0.022199  0.000000  0.043095      2.000000
  0.044398  0.000000  0.043095      2.000000
  0.000000  0.024590  0.043095      2.000000
  0.022199  0.024590  0.043095      4.000000
  0.044398  0.024590  0.043095      4.000000
  0.000000  0.049180  0.043095      2.000000
  0.022199  0.049180  0.043095      4.000000
  0.044398  0.049180  0.043095      4.000000
  0.000000  0.073770  0.043095      1.000000
  0.022199  0.073770  0.043095      2.000000
  0.044398  0.073770  0.043095      2.000000
 
 TETIRR: Found    360 inequivalent tetrahedra from      720


--------------------------------------------------------------------------------------------------------




 Dimension of arrays:
   k-points           NKPTS =     36   k-points in BZ     NKDIM =     36   number of bands    NBANDS=     88
   number of dos      NEDOS =    301   number of ions     NIONS =     24
   non local maximal  LDIM  =      6   non local SUM 2l+1 LMDIM =     18
   total plane-waves  NPLWV = 128000
   max r-space proj   IRMAX =   2946   max aug-charges    IRDMAX=  11507
   dimension x,y,z NGX =    50 NGY =   40 NGZ =   64
   dimension x,y,z NGXF=   100 NGYF=   80 NGZF=  128
   support grid    NGXF=   100 NGYF=   80 NGZF=  128
   ions per type =               8  16
   NGX,Y,Z   is equivalent  to a cutoff of   9.23,  9.81,  9.17 a.u.
   NGXF,Y,Z  is equivalent  to a cutoff of  18.45, 19.62, 18.34 a.u.

 SYSTEM =  unknown system                          
 POSCAR =  ba8 ge16                                

 Startparameter for this run:
   NWRITE =      2    write-flag & timer
   PREC   = normal    normal or accurate (medium, high low for compatibility)
   ISTART =      0    job   : 0-new  1-cont  2-samecut
   ICHARG =      2    charge: 1-file 2-atom 10-const
   ISPIN  =      1    spin polarized calculation?
   LNONCOLLINEAR =      F non collinear calculations
   LSORBIT =      F    spin-orbit coupling
   INIWAV =      1    electr: 0-lowe 1-rand  2-diag
   LASPH  =      F    aspherical Exc in radial PAW
   METAGGA=      F    non-selfconsistent MetaGGA calc.

 Electronic Relaxation 1
   ENCUT  =  500.0 eV  36.75 Ry    6.06 a.u.  16.43 12.36 21.15*2*pi/ulx,y,z
   ENINI  =  500.0     initial cutoff
   ENAUG  =  385.8 eV  augmentation charge cutoff
   NELM   =    100;   NELMIN=  2; NELMDL= -5     # of ELM steps 
   EDIFF  = 0.1E-05   stopping-criterion for ELM
   LREAL  =      T    real-space projection
   NLSPLINE    = F    spline interpolate recip. space projectors
   LCOMPAT=      F    compatible to vasp.4.4
   GGA_COMPAT  = T    GGA compatible to vasp.4.4-vasp.4.6
   LMAXPAW     = -100 max onsite density
   LMAXMIX     =    2 max onsite mixed and CHGCAR
   VOSKOWN=      0    Vosko Wilk Nusair interpolation
   ROPT   =   -0.00050  -0.00050
 Ionic relaxation
   EDIFFG = -.1E-01   stopping-criterion for IOM
   NSW    =    200    number of steps for IOM
   NBLOCK =      1;   KBLOCK =    200    inner block; outer block 
   IBRION =      2    ionic relax: 0-MD 1-quasi-New 2-CG
   NFREE  =      1    steps in history (QN), initial steepest desc. (CG)
   ISIF   =      3    stress and relaxation
   IWAVPR =     11    prediction:  0-non 1-charg 2-wave 3-comb
   ISYM   =      2    0-nonsym 1-usesym 2-fastsym
   LCORR  =      T    Harris-Foulkes like correction to forces

   POTIM  = 0.5000    time-step for ionic-motion
   TEIN   =    0.0    initial temperature
   TEBEG  =    0.0;   TEEND  =   0.0 temperature during run
   SMASS  =  -3.00    Nose mass-parameter (am)
   estimated Nose-frequenzy (Omega)   =  0.10E-29 period in steps =****** mass=  -0.185E-26a.u.
   SCALEE = 1.0000    scale energy and forces
   NPACO  =    256;   APACO  = 16.0  distance and # of slots for P.C.
   PSTRESS=    0.0 pullay stress

  Mass of Ions in am
   POMASS = 137.33 72.61
  Ionic Valenz
   ZVAL   =  10.00  4.00
  Atomic Wigner-Seitz radii
   RWIGS  =  -1.00 -1.00
  virtual crystal weights 
   VCA    =   1.00  1.00
   NELECT =     144.0000    total number of electrons
   NUPDOWN=      -1.0000    fix difference up-down

 DOS related values:
   EMIN   =  10.00;   EMAX   =-10.00  energy-range for DOS
   EFERMI =   0.00
   ISMEAR =    -5;   SIGMA  =   0.01  broadening in eV -4-tet -1-fermi 0-gaus

 Electronic relaxation 2 (details)
   IALGO  =     38    algorithm
   LDIAG  =      T    sub-space diagonalisation (order eigenvalues)
   LSUBROT=      F    optimize rotation matrix (better conditioning)
   TURBO    =      0    0=normal 1=particle mesh
   IRESTART =      0    0=no restart 2=restart with 2 vectors
   NREBOOT  =      0    no. of reboots
   NMIN     =      0    reboot dimension
   EREF     =   0.00    reference energy to select bands
   IMIX   =      4    mixing-type and parameters
     AMIX     =   0.40;   BMIX     =  1.00
     AMIX_MAG =   1.60;   BMIX_MAG =  1.00
     AMIN     =   0.10
     WC   =   100.;   INIMIX=   1;  MIXPRE=   1;  MAXMIX= -45

 Intra band minimization:
   WEIMIN = 0.0010     energy-eigenvalue tresh-hold
   EBREAK =  0.28E-08  absolut break condition
   DEPER  =   0.30     relativ break condition  

   TIME   =   0.40     timestep for ELM

  volume/ion in A,a.u.               =      29.52       199.21
  Fermi-wavevector in a.u.,A,eV,Ry     =   0.962541  1.818939 12.605595  0.926485
  Thomas-Fermi vector in A             =   2.092009
 
 Write flags
   LWAVE        =      T    write WAVECAR
   LDOWNSAMPLE  =      F    k-point downsampling of WAVECAR
   LCHARG       =      T    write CHGCAR
   LVTOT        =      F    write LOCPOT, total local potential
   LVHAR        =      F    write LOCPOT, Hartree potential only
   LELF         =      F    write electronic localiz. function (ELF)
   LORBIT       =      0    0 simple, 1 ext, 2 COOP (PROOUT), +10 PAW based schemes


 Dipole corrections
   LMONO  =      F    monopole corrections only (constant potential shift)
   LDIPOL =      F    correct potential (dipole corrections)
   IDIPOL =      0    1-x, 2-y, 3-z, 4-all directions 
   EPSILON=  1.0000000 bulk dielectric constant

 Exchange correlation treatment:
   GGA     =    --    GGA type
   LEXCH   =     8    internal setting for exchange type
   VOSKOWN=      0    Vosko Wilk Nusair interpolation
   LHFCALC =     F    Hartree Fock is set to
   LHFONE  =     F    Hartree Fock one center treatment
   AEXX    =    0.0000 exact exchange contribution

 Linear response parameters
   LEPSILON=     F    determine dielectric tensor
   LRPA    =     F    only Hartree local field effects (RPA)
   LNABLA  =     F    use nabla operator in PAW spheres
   LVEL    =     F    velocity operator in full k-point grid
   LINTERFAST=   F  fast interpolation
   KINTER  =     0    interpolate to denser k-point grid
   CSHIFT  =0.1000    complex shift for real part using Kramers Kronig
   OMEGAMAX=  -1.0    maximum frequency
   DEG_THRESHOLD= 0.2000000E-02 threshold for treating states as degnerate
   RTIME   =   -0.100 relaxation time in fs
  (WPLASMAI=    0.000 imaginary part of plasma frequency in eV, 0.658/RTIME)
   DFIELD  = 0.0000000 0.0000000 0.0000000 field for delta impulse in time
 
 Orbital magnetization related:
   ORBITALMAG=     F  switch on orbital magnetization
   LCHIMAG   =     F  perturbation theory with respect to B field
   DQ        =  0.001000  dq finite difference perturbation B field
   LLRAUG    =     F  two centre corrections for induced B field



--------------------------------------------------------------------------------------------------------


 conjugate gradient relaxation of ions
 charge density and potential will be updated during run
 non-spin polarized calculation
 Variant of blocked Davidson
 Davidson routine will perform the subspace rotation
 perform sub-space diagonalisation
    after iterative eigenvector-optimisation
 modified Broyden-mixing scheme, WC =      100.0
 initial mixing is a Kerker type mixing with AMIX =  0.4000 and BMIX =      1.0000
 Hartree-type preconditioning will be used
 using additional bands           16
 real space projection scheme for non local part
 use partial core corrections
 calculate Harris-corrections to forces 
   (improved forces if not selfconsistent)
 use gradient corrections 
 use of overlap-Matrix (Vanderbilt PP)
 Fermi weights with tetrahedron method with Bloechl corrections


--------------------------------------------------------------------------------------------------------


  energy-cutoff  :      500.00
  volume of cell :      708.48
      direct lattice vectors                 reciprocal lattice vectors
     9.009468079  0.000000000  0.000000000     0.110994344  0.000000000  0.000000000
     0.000000000  6.777849674  0.000000000     0.000000000  0.147539419  0.000000000
     0.000000000  0.000000000 11.602143288     0.000000000  0.000000000  0.086190971

  length of vectors
     9.009468079  6.777849674 11.602143288     0.110994344  0.147539419  0.086190971


 
 k-points in units of 2pi/SCALE and weight: k-density: 6.0                          
   0.00000000  0.00000000  0.00000000       0.008
   0.02219887  0.00000000  0.00000000       0.017
   0.04439774  0.00000000  0.00000000       0.017
   0.00000000  0.02458990  0.00000000       0.017
   0.02219887  0.02458990  0.00000000       0.033
   0.04439774  0.02458990  0.00000000       0.033
   0.00000000  0.04917981  0.00000000       0.017
   0.02219887  0.04917981  0.00000000       0.033
   0.04439774  0.04917981  0.00000000       0.033
   0.00000000  0.07376971  0.00000000       0.008
   0.02219887  0.07376971  0.00000000       0.017
   0.04439774  0.07376971  0.00000000       0.017
   0.00000000  0.00000000  0.02154774       0.017
   0.02219887  0.00000000  0.02154774       0.033
   0.04439774  0.00000000  0.02154774       0.033
   0.00000000  0.02458990  0.02154774       0.033
   0.02219887  0.02458990  0.02154774       0.067
   0.04439774  0.02458990  0.02154774       0.067
   0.00000000  0.04917981  0.02154774       0.033
   0.02219887  0.04917981  0.02154774       0.067
   0.04439774  0.04917981  0.02154774       0.067
   0.00000000  0.07376971  0.02154774       0.017
   0.02219887  0.07376971  0.02154774       0.033
   0.04439774  0.07376971  0.02154774       0.033
   0.00000000  0.00000000  0.04309549       0.008
   0.02219887  0.00000000  0.04309549       0.017
   0.04439774  0.00000000  0.04309549       0.017
   0.00000000  0.02458990  0.04309549       0.017
   0.02219887  0.02458990  0.04309549       0.033
   0.04439774  0.02458990  0.04309549       0.033
   0.00000000  0.04917981  0.04309549       0.017
   0.02219887  0.04917981  0.04309549       0.033
   0.04439774  0.04917981  0.04309549       0.033
   0.00000000  0.07376971  0.04309549       0.008
   0.02219887  0.07376971  0.04309549       0.017
   0.04439774  0.07376971  0.04309549       0.017
 
 k-points in reciprocal lattice and weights: k-density: 6.0                          
   0.00000000  0.00000000  0.00000000       0.008
   0.20000000  0.00000000  0.00000000       0.017
   0.40000000  0.00000000  0.00000000       0.017
   0.00000000  0.16666667  0.00000000       0.017
   0.20000000  0.16666667  0.00000000       0.033
   0.40000000  0.16666667  0.00000000       0.033
   0.00000000  0.33333333  0.00000000       0.017
   0.20000000  0.33333333  0.00000000       0.033
   0.40000000  0.33333333  0.00000000       0.033
   0.00000000  0.50000000  0.00000000       0.008
   0.20000000  0.50000000  0.00000000       0.017
   0.40000000  0.50000000  0.00000000       0.017
   0.00000000  0.00000000  0.25000000       0.017
   0.20000000  0.00000000  0.25000000       0.033
   0.40000000  0.00000000  0.25000000       0.033
   0.00000000  0.16666667  0.25000000       0.033
   0.20000000  0.16666667  0.25000000       0.067
   0.40000000  0.16666667  0.25000000       0.067
   0.00000000  0.33333333  0.25000000       0.033
   0.20000000  0.33333333  0.25000000       0.067
   0.40000000  0.33333333  0.25000000       0.067
   0.00000000  0.50000000  0.25000000       0.017
   0.20000000  0.50000000  0.25000000       0.033
   0.40000000  0.50000000  0.25000000       0.033
   0.00000000  0.00000000  0.50000000       0.008
   0.20000000  0.00000000  0.50000000       0.017
   0.40000000  0.00000000  0.50000000       0.017
   0.00000000  0.16666667  0.50000000       0.017
   0.20000000  0.16666667  0.50000000       0.033
   0.40000000  0.16666667  0.50000000       0.033
   0.00000000  0.33333333  0.50000000       0.017
   0.20000000  0.33333333  0.50000000       0.033
   0.40000000  0.33333333  0.50000000       0.033
   0.00000000  0.50000000  0.50000000       0.008
   0.20000000  0.50000000  0.50000000       0.017
   0.40000000  0.50000000  0.50000000       0.017
 
 position of ions in fractional coordinates (direct lattice) 
   0.01517300  0.25000000  0.69130999
   0.98482700  0.75000002  0.30869001
   0.48482700  0.75000002  0.19130993
   0.51517300  0.25000000  0.80869005
   0.15930900  0.75000002  0.90664998
   0.84069100  0.25000000  0.09335000
   0.34069100  0.25000000  0.40665007
   0.65930900  0.75000002  0.59334998
   0.19427001  0.07254100  0.14674400
   0.80572999  0.92745899  0.85325598
   0.30572999  0.92745899  0.64674402
   0.69427001  0.07254100  0.35325598
   0.80572999  0.57254101  0.85325598
   0.19427001  0.42745899  0.14674400
   0.69427001  0.42745899  0.35325598
   0.30572999  0.57254101  0.64674402
   0.08290500  0.75000002  0.59200102
   0.91709498  0.25000000  0.40799898
   0.41709501  0.25000000  0.09200096
   0.58290502  0.75000002  0.90799902
   0.19769400  0.25000000  0.96694000
   0.80230599  0.75000002  0.03306002
   0.30230599  0.75000002  0.46693992
   0.69769401  0.25000000  0.53306000
 
 position of ions in cartesian coordinates  (Angst):
   0.13670066  1.69446242  8.02067757
   8.87276745  5.08338737  3.58146572
   4.36803341  5.08338737  2.21960521
   4.64143467  1.69446242  9.38253784
   1.43528938  5.08338737 10.51908302
   7.57417870  1.69446242  1.08306003
   3.06944466  1.69446242  4.71801233
   5.94002342  5.08338737  6.88413143
   1.75026941  0.49167198  1.70254493
   7.25919867  6.28617763  9.89959812
   2.75446463  6.28617763  7.50361681
   6.25500345  0.49167198  4.09852648
   7.25919867  3.88059688  9.89959812
   1.75026941  2.89725280  1.70254493
   6.25500345  2.89725280  4.09852648
   2.75446463  3.88059688  7.50361681
   0.74692994  5.08338737  6.86848068
   8.26253796  1.69446242  4.73366260
   3.75780416  1.69446242  1.06740832
   5.25166416  5.08338737 10.53473473
   1.78111780  1.69446242 11.21857643
   7.22835016  5.08338737  0.38356703
   2.72361612  5.08338737  5.41750383
   6.28585196  1.69446242  6.18463850
 


--------------------------------------------------------------------------------------------------------


 k-point  1 :   0.0000 0.0000 0.0000  plane waves:   18015
 k-point  2 :   0.2000 0.0000 0.0000  plane waves:   18061
 k-point  3 :   0.4000 0.0000 0.0000  plane waves:   17963
 k-point  4 :   0.0000 0.1667 0.0000  plane waves:   17981
 k-point  5 :   0.2000 0.1667 0.0000  plane waves:   17995
 k-point  6 :   0.4000 0.1667 0.0000  plane waves:   17998
 k-point  7 :   0.0000 0.3333 0.0000  plane waves:   17997
 k-point  8 :   0.2000 0.3333 0.0000  plane waves:   17955
 k-point  9 :   0.4000 0.3333 0.0000  plane waves:   17977
 k-point 10 :   0.0000 0.5000 0.0000  plane waves:   17944
 k-point 11 :   0.2000 0.5000 0.0000  plane waves:   17950
 k-point 12 :   0.4000 0.5000 0.0000  plane waves:   17980
 k-point 13 :   0.0000 0.0000 0.2500  plane waves:   18014
 k-point 14 :   0.2000 0.0000 0.2500  plane waves:   18010
 k-point 15 :   0.4000 0.0000 0.2500  plane waves:   17976
 k-point 16 :   0.0000 0.1667 0.2500  plane waves:   17994
 k-point 17 :   0.2000 0.1667 0.2500  plane waves:   18005
 k-point 18 :   0.4000 0.1667 0.2500  plane waves:   17983
 k-point 19 :   0.0000 0.3333 0.2500  plane waves:   17983
 k-point 20 :   0.2000 0.3333 0.2500  plane waves:   17976
 k-point 21 :   0.4000 0.3333 0.2500  plane waves:   17972
 k-point 22 :   0.0000 0.5000 0.2500  plane waves:   17960
 k-point 23 :   0.2000 0.5000 0.2500  plane waves:   17998
 k-point 24 :   0.4000 0.5000 0.2500  plane waves:   17972
 k-point 25 :   0.0000 0.0000 0.5000  plane waves:   17962
 k-point 26 :   0.2000 0.0000 0.5000  plane waves:   17982
 k-point 27 :   0.4000 0.0000 0.5000  plane waves:   17990
 k-point 28 :   0.0000 0.1667 0.5000  plane waves:   17998
 k-point 29 :   0.2000 0.1667 0.5000  plane waves:   17996
 k-point 30 :   0.4000 0.1667 0.5000  plane waves:   17998
 k-point 31 :   0.0000 0.3333 0.5000  plane waves:   18010
 k-point 32 :   0.2000 0.3333 0.5000  plane waves:   18006
 k-point 33 :   0.4000 0.3333 0.5000  plane waves:   17968
 k-point 34 :   0.0000 0.5000 0.5000  plane waves:   18004
 k-point 35 :   0.2000 0.5000 0.5000  plane waves:   18000
 k-point 36 :   0.4000 0.5000 0.5000  plane waves:   17992

 maximum and minimum number of plane-waves per node :      4533     4466

 maximum number of plane-waves:     18061
 maximum index in each direction: 
   IXMAX=   16   IYMAX=   12   IZMAX=   21
   IXMIN=  -16   IYMIN=  -12   IZMIN=  -21


 real space projection operators:
  total allocation   :       5631.62 KBytes
  max/ min on nodes  :       1458.02       1357.79


 parallel 3D FFT for wavefunctions:
    minimum data exchange during FFTs selected (reduces bandwidth)
 parallel 3D FFT for charge:
    minimum data exchange during FFTs selected (reduces bandwidth)


 total amount of memory used by VASP MPI-rank0    68281. kBytes
=======================================================================

   base      :      30000. kBytes
   nonlr-proj:       2987. kBytes
   fftplans  :       2347. kBytes
   grid      :       3658. kBytes
   one-center:         93. kBytes
   wavefun   :      29196. kBytes
 
     INWAV:  cpu time    0.0000: real time    0.0000
 Broyden mixing: mesh for mixing (old mesh)
   NGX = 33   NGY = 25   NGZ = 43
  (NGX  =100   NGY  = 80   NGZ  =128)
  gives a total of  35475 points

 initial charge density was supplied:
 charge density of overlapping atoms calculated
 number of electron     144.0000000 magnetization 
 keeping initial charge density in first step


--------------------------------------------------------------------------------------------------------


 Maximum index for non-local projection operator          837
 Maximum index for augmentation-charges         1190 (set IRDMAX)


--------------------------------------------------------------------------------------------------------


 First call to EWALD:  gamma=   0.199
 Maximum number of real-space cells 3x 3x 2
 Maximum number of reciprocal cells 3x 2x 3

    FEWALD:  cpu time    0.0708: real time    0.0709


--------------------------------------- Iteration      1(   1)  ---------------------------------------


    POTLOK:  cpu time    0.0473: real time    0.0514
    SETDIJ:  cpu time    0.0032: real time    0.0036
     EDDAV:  cpu time    2.3403: real time    2.3516
 BZINTS: Fermi energy: 11.377931;144.000000 electrons
         Band energy:  42.898217;  BLOECHL correction: -0.050562
       DOS:  cpu time    0.0463: real time    0.0466
    --------------------------------------------
      LOOP:  cpu time    2.4371: real time    2.4532

 eigenvalue-minimisations  :  6336
 total energy-change (2. order) : 0.9488486E+03  (-0.5683739E+04)
 number of electron     144.0000000 magnetization 
 augmentation part      144.0000000 magnetization 

 Free energy of the ion-electron system (eV)
  ---------------------------------------------------
  alpha Z        PSCENC =       582.27802504
  Ewald energy   TEWEN  =     -6374.53395873
  -Hartree energ DENC   =      -916.11639501
  -exchange      EXHF   =         0.00000000
  -V(xc)+E(xc)   XCENC  =        80.63022507
  PAW double counting   =      3825.72300985    -3573.76249665
  entropy T*S    EENTRO =         0.00000000
  eigenvalues    EBANDS =        42.89821680
  atomic energy  EATOM  =      7281.73199354
  Solvation  Ediel_sol  =         0.00000000
  ---------------------------------------------------
  free energy    TOTEN  =       948.84861991 eV

  energy without entropy =      948.84861991  energy(sigma->0) =      948.84861991


--------------------------------------------------------------------------------------------------------




--------------------------------------- Iteration      1(   2)  ---------------------------------------


     EDDAV:  cpu time    2.9492: real time    2.9576
 BZINTS: Fermi energy:  4.217645;144.000000 electrons
         Band energy:-914.231398;  BLOECHL correction: -0.000846
       DOS:  cpu time    0.0372: real time    0.0373
    --------------------------------------------
      LOOP:  cpu time    2.9864: real time    2.9949

 eigenvalue-minimisations  :  8408
 total energy-change (2. order) :-0.9571296E+03  (-0.9269861E+03)
 number of electron     144.0000000 magnetization 
 augmentation part      144.0000000 magnetization 

 Free energy of the ion-electron system (eV)
  ---------------------------------------------------
  alpha Z        PSCENC =       582.27802504
  Ewald energy   TEWEN  =     -6374.53395873
  -Hartree energ DENC   =      -916.11639501
  -exchange      EXHF   =         0.00000000
  -V(xc)+E(xc)   XCENC  =        80.63022507
  PAW double counting   =      3825.72300985    -3573.76249665
  entropy T*S    EENTRO =         0.00000000
  eigenvalues    EBANDS =      -914.23139784
  atomic energy  EATOM  =      7281.73199354
  Solvation  Ediel_sol  =         0.00000000
  ---------------------------------------------------
  free energy    TOTEN  =        -8.28099473 eV

  energy without entropy =       -8.28099473  energy(sigma->0) =       -8.28099473


--------------------------------------------------------------------------------------------------------




--------------------------------------- Iteration      1(   3)  ---------------------------------------


     EDDAV:  cpu time    2.8178: real time    2.8258
 BZINTS: Fermi energy:  2.411363;144.000000 electrons
         Band energy:***********;  BLOECHL correction:  0.000000
       DOS:  cpu time    0.0081: real time    0.0081
    --------------------------------------------
      LOOP:  cpu time    2.8259: real time    2.8340

 eigenvalue-minimisations  :  7648
 total energy-change (2. order) :-0.8909926E+02  (-0.8809542E+02)
 number of electron     144.0000000 magnetization 
 augmentation part      144.0000000 magnetization 

 Free energy of the ion-electron system (eV)
  ---------------------------------------------------
  alpha Z        PSCENC =       582.27802504
  Ewald energy   TEWEN  =     -6374.53395873
  -Hartree energ DENC   =      -916.11639501
  -exchange      EXHF   =         0.00000000
  -V(xc)+E(xc)   XCENC  =        80.63022507
  PAW double counting   =      3825.72300985    -3573.76249665
  entropy T*S    EENTRO =         0.00000000
  eigenvalues    EBANDS =     -1003.33065386
  atomic energy  EATOM  =      7281.73199354
  Solvation  Ediel_sol  =         0.00000000
  ---------------------------------------------------
  free energy    TOTEN  =       -97.38025076 eV

  energy without entropy =      -97.38025076  energy(sigma->0) =      -97.38025076


--------------------------------------------------------------------------------------------------------




--------------------------------------- Iteration      1(   4)  ---------------------------------------


     EDDAV:  cpu time    3.1720: real time    3.1806
 BZINTS: Fermi energy:  2.388743;144.000000 electrons
         Band energy:***********;  BLOECHL correction:  0.000000
       DOS:  cpu time    0.0080: real time    0.0080
    --------------------------------------------
      LOOP:  cpu time    3.1800: real time    3.1886

 eigenvalue-minimisations  :  9168
 total energy-change (2. order) :-0.2656727E+01  (-0.2647217E+01)
 number of electron     144.0000000 magnetization 
 augmentation part      144.0000000 magnetization 

 Free energy of the ion-electron system (eV)
  ---------------------------------------------------
  alpha Z        PSCENC =       582.27802504
  Ewald energy   TEWEN  =     -6374.53395873
  -Hartree energ DENC   =      -916.11639501
  -exchange      EXHF   =         0.00000000
  -V(xc)+E(xc)   XCENC  =        80.63022507
  PAW double counting   =      3825.72300985    -3573.76249665
  entropy T*S    EENTRO =         0.00000000
  eigenvalues    EBANDS =     -1005.98738050
  atomic energy  EATOM  =      7281.73199354
  Solvation  Ediel_sol  =         0.00000000
  ---------------------------------------------------
  free energy    TOTEN  =      -100.03697739 eV

  energy without entropy =     -100.03697739  energy(sigma->0) =     -100.03697739


--------------------------------------------------------------------------------------------------------




--------------------------------------- Iteration      1(   5)  ---------------------------------------


     EDDAV:  cpu time    2.8779: real time    2.8856
 BZINTS: Fermi energy:  2.326540;144.000000 electrons
         Band energy:***********;  BLOECHL correction:  0.000000
       DOS:  cpu time    0.0080: real time    0.0081
    CHARGE:  cpu time    0.0794: real time    0.0797
    MIXING:  cpu time    0.0030: real time    0.0033
    --------------------------------------------
      LOOP:  cpu time    2.9684: real time    2.9767

 eigenvalue-minimisations  :  8216
 total energy-change (2. order) :-0.8818033E-01  (-0.8813163E-01)
 number of electron     143.9999997 magnetization 
 augmentation part      -24.6957331 magnetization 

 Broyden mixing:
  rms(total) = 0.79242E+00    rms(broyden)= 0.79242E+00
  rms(prec ) = 0.11212E+01
  weight for this iteration     100.00

 Free energy of the ion-electron system (eV)
  ---------------------------------------------------
  alpha Z        PSCENC =       582.27802504
  Ewald energy   TEWEN  =     -6374.53395873
  -Hartree energ DENC   =      -916.11639501
  -exchange      EXHF   =         0.00000000
  -V(xc)+E(xc)   XCENC  =        80.63022507
  PAW double counting   =      3825.72300985    -3573.76249665
  entropy T*S    EENTRO =         0.00000000
  eigenvalues    EBANDS =     -1006.07556083
  atomic energy  EATOM  =      7281.73199354
  Solvation  Ediel_sol  =         0.00000000
  ---------------------------------------------------
  free energy    TOTEN  =      -100.12515773 eV

  energy without entropy =     -100.12515773  energy(sigma->0) =     -100.12515773


--------------------------------------------------------------------------------------------------------




--------------------------------------- Iteration      1(   6)  ---------------------------------------


    POTLOK:  cpu time    0.0330: real time    0.0342
    SETDIJ:  cpu time    0.0028: real time    0.0028
     EDDAV:  cpu time    2.6327: real time    2.6389
 BZINTS: Fermi energy:  2.700604;144.000000 electrons
         Band energy:-996.221275;  BLOECHL correction:  0.000000
       DOS:  cpu time    0.0094: real time    0.0094
    CHARGE:  cpu time    0.0761: real time    0.0762
    MIXING:  cpu time    0.0030: real time    0.0031
    --------------------------------------------
      LOOP:  cpu time    2.7569: real time    2.7645

 eigenvalue-minimisations  :  7480
 total energy-change (2. order) : 0.2149049E+01  (-0.4923652E+00)
 number of electron     143.9999997 magnetization 
 augmentation part      -24.4572533 magnetization 

 Broyden mixing:
  rms(total) = 0.43996E+00    rms(broyden)= 0.43996E+00
  rms(prec ) = 0.56122E+00
  weight for this iteration     100.00

 eigenvalues of (default mixing * dielectric matrix)
  average eigenvalue GAMMA=   2.0584
  2.0584

 Free energy of the ion-electron system (eV)
  ---------------------------------------------------
  alpha Z        PSCENC =       582.27802504
  Ewald energy   TEWEN  =     -6374.53395873
  -Hartree energ DENC   =      -918.31318561
  -exchange      EXHF   =         0.00000000
  -V(xc)+E(xc)   XCENC  =        82.52042586
  PAW double counting   =      3936.03102272    -3691.46915691
  entropy T*S    EENTRO =         0.00000000
  eigenvalues    EBANDS =      -996.22127483
  atomic energy  EATOM  =      7281.73199354
  Solvation  Ediel_sol  =         0.00000000
  ---------------------------------------------------
  free energy    TOTEN  =       -97.97610891 eV

  energy without entropy =      -97.97610891  energy(sigma->0) =      -97.97610891


--------------------------------------------------------------------------------------------------------




--------------------------------------- Iteration      1(   7)  ---------------------------------------


    POTLOK:  cpu time    0.0326: real time    0.0339
    SETDIJ:  cpu time    0.0020: real time    0.0020
     EDDAV:  cpu time    2.8279: real time    2.8346
 BZINTS: Fermi energy:  2.889566;144.000000 electrons
         Band energy:-991.291928;  BLOECHL correction:  0.000000
       DOS:  cpu time    0.0093: real time    0.0093
    CHARGE:  cpu time    0.0797: real time    0.0798
    MIXING:  cpu time    0.0028: real time    0.0030
    --------------------------------------------
      LOOP:  cpu time    2.9544: real time    2.9627

 eigenvalue-minimisations  :  7760
 total energy-change (2. order) : 0.1895578E+00  (-0.2603178E+00)
 number of electron     143.9999997 magnetization 
 augmentation part      -24.3612434 magnetization 

 Broyden mixing:
  rms(total) = 0.14758E+00    rms(broyden)= 0.14758E+00
  rms(prec ) = 0.18819E+00
  weight for this iteration     100.00

 eigenvalues of (default mixing * dielectric matrix)
  average eigenvalue GAMMA=   2.0164
  1.5928  2.4399

 Free energy of the ion-electron system (eV)
  ---------------------------------------------------
  alpha Z        PSCENC =       582.27802504
  Ewald energy   TEWEN  =     -6374.53395873
  -Hartree energ DENC   =      -917.93508449
  -exchange      EXHF   =         0.00000000
  -V(xc)+E(xc)   XCENC  =        84.72829031
  PAW double counting   =      4062.19035484    -3824.95424351
  entropy T*S    EENTRO =         0.00000000
  eigenvalues    EBANDS =      -991.29192814
  atomic energy  EATOM  =      7281.73199354
  Solvation  Ediel_sol  =         0.00000000
  ---------------------------------------------------
  free energy    TOTEN  =       -97.78655114 eV

  energy without entropy =      -97.78655114  energy(sigma->0) =      -97.78655114


--------------------------------------------------------------------------------------------------------




--------------------------------------- Iteration      1(   8)  ---------------------------------------


    POTLOK:  cpu time    0.0340: real time    0.0353
    SETDIJ:  cpu time    0.0021: real time    0.0021
     EDDAV:  cpu time    2.6125: real time    2.6187
 BZINTS: Fermi energy:  2.826587;144.000000 electrons
         Band energy:-990.599732;  BLOECHL correction:  0.000000
       DOS:  cpu time    0.0082: real time    0.0082
    CHARGE:  cpu time    0.0750: real time    0.0752
    MIXING:  cpu time    0.0027: real time    0.0030
    --------------------------------------------
      LOOP:  cpu time    2.7345: real time    2.7424

 eigenvalue-minimisations  :  7128
 total energy-change (2. order) :-0.2565628E-01  (-0.6844507E-01)
 number of electron     143.9999997 magnetization 
 augmentation part      -24.4815646 magnetization 

 Broyden mixing:
  rms(total) = 0.41663E-01    rms(broyden)= 0.41661E-01
  rms(prec ) = 0.75724E-01
  weight for this iteration     100.00

 eigenvalues of (default mixing * dielectric matrix)
  average eigenvalue GAMMA=   1.7290
  2.6040  1.2915  1.2915

 Free energy of the ion-electron system (eV)
  ---------------------------------------------------
  alpha Z        PSCENC =       582.27802504
  Ewald energy   TEWEN  =     -6374.53395873
  -Hartree energ DENC   =      -917.31705626
  -exchange      EXHF   =         0.00000000
  -V(xc)+E(xc)   XCENC  =        85.81847446
  PAW double counting   =      4122.47171117    -3887.66166418
  entropy T*S    EENTRO =         0.00000000
  eigenvalues    EBANDS =      -990.59973247
  atomic energy  EATOM  =      7281.73199354
  Solvation  Ediel_sol  =         0.00000000
  ---------------------------------------------------
  free energy    TOTEN  =       -97.81220742 eV

  energy without entropy =      -97.81220742  energy(sigma->0) =      -97.81220742


--------------------------------------------------------------------------------------------------------




--------------------------------------- Iteration      1(   9)  ---------------------------------------


    POTLOK:  cpu time    0.0326: real time    0.0337
    SETDIJ:  cpu time    0.0024: real time    0.0024
     EDDAV:  cpu time    2.6727: real time    2.6792
 BZINTS: Fermi energy:  2.914585;144.000000 electrons
         Band energy:-988.837800;  BLOECHL correction:  0.000000
       DOS:  cpu time    0.0093: real time    0.0094
    CHARGE:  cpu time    0.0754: real time    0.0756
    MIXING:  cpu time    0.0033: real time    0.0034
    --------------------------------------------
      LOOP:  cpu time    2.7958: real time    2.8036

 eigenvalue-minimisations  :  7416
 total energy-change (2. order) : 0.1280884E-01  (-0.1272950E-01)
 number of electron     143.9999997 magnetization 
 augmentation part      -24.4509385 magnetization 

 Broyden mixing:
  rms(total) = 0.14466E-01    rms(broyden)= 0.14466E-01
  rms(prec ) = 0.18126E-01
  weight for this iteration     100.00

 eigenvalues of (default mixing * dielectric matrix)
  average eigenvalue GAMMA=   1.8077
  2.4071  2.4071  1.2082  1.2082

 Free energy of the ion-electron system (eV)
  ---------------------------------------------------
  alpha Z        PSCENC =       582.27802504
  Ewald energy   TEWEN  =     -6374.53395873
  -Hartree energ DENC   =      -918.91461628
  -exchange      EXHF   =         0.00000000
  -V(xc)+E(xc)   XCENC  =        86.07102537
  PAW double counting   =      4131.85499587    -3897.44906323
  entropy T*S    EENTRO =         0.00000000
  eigenvalues    EBANDS =      -988.83780015
  atomic energy  EATOM  =      7281.73199354
  Solvation  Ediel_sol  =         0.00000000
  ---------------------------------------------------
  free energy    TOTEN  =       -97.79939858 eV

  energy without entropy =      -97.79939858  energy(sigma->0) =      -97.79939858


--------------------------------------------------------------------------------------------------------




--------------------------------------- Iteration      1(  10)  ---------------------------------------


    POTLOK:  cpu time    0.0323: real time    0.0334
    SETDIJ:  cpu time    0.0024: real time    0.0024
     EDDAV:  cpu time    2.8165: real time    2.8231
 BZINTS: Fermi energy:  2.917192;144.000000 electrons
         Band energy:-988.368938;  BLOECHL correction:  0.000000
       DOS:  cpu time    0.0092: real time    0.0093
    CHARGE:  cpu time    0.0750: real time    0.0752
    MIXING:  cpu time    0.0029: real time    0.0029
    --------------------------------------------
      LOOP:  cpu time    2.9383: real time    2.9463

 eigenvalue-minimisations  :  8120
 total energy-change (2. order) :-0.1706800E-02  (-0.1228130E-02)
 number of electron     143.9999997 magnetization 
 augmentation part      -24.4566565 magnetization 

 Broyden mixing:
  rms(total) = 0.64710E-02    rms(broyden)= 0.64709E-02
  rms(prec ) = 0.10291E-01
  weight for this iteration     100.00

 eigenvalues of (default mixing * dielectric matrix)
  average eigenvalue GAMMA=   1.7395
  2.9505  2.5070  1.1857  1.1857  0.8686

 Free energy of the ion-electron system (eV)
  ---------------------------------------------------
  alpha Z        PSCENC =       582.27802504
  Ewald energy   TEWEN  =     -6374.53395873
  -Hartree energ DENC   =      -919.74234551
  -exchange      EXHF   =         0.00000000
  -V(xc)+E(xc)   XCENC  =        86.12348592
  PAW double counting   =      4130.87600751    -3896.16537485
  entropy T*S    EENTRO =         0.00000000
  eigenvalues    EBANDS =      -988.36893830
  atomic energy  EATOM  =      7281.73199354
  Solvation  Ediel_sol  =         0.00000000
  ---------------------------------------------------
  free energy    TOTEN  =       -97.80110538 eV

  energy without entropy =      -97.80110538  energy(sigma->0) =      -97.80110538


--------------------------------------------------------------------------------------------------------




--------------------------------------- Iteration      1(  11)  ---------------------------------------


    POTLOK:  cpu time    0.0315: real time    0.0327
    SETDIJ:  cpu time    0.0023: real time    0.0023
     EDDAV:  cpu time    2.7320: real time    2.7384
 BZINTS: Fermi energy:  2.918391;144.000000 electrons
         Band energy:-988.233207;  BLOECHL correction:  0.000000
       DOS:  cpu time    0.0093: real time    0.0093
    CHARGE:  cpu time    0.0756: real time    0.0758
    MIXING:  cpu time    0.0029: real time    0.0029
    --------------------------------------------
      LOOP:  cpu time    2.8536: real time    2.8614

 eigenvalue-minimisations  :  7792
 total energy-change (2. order) : 0.3947872E-05  (-0.1556064E-03)
 number of electron     143.9999997 magnetization 
 augmentation part      -24.4584448 magnetization 

 Broyden mixing:
  rms(total) = 0.19787E-02    rms(broyden)= 0.19787E-02
  rms(prec ) = 0.27542E-02
  weight for this iteration     100.00

 eigenvalues of (default mixing * dielectric matrix)
  average eigenvalue GAMMA=   1.6602
  2.9083  2.3811  1.1794  1.1794  1.1565  1.1565

 Free energy of the ion-electron system (eV)
  ---------------------------------------------------
  alpha Z        PSCENC =       582.27802504
  Ewald energy   TEWEN  =     -6374.53395873
  -Hartree energ DENC   =      -919.95059346
  -exchange      EXHF   =         0.00000000
  -V(xc)+E(xc)   XCENC  =        86.16090745
  PAW double counting   =      4131.82684490    -3897.08111273
  entropy T*S    EENTRO =         0.00000000
  eigenvalues    EBANDS =      -988.23320744
  atomic energy  EATOM  =      7281.73199354
  Solvation  Ediel_sol  =         0.00000000
  ---------------------------------------------------
  free energy    TOTEN  =       -97.80110143 eV

  energy without entropy =      -97.80110143  energy(sigma->0) =      -97.80110143


--------------------------------------------------------------------------------------------------------




--------------------------------------- Iteration      1(  12)  ---------------------------------------


    POTLOK:  cpu time    0.0318: real time    0.0328
    SETDIJ:  cpu time    0.0023: real time    0.0023
     EDDAV:  cpu time    2.7442: real time    2.7507
 BZINTS: Fermi energy:  2.917005;144.000000 electrons
         Band energy:-988.249592;  BLOECHL correction:  0.000000
       DOS:  cpu time    0.0093: real time    0.0093
    CHARGE:  cpu time    0.0761: real time    0.0763
    MIXING:  cpu time    0.0036: real time    0.0036
    --------------------------------------------
      LOOP:  cpu time    2.8673: real time    2.8750

 eigenvalue-minimisations  :  7720
 total energy-change (2. order) :-0.1688534E-04  (-0.1947899E-04)
 number of electron     143.9999997 magnetization 
 augmentation part      -24.4579499 magnetization 

 Broyden mixing:
  rms(total) = 0.97983E-03    rms(broyden)= 0.97983E-03
  rms(prec ) = 0.12480E-02
  weight for this iteration     100.00

 eigenvalues of (default mixing * dielectric matrix)
  average eigenvalue GAMMA=   1.7317
  3.1946  2.5814  1.8686  1.2916  0.9901  1.0978  1.0978

 Free energy of the ion-electron system (eV)
  ---------------------------------------------------
  alpha Z        PSCENC =       582.27802504
  Ewald energy   TEWEN  =     -6374.53395873
  -Hartree energ DENC   =      -919.92639622
  -exchange      EXHF   =         0.00000000
  -V(xc)+E(xc)   XCENC  =        86.16121978
  PAW double counting   =      4131.65195444    -3896.91436407
  entropy T*S    EENTRO =         0.00000000
  eigenvalues    EBANDS =      -988.24959210
  atomic energy  EATOM  =      7281.73199354
  Solvation  Ediel_sol  =         0.00000000
  ---------------------------------------------------
  free energy    TOTEN  =       -97.80111832 eV

  energy without entropy =      -97.80111832  energy(sigma->0) =      -97.80111832


--------------------------------------------------------------------------------------------------------




--------------------------------------- Iteration      1(  13)  ---------------------------------------


    POTLOK:  cpu time    0.0316: real time    0.0328
    SETDIJ:  cpu time    0.0023: real time    0.0023
     EDDAV:  cpu time    2.6818: real time    2.6882
 BZINTS: Fermi energy:  2.916245;144.000000 electrons
         Band energy:-988.248535;  BLOECHL correction:  0.000000
       DOS:  cpu time    0.0093: real time    0.0093
    CHARGE:  cpu time    0.0772: real time    0.0774
    MIXING:  cpu time    0.0037: real time    0.0038
    --------------------------------------------
      LOOP:  cpu time    2.8059: real time    2.8137

 eigenvalue-minimisations  :  7176
 total energy-change (2. order) :-0.4204446E-05  (-0.3943719E-05)
 number of electron     143.9999997 magnetization 
 augmentation part      -24.4580033 magnetization 

 Broyden mixing:
  rms(total) = 0.60279E-03    rms(broyden)= 0.60279E-03
  rms(prec ) = 0.10676E-02
  weight for this iteration     100.00

 eigenvalues of (default mixing * dielectric matrix)
  average eigenvalue GAMMA=   1.6772
  3.1402  2.5161  2.2839  1.1489  1.1489  1.1173  1.1173  0.9447

 Free energy of the ion-electron system (eV)
  ---------------------------------------------------
  alpha Z        PSCENC =       582.27802504
  Ewald energy   TEWEN  =     -6374.53395873
  -Hartree energ DENC   =      -919.94195595
  -exchange      EXHF   =         0.00000000
  -V(xc)+E(xc)   XCENC  =        86.16184271
  PAW double counting   =      4131.36351968    -3896.61205379
  entropy T*S    EENTRO =         0.00000000
  eigenvalues    EBANDS =      -988.24853502
  atomic energy  EATOM  =      7281.73199354
  Solvation  Ediel_sol  =         0.00000000
  ---------------------------------------------------
  free energy    TOTEN  =       -97.80112252 eV

  energy without entropy =      -97.80112252  energy(sigma->0) =      -97.80112252


--------------------------------------------------------------------------------------------------------




--------------------------------------- Iteration      1(  14)  ---------------------------------------


    POTLOK:  cpu time    0.0331: real time    0.0345
    SETDIJ:  cpu time    0.0021: real time    0.0021
     EDDAV:  cpu time    2.3565: real time    2.3620
 BZINTS: Fermi energy:  2.915039;144.000000 electrons
         Band energy:-988.246453;  BLOECHL correction:  0.000000
       DOS:  cpu time    0.0094: real time    0.0095
    CHARGE:  cpu time    0.0767: real time    0.0769
    MIXING:  cpu time    0.0031: real time    0.0031
    --------------------------------------------
      LOOP:  cpu time    2.4809: real time    2.4880

 eigenvalue-minimisations  :  6264
 total energy-change (2. order) : 0.3049063E-05  (-0.1934357E-05)
 number of electron     143.9999997 magnetization 
 augmentation part      -24.4574055 magnetization 

 Broyden mixing:
  rms(total) = 0.13042E-03    rms(broyden)= 0.13042E-03
  rms(prec ) = 0.17804E-03
  weight for this iteration     100.00

 eigenvalues of (default mixing * dielectric matrix)
  average eigenvalue GAMMA=   1.6908
  3.2384  2.6130  2.2255  1.5941  1.2099  1.2099  0.9896  1.0682  1.0682

 Free energy of the ion-electron system (eV)
  ---------------------------------------------------
  alpha Z        PSCENC =       582.27802504
  Ewald energy   TEWEN  =     -6374.53395873
  -Hartree energ DENC   =      -919.93713913
  -exchange      EXHF   =         0.00000000
  -V(xc)+E(xc)   XCENC  =        86.16088005
  PAW double counting   =      4131.31186754    -3896.56633466
  entropy T*S    EENTRO =         0.00000000
  eigenvalues    EBANDS =      -988.24645312
  atomic energy  EATOM  =      7281.73199354
  Solvation  Ediel_sol  =         0.00000000
  ---------------------------------------------------
  free energy    TOTEN  =       -97.80111947 eV

  energy without entropy =      -97.80111947  energy(sigma->0) =      -97.80111947


--------------------------------------------------------------------------------------------------------




--------------------------------------- Iteration      1(  15)  ---------------------------------------


    POTLOK:  cpu time    0.0306: real time    0.0321
    SETDIJ:  cpu time    0.0023: real time    0.0023
     EDDAV:  cpu time    1.8334: real time    1.8377
 BZINTS: Fermi energy:  2.914149;144.000000 electrons
         Band energy:-988.243504;  BLOECHL correction:  0.000000
       DOS:  cpu time    0.0091: real time    0.0091
    --------------------------------------------
      LOOP:  cpu time    1.8754: real time    1.8812

 eigenvalue-minimisations  :  4440
 total energy-change (2. order) :-0.3076902E-06  (-0.1562052E-06)
 number of electron     143.9999997 magnetization 
 augmentation part      -24.4574055 magnetization 

 Free energy of the ion-electron system (eV)
  ---------------------------------------------------
  alpha Z        PSCENC =       582.27802504
  Ewald energy   TEWEN  =     -6374.53395873
  -Hartree energ DENC   =      -919.93958103
  -exchange      EXHF   =         0.00000000
  -V(xc)+E(xc)   XCENC  =        86.16090294
  PAW double counting   =      4131.30788799    -3896.56288591
  entropy T*S    EENTRO =         0.00000000
  eigenvalues    EBANDS =      -988.24350362
  atomic energy  EATOM  =      7281.73199354
  Solvation  Ediel_sol  =         0.00000000
  ---------------------------------------------------
  free energy    TOTEN  =       -97.80111978 eV

  energy without entropy =      -97.80111978  energy(sigma->0) =      -97.80111978


--------------------------------------------------------------------------------------------------------




 average (electrostatic) potential at core
  the test charge radii are     1.2192  1.1631
  (the norm of the test charge is              1.0000)
       1 -37.1806       2 -37.1806       3 -37.1806       4 -37.1806       5 -37.2176
       6 -37.2176       7 -37.2176       8 -37.2176       9 -32.9710      10 -32.9710
      11 -32.9710      12 -32.9710      13 -32.9710      14 -32.9710      15 -32.9710
      16 -32.9710      17 -32.9754      18 -32.9754      19 -32.9754      20 -32.9754
      21 -32.9191      22 -32.9191      23 -32.9191      24 -32.9191
 
 
 
 E-fermi :   2.9141     XC(G=0):  -8.8997     alpha+bet : -9.5119


 k-point     1 :       0.0000    0.0000    0.0000
  band No.  band energies     occupation 
      1     -24.8961      2.00000
      2     -24.8842      2.00000
      3     -24.8828      2.00000
      4     -24.8827      2.00000
      5     -24.8646      2.00000
      6     -24.8599      2.00000
      7     -24.8572      2.00000
      8     -24.8557      2.00000
      9     -10.5694      2.00000
     10     -10.5380      2.00000
     11     -10.4975      2.00000
     12     -10.4135      2.00000
     13     -10.3706      2.00000
     14     -10.3394      2.00000
     15     -10.3198      2.00000
     16     -10.3191      2.00000
     17     -10.2962      2.00000
     18     -10.2860      2.00000
     19     -10.2585      2.00000
     20     -10.2575      2.00000
     21     -10.2319      2.00000
     22     -10.1964      2.00000
     23     -10.1739      2.00000
     24     -10.1722      2.00000
     25     -10.1670      2.00000
     26     -10.1632      2.00000
     27     -10.1391      2.00000
     28     -10.1341      2.00000
     29     -10.1290      2.00000
     30     -10.1116      2.00000
     31     -10.1094      2.00000
     32     -10.1001      2.00000
     33      -9.1988      2.00000
     34      -8.9017      2.00000
     35      -8.8770      2.00000
     36      -8.8227      2.00000
     37      -4.0975      2.00000
     38      -4.0597      2.00000
     39      -3.8316      2.00000
     40      -3.8159      2.00000
     41      -3.7514      2.00000
     42      -3.7301      2.00000
     43      -3.7136      2.00000
     44      -3.6846      2.00000
     45      -3.6485      2.00000
     46      -3.5843      2.00000
     47      -3.5566      2.00000
     48      -3.4188      2.00000
     49      -0.7826      2.00000
     50       0.2447      2.00000
     51       0.3910      2.00000
     52       0.4740      2.00000
     53       0.4933      2.00000
     54       0.7318      2.00000
     55       0.9864      2.00000
     56       1.0190      2.00000
     57       1.0968      2.00000
     58       1.1246      2.00000
     59       1.1299      2.00000
     60       1.3009      2.00000
     61       1.3437      2.00000
     62       1.3522      2.00000
     63       1.4937      2.00000
     64       1.5943      2.00000
     65       1.7193      2.00000
     66       1.7890      2.00000
     67       1.7979      2.00000
     68       1.8326      2.00000
     69       2.1844      2.00000
     70       2.4259      2.00000
     71       2.4542      2.00000
     72       2.6191      2.00000
     73       3.9129      0.00000
     74       3.9144      0.00000
     75       4.2533      0.00000
     76       4.3972      0.00000
     77       4.4311      0.00000
     78       4.7562      0.00000
     79       4.8198      0.00000
     80       5.0042      0.00000
     81       5.2149      0.00000
     82       5.4083      0.00000
     83       5.4223      0.00000
     84       5.4438      0.00000
     85       5.5584      0.00000
     86       5.6304      0.00000
     87       5.6815      0.00000
     88       5.9559      0.00000

 k-point     2 :       0.2000    0.0000    0.0000
  band No.  band energies     occupation 
      1     -24.8950      2.00000
      2     -24.8852      2.00000
      3     -24.8829      2.00000
      4     -24.8828      2.00000
      5     -24.8642      2.00000
      6     -24.8603      2.00000
      7     -24.8570      2.00000
      8     -24.8559      2.00000
      9     -10.5784      2.00000
     10     -10.5263      2.00000
     11     -10.5053      2.00000
     12     -10.4031      2.00000
     13     -10.3463      2.00000
     14     -10.3276      2.00000
     15     -10.3180      2.00000
     16     -10.3138      2.00000
     17     -10.3026      2.00000
     18     -10.3000      2.00000
     19     -10.2664      2.00000
     20     -10.2644      2.00000
     21     -10.2560      2.00000
     22     -10.1920      2.00000
     23     -10.1859      2.00000
     24     -10.1678      2.00000
     25     -10.1623      2.00000
     26     -10.1608      2.00000
     27     -10.1502      2.00000
     28     -10.1357      2.00000
     29     -10.1248      2.00000
     30     -10.1216      2.00000
     31     -10.1202      2.00000
     32     -10.0961      2.00000
     33      -9.1446      2.00000
     34      -8.8897      2.00000
     35      -8.8859      2.00000
     36      -8.8219      2.00000
     37      -4.0958      2.00000
     38      -4.0557      2.00000
     39      -3.8772      2.00000
     40      -3.8171      2.00000
     41      -3.8159      2.00000
     42      -3.7319      2.00000
     43      -3.6880      2.00000
     44      -3.6678      2.00000
     45      -3.6293      2.00000
     46      -3.6087      2.00000
     47      -3.5744      2.00000
     48      -3.5281      2.00000
     49      -0.6488      2.00000
     50       0.3446      2.00000
     51       0.3459      2.00000
     52       0.3765      2.00000
     53       0.4970      2.00000
     54       0.8972      2.00000
     55       0.9412      2.00000
     56       1.0438      2.00000
     57       1.1636      2.00000
     58       1.1910      2.00000
     59       1.2185      2.00000
     60       1.2822      2.00000
     61       1.4552      2.00000
     62       1.4606      2.00000
     63       1.4970      2.00000
     64       1.6620      2.00000
     65       1.7251      2.00000
     66       1.7369      2.00000
     67       1.8180      2.00000
     68       1.8769      2.00000
     69       2.1661      2.00000
     70       2.3893      2.00000
     71       2.4559      2.00000
     72       2.5279      2.00000
     73       3.8503      0.00000
     74       3.9404      0.00000
     75       4.2002      0.00000
     76       4.3844      0.00000
     77       4.3962      0.00000
     78       4.7059      0.00000
     79       4.7063      0.00000
     80       4.7996      0.00000
     81       4.8793      0.00000
     82       5.2265      0.00000
     83       5.2766      0.00000
     84       5.6654      0.00000
     85       5.7612      0.00000
     86       5.7682      0.00000
     87       5.9246      0.00000
     88       5.9999      0.00000

 k-point     3 :       0.4000    0.0000    0.0000
  band No.  band energies     occupation 
      1     -24.8921      2.00000
      2     -24.8883      2.00000
      3     -24.8828      2.00000
      4     -24.8827      2.00000
      5     -24.8631      2.00000
      6     -24.8616      2.00000
      7     -24.8565      2.00000
      8     -24.8561      2.00000
      9     -10.5832      2.00000
     10     -10.5660      2.00000
     11     -10.4236      2.00000
     12     -10.3746      2.00000
     13     -10.3356      2.00000
     14     -10.3268      2.00000
     15     -10.3251      2.00000
     16     -10.3181      2.00000
     17     -10.2999      2.00000
     18     -10.2973      2.00000
     19     -10.2878      2.00000
     20     -10.2824      2.00000
     21     -10.2748      2.00000
     22     -10.2613      2.00000
     23     -10.1917      2.00000
     24     -10.1859      2.00000
     25     -10.1545      2.00000
     26     -10.1506      2.00000
     27     -10.1421      2.00000
     28     -10.1375      2.00000
     29     -10.1313      2.00000
     30     -10.1175      2.00000
     31     -10.1075      2.00000
     32     -10.0976      2.00000
     33      -9.0330      2.00000
     34      -8.9384      2.00000
     35      -8.8526      2.00000
     36      -8.8281      2.00000
     37      -4.0845      2.00000
     38      -4.0326      2.00000
     39      -3.9863      2.00000
     40      -3.8710      2.00000
     41      -3.7729      2.00000
     42      -3.7164      2.00000
     43      -3.6966      2.00000
     44      -3.6895      2.00000
     45      -3.6819      2.00000
     46      -3.6218      2.00000
     47      -3.6212      2.00000
     48      -3.6173      2.00000
     49      -0.3349      2.00000
     50       0.0476      2.00000
     51       0.3205      2.00000
     52       0.3483      2.00000
     53       0.7336      2.00000
     54       0.8935      2.00000
     55       1.1081      2.00000
     56       1.1724      2.00000
     57       1.1815      2.00000
     58       1.2307      2.00000
     59       1.2666      2.00000
     60       1.4383      2.00000
     61       1.5669      2.00000
     62       1.5723      2.00000
     63       1.5932      2.00000
     64       1.6623      2.00000
     65       1.7960      2.00000
     66       1.8551      2.00000
     67       1.8916      2.00000
     68       2.0562      2.00000
     69       2.1739      2.00000
     70       2.2096      2.00000
     71       2.2859      2.00000
     72       2.3670      2.00000
     73       3.9579      0.00000
     74       4.0374      0.00000
     75       4.1532      0.00000
     76       4.2356      0.00000
     77       4.2382      0.00000
     78       4.2792      0.00000
     79       4.5158      0.00000
     80       4.5642      0.00000
     81       5.0614      0.00000
     82       5.2813      0.00000
     83       5.2820      0.00000
     84       5.4740      0.00000
     85       5.5337      0.00000
     86       5.6439      0.00000
     87       5.7448      0.00000
     88       5.8757      0.00000

 k-point     4 :       0.0000    0.1667    0.0000
  band No.  band energies     occupation 
      1     -24.8944      2.00000
      2     -24.8837      2.00000
      3     -24.8824      2.00000
      4     -24.8820      2.00000
      5     -24.8658      2.00000
      6     -24.8600      2.00000
      7     -24.8585      2.00000
      8     -24.8563      2.00000
      9     -10.5585      2.00000
     10     -10.5400      2.00000
     11     -10.5372      2.00000
     12     -10.3765      2.00000
     13     -10.3764      2.00000
     14     -10.3723      2.00000
     15     -10.3641      2.00000
     16     -10.3518      2.00000
     17     -10.3184      2.00000
     18     -10.2694      2.00000
     19     -10.2478      2.00000
     20     -10.2239      2.00000
     21     -10.2123      2.00000
     22     -10.2099      2.00000
     23     -10.2074      2.00000
     24     -10.1709      2.00000
     25     -10.1605      2.00000
     26     -10.1599      2.00000
     27     -10.1388      2.00000
     28     -10.1268      2.00000
     29     -10.1232      2.00000
     30     -10.1174      2.00000
     31     -10.1131      2.00000
     32     -10.0914      2.00000
     33      -9.1223      2.00000
     34      -8.8876      2.00000
     35      -8.8713      2.00000
     36      -8.8267      2.00000
     37      -4.0433      2.00000
     38      -4.0127      2.00000
     39      -3.8148      2.00000
     40      -3.8108      2.00000
     41      -3.7928      2.00000
     42      -3.7515      2.00000
     43      -3.7110      2.00000
     44      -3.6706      2.00000
     45      -3.6591      2.00000
     46      -3.6198      2.00000
     47      -3.5799      2.00000
     48      -3.4260      2.00000
     49      -0.5502      2.00000
     50       0.3163      2.00000
     51       0.4472      2.00000
     52       0.5150      2.00000
     53       0.5389      2.00000
     54       0.6484      2.00000
     55       0.7059      2.00000
     56       1.0702      2.00000
     57       1.1141      2.00000
     58       1.1698      2.00000
     59       1.2626      2.00000
     60       1.2946      2.00000
     61       1.3506      2.00000
     62       1.4210      2.00000
     63       1.5053      2.00000
     64       1.5311      2.00000
     65       1.6558      2.00000
     66       1.6864      2.00000
     67       1.8374      2.00000
     68       1.8531      2.00000
     69       2.0863      2.00000
     70       2.1739      2.00000
     71       2.6285      2.00000
     72       2.7145      2.00000
     73       3.7407      0.00000
     74       3.8737      0.00000
     75       4.3615      0.00000
     76       4.4991      0.00000
     77       4.5758      0.00000
     78       4.7369      0.00000
     79       4.7742      0.00000
     80       4.9215      0.00000
     81       5.0892      0.00000
     82       5.1272      0.00000
     83       5.2622      0.00000
     84       5.4788      0.00000
     85       5.5254      0.00000
     86       5.5511      0.00000
     87       5.6328      0.00000
     88       5.7548      0.00000

 k-point     5 :       0.2000    0.1667    0.0000
  band No.  band energies     occupation 
      1     -24.8934      2.00000
      2     -24.8846      2.00000
      3     -24.8826      2.00000
      4     -24.8820      2.00000
      5     -24.8653      2.00000
      6     -24.8605      2.00000
      7     -24.8583      2.00000
      8     -24.8566      2.00000
      9     -10.5745      2.00000
     10     -10.5572      2.00000
     11     -10.5123      2.00000
     12     -10.3799      2.00000
     13     -10.3775      2.00000
     14     -10.3585      2.00000
     15     -10.3581      2.00000
     16     -10.3299      2.00000
     17     -10.3193      2.00000
     18     -10.2817      2.00000
     19     -10.2695      2.00000
     20     -10.2287      2.00000
     21     -10.2275      2.00000
     22     -10.2132      2.00000
     23     -10.1960      2.00000
     24     -10.1674      2.00000
     25     -10.1589      2.00000
     26     -10.1521      2.00000
     27     -10.1512      2.00000
     28     -10.1387      2.00000
     29     -10.1277      2.00000
     30     -10.1084      2.00000
     31     -10.1081      2.00000
     32     -10.0939      2.00000
     33      -9.0807      2.00000
     34      -8.8807      2.00000
     35      -8.8741      2.00000
     36      -8.8246      2.00000
     37      -4.0378      2.00000
     38      -4.0245      2.00000
     39      -3.8782      2.00000
     40      -3.8156      2.00000
     41      -3.7825      2.00000
     42      -3.7602      2.00000
     43      -3.7302      2.00000
     44      -3.6738      2.00000
     45      -3.6722      2.00000
[...]
     17     -10.6543      2.00000
     18     -10.6543      2.00000
     19     -10.5577      2.00000
     20     -10.5577      2.00000
     21     -10.5531      2.00000
     22     -10.5531      2.00000
     23     -10.5352      2.00000
     24     -10.5352      2.00000
     25     -10.5090      2.00000
     26     -10.5090      2.00000
     27     -10.4681      2.00000
     28     -10.4681      2.00000
     29     -10.4656      2.00000
     30     -10.4656      2.00000
     31     -10.4577      2.00000
     32     -10.4577      2.00000
     33      -8.0873      2.00000
     34      -8.0873      2.00000
     35      -8.0804      2.00000
     36      -8.0804      2.00000
     37      -4.3814      2.00000
     38      -4.3814      2.00000
     39      -4.1051      2.00000
     40      -4.1050      2.00000
     41      -4.0148      2.00000
     42      -4.0148      2.00000
     43      -3.9585      2.00000
     44      -3.9585      2.00000
     45      -3.8902      2.00000
     46      -3.8902      2.00000
     47      -3.7409      2.00000
     48      -3.7409      2.00000
     49       0.0634      2.00000
     50       0.0634      2.00000
     51       0.1708      2.00000
     52       0.1708      2.00000
     53       0.5624      2.00000
     54       0.5624      2.00000
     55       0.5782      2.00000
     56       0.5782      2.00000
     57       0.9731      2.00000
     58       0.9731      2.00000
     59       1.1551      2.00000
     60       1.1551      2.00000
     61       1.3556      2.00000
     62       1.3556      2.00000
     63       1.3961      2.00000
     64       1.3961      2.00000
     65       1.6290      2.00000
     66       1.6290      2.00000
     67       1.6757      2.00000
     68       1.6757      2.00000
     69       2.0247      2.00000
     70       2.0247      2.00000
     71       2.2378      2.00000
     72       2.2378      2.00000
     73       3.2223      0.00000
     74       3.2223      0.00000
     75       3.3043      0.00000
     76       3.3043      0.00000
     77       3.7337      0.00000
     78       3.7337      0.00000
     79       3.8973      0.00000
     80       3.8973      0.00000
     81       4.3070      0.00000
     82       4.3070      0.00000
     83       4.3680      0.00000
     84       4.3680      0.00000
     85       4.8866      0.00000
     86       4.8866      0.00000
     87       5.1906      0.00000
     88       5.1906      0.00000

 k-point    36 :       0.4000    0.5000    0.5000
  band No.  band energies     occupation 
      1     -25.2401      2.00000
      2     -25.2401      2.00000
      3     -25.2397      2.00000
      4     -25.2397      2.00000
      5     -25.2300      2.00000
      6     -25.2300      2.00000
      7     -25.2288      2.00000
      8     -25.2288      2.00000
      9     -10.7801      2.00000
     10     -10.7801      2.00000
     11     -10.7598      2.00000
     12     -10.7598      2.00000
     13     -10.7240      2.00000
     14     -10.7240      2.00000
     15     -10.7086      2.00000
     16     -10.7086      2.00000
     17     -10.6207      2.00000
     18     -10.6207      2.00000
     19     -10.5744      2.00000
     20     -10.5744      2.00000
     21     -10.5368      2.00000
     22     -10.5368      2.00000
     23     -10.5342      2.00000
     24     -10.5342      2.00000
     25     -10.4907      2.00000
     26     -10.4907      2.00000
     27     -10.4778      2.00000
     28     -10.4778      2.00000
     29     -10.4692      2.00000
     30     -10.4692      2.00000
     31     -10.4654      2.00000
     32     -10.4654      2.00000
     33      -8.0747      2.00000
     34      -8.0747      2.00000
     35      -8.0721      2.00000
     36      -8.0720      2.00000
     37      -4.3327      2.00000
     38      -4.3327      2.00000
     39      -4.2369      2.00000
     40      -4.2369      2.00000
     41      -4.0094      2.00000
     42      -4.0094      2.00000
     43      -3.9825      2.00000
     44      -3.9825      2.00000
     45      -3.8499      2.00000
     46      -3.8499      2.00000
     47      -3.7895      2.00000
     48      -3.7895      2.00000
     49       0.1732      2.00000
     50       0.1732      2.00000
     51       0.2697      2.00000
     52       0.2697      2.00000
     53       0.6357      2.00000
     54       0.6357      2.00000
     55       0.7574      2.00000
     56       0.7574      2.00000
     57       1.0156      2.00000
     58       1.0156      2.00000
     59       1.1573      2.00000
     60       1.1573      2.00000
     61       1.2206      2.00000
     62       1.2206      2.00000
     63       1.2790      2.00000
     64       1.2790      2.00000
     65       1.6534      2.00000
     66       1.6534      2.00000
     67       1.7225      2.00000
     68       1.7225      2.00000
     69       2.1308      2.00000
     70       2.1309      2.00000
     71       2.1455      2.00000
     72       2.1455      2.00000
     73       3.2755      0.00000
     74       3.2755      0.00000
     75       3.4400      0.00000
     76       3.4400      0.00000
     77       3.5647      0.00000
     78       3.5647      0.00000
     79       3.7842      0.00000
     80       3.7842      0.00000
     81       4.2992      0.00000
     82       4.2992      0.00000
     83       4.4665      0.00000
     84       4.4665      0.00000
     85       4.7566      0.00000
     86       4.7566      0.00000
     87       4.8170      0.00000
     88       4.8170      0.00000


--------------------------------------------------------------------------------------------------------


 soft charge-density along one line, spin component           1
         0         1         2         3         4         5         6         7         8         9
 total charge-density along one line
 
 pseudopotential strength for first ion, spin component:           1
  3.088  -4.780  -0.000   0.005   0.002  -0.000   0.002   0.001
 -4.780  -2.776   0.000  -0.001  -0.000  -0.000   0.001   0.000
 -0.000   0.000  -7.245  -0.000  -0.000   1.301  -0.000  -0.000
  0.005  -0.001  -0.000  -7.244  -0.001  -0.000   1.303  -0.002
  0.002  -0.000  -0.000  -0.001  -7.244  -0.000  -0.002   1.302
 -0.000  -0.000   1.301  -0.000  -0.000   7.414  -0.000  -0.000
  0.002   0.001  -0.000   1.303  -0.002  -0.000   7.414  -0.000
  0.001   0.000  -0.000  -0.002   1.302  -0.000  -0.000   7.414
 -0.000   0.000   0.000  -0.000  -0.000   0.000  -0.000  -0.000
 -0.000   0.000   0.002  -0.000  -0.000   0.001  -0.000  -0.000
  0.001  -0.000   0.000   0.001  -0.000   0.000   0.001   0.000
 -0.001   0.000  -0.000   0.001   0.001  -0.000   0.001   0.001
  0.000  -0.000   0.000  -0.000   0.001   0.000  -0.000   0.001
  0.000   0.000  -0.000   0.000   0.000   0.000   0.000   0.000
  0.000   0.000  -0.000   0.000   0.000  -0.000   0.000   0.000
 -0.000  -0.000  -0.000  -0.000   0.000  -0.000  -0.000  -0.000
  0.000   0.000   0.000  -0.000  -0.000   0.000  -0.000  -0.000
 -0.000  -0.000  -0.000   0.000  -0.000  -0.000   0.000  -0.000
 total augmentation occupancy for first ion, spin component:           1
  2.097  -0.240  -0.000  -0.007  -0.004  -0.000   0.003   0.001   0.000   0.000   0.005  -0.014  -0.000  -0.000  -0.000  -0.003
 -0.240   0.597  -0.000   0.019   0.009  -0.000  -0.007  -0.002  -0.000   0.000  -0.009   0.027   0.002  -0.000   0.000   0.013
  0.000  -0.000   2.012   0.000   0.000  -0.010  -0.000   0.000  -0.015  -0.000   0.000   0.000   0.000   0.019   0.002   0.000
 -0.007   0.019  -0.000   2.009   0.003  -0.000  -0.008  -0.002  -0.000   0.000   0.005   0.025   0.005   0.000  -0.000   0.003
 -0.004   0.009   0.000   0.003   2.011   0.000  -0.002  -0.009  -0.000   0.000   0.014   0.012   0.015   0.000  -0.000  -0.019
  0.000  -0.000  -0.010   0.000   0.000   0.009   0.000   0.000   0.007   0.002   0.000   0.000  -0.000  -0.010  -0.005   0.000
  0.003  -0.007   0.000  -0.008  -0.002   0.000   0.009   0.001   0.000  -0.000  -0.001  -0.009  -0.003   0.000  -0.000   0.003
  0.001  -0.002   0.000  -0.002  -0.009   0.000   0.001   0.010   0.000  -0.000  -0.006  -0.004  -0.005   0.000  -0.000   0.010
  0.000  -0.000  -0.015   0.000   0.000   0.007   0.000   0.000   0.121  -0.037  -0.000  -0.000   0.000  -0.210   0.066   0.000
 -0.000   0.000  -0.000   0.000   0.000   0.002  -0.000   0.000  -0.037   0.076  -0.000   0.000  -0.000   0.067  -0.134  -0.000
  0.005  -0.009   0.000   0.005   0.014   0.000  -0.001  -0.006  -0.000   0.000   0.104   0.029   0.014   0.000   0.000  -0.183
 -0.014   0.027   0.000   0.025   0.012   0.000  -0.009  -0.004  -0.000   0.000   0.029   0.111   0.030   0.000  -0.000  -0.052
 -0.000   0.002   0.000   0.005   0.015  -0.000  -0.003  -0.005   0.000   0.000   0.014   0.030   0.086   0.000   0.000  -0.019
  0.000  -0.000   0.019   0.000  -0.000  -0.010   0.000   0.000  -0.210   0.067   0.000   0.000   0.000   0.398  -0.134  -0.000
 -0.000  -0.000   0.002  -0.000  -0.000  -0.005   0.000  -0.000   0.066  -0.134   0.000  -0.000   0.000  -0.134   0.251  -0.000
 -0.003   0.013   0.000   0.003  -0.019   0.000   0.003   0.010   0.000   0.000  -0.183  -0.052  -0.019  -0.000   0.000   0.346
  0.010  -0.032   0.000  -0.033  -0.006   0.000   0.016   0.005   0.000  -0.000  -0.052  -0.193  -0.049   0.000   0.000   0.106
  0.004  -0.012  -0.000  -0.003  -0.018  -0.000   0.005   0.008   0.000   0.000  -0.019  -0.049  -0.148  -0.000   0.000   0.029


------------------------ aborting loop because EDIFF is reached ----------------------------------------


    CHARGE:  cpu time    0.0760: real time    0.0763
    FORLOC:  cpu time    0.0039: real time    0.0039
    FORNL :  cpu time    0.4010: real time    0.4021
    STRESS:  cpu time    1.2020: real time    1.2048
    FORCOR:  cpu time    0.0239: real time    0.0239
    FORHAR:  cpu time    0.0082: real time    0.0082
    MIXING:  cpu time    0.0025: real time    0.0025
    OFIELD:  cpu time    0.0000: real time    0.0000

  FORCE on cell =-STRESS in cart. coord.  units (eV):
  Direction    XX          YY          ZZ          XY          YZ          ZX
  --------------------------------------------------------------------------------------
  Alpha Z   550.59441   550.59441   550.59441
  Ewald   -2116.19064 -2089.66419 -2089.83079    -0.00000    -0.00000    -0.00013
  Hartree   299.87257   320.09564   315.04310     0.00000    -0.00000     0.00002
  E(xc)    -481.63031  -481.31467  -481.24457    -0.00000    -0.00000    -0.00000
  Local     193.52225   152.58176   158.95743     0.00000     0.00000     0.00008
  n-local    16.14800    13.57882    14.18138    -0.13874    -0.05899    -0.06470
  augment   -51.41238   -50.84952   -50.91123    -0.00000    -0.00000    -0.00000
  Kinetic  1589.07000  1585.07035  1583.08267     0.67002    -0.95370     0.03886
  Fock        0.00000     0.00000     0.00000     0.00000     0.00000     0.00000
  -------------------------------------------------------------------------------------
  Total      -0.02610     0.09259    -0.12759     0.00000     0.00000     0.00000
  in kB      -0.05581     0.19800    -0.27284     0.00000     0.00000     0.00000
  external pressure =       -0.04 kB  Pullay stress =        0.00 kB


 VOLUME and BASIS-vectors are now :
 -----------------------------------------------------------------------------
  energy-cutoff  :      500.00
  volume of cell :      749.25
      direct lattice vectors                 reciprocal lattice vectors
     9.272917487  0.000000000  0.000000000     0.107840925 -0.000000000  0.000000000
     0.000000000  6.882360177  0.000000000    -0.000000000  0.145298993  0.000000000
     0.000000000  0.000000000 11.740162778     0.000000000  0.000000000  0.085177695

  length of vectors
     9.272917487  6.882360177 11.740162778     0.107840925  0.145298993  0.085177695


 FORCES acting on ions
    electron-ion (+dipol)            ewald-force                    non-local-force                 convergence-correction
 -----------------------------------------------------------------------------------------------
   0.206E+01 0.829E-04 0.736E+01   -.235E+01 0.133E-04 -.781E+01   0.293E+00 -.332E-18 0.452E+00   -.411E-03 -.219E-09 -.556E-03
   -.206E+01 0.733E-05 -.736E+01   0.235E+01 -.187E-04 0.781E+01   -.293E+00 -.198E-18 -.452E+00   0.411E-03 -.235E-09 0.556E-03
   -.206E+01 0.310E-05 0.736E+01   0.235E+01 -.187E-04 -.781E+01   -.293E+00 -.978E-18 0.452E+00   0.411E-03 -.380E-09 -.556E-03
   0.206E+01 0.786E-04 -.736E+01   -.235E+01 0.133E-04 0.781E+01   0.293E+00 -.951E-18 -.452E+00   -.411E-03 -.364E-09 0.556E-03
   -.233E+02 0.535E-05 -.480E+01   0.223E+02 -.170E-04 0.482E+01   0.976E+00 -.198E-18 -.209E-01   0.226E-03 0.145E-09 0.229E-04
   0.233E+02 0.803E-04 0.480E+01   -.223E+02 0.162E-04 -.482E+01   -.976E+00 -.211E-19 0.209E-01   -.226E-03 0.596E-10 -.229E-04
   0.233E+02 0.797E-04 -.480E+01   -.223E+02 0.162E-04 0.482E+01   -.976E+00 0.870E-18 -.209E-01   -.226E-03 -.237E-09 0.229E-04
   -.233E+02 0.471E-05 0.480E+01   0.223E+02 -.170E-04 -.482E+01   0.976E+00 -.109E-17 0.209E-01   0.226E-03 -.152E-09 -.229E-04
   0.596E+01 0.210E+02 -.120E+02   -.657E+01 -.224E+02 0.128E+02   0.612E+00 0.142E+01 -.806E+00   0.103E-03 -.752E-04 -.118E-03
   -.596E+01 -.210E+02 0.120E+02   0.657E+01 0.224E+02 -.128E+02   -.612E+00 -.142E+01 0.806E+00   -.103E-03 0.752E-04 0.118E-03
   -.596E+01 -.210E+02 -.120E+02   0.657E+01 0.224E+02 0.128E+02   -.612E+00 -.142E+01 -.806E+00   -.103E-03 0.752E-04 -.118E-03
   0.596E+01 0.210E+02 0.120E+02   -.657E+01 -.224E+02 -.128E+02   0.612E+00 0.142E+01 0.806E+00   0.103E-03 -.752E-04 0.118E-03
   -.596E+01 0.210E+02 0.120E+02   0.657E+01 -.224E+02 -.128E+02   -.612E+00 0.142E+01 0.806E+00   -.103E-03 -.752E-04 0.118E-03
   0.596E+01 -.210E+02 -.120E+02   -.657E+01 0.224E+02 0.128E+02   0.612E+00 -.142E+01 -.806E+00   0.103E-03 0.752E-04 -.118E-03
   0.596E+01 -.210E+02 0.120E+02   -.657E+01 0.224E+02 -.128E+02   0.612E+00 -.142E+01 0.806E+00   0.103E-03 0.752E-04 0.118E-03
   -.596E+01 0.210E+02 -.120E+02   0.657E+01 -.224E+02 0.128E+02   -.612E+00 0.142E+01 -.806E+00   -.103E-03 -.752E-04 -.118E-03
   0.336E+02 -.995E-05 0.218E+01   -.354E+02 -.763E-05 -.255E+01   0.185E+01 0.828E-18 0.372E+00   -.785E-04 0.320E-09 -.408E-03
   -.336E+02 0.487E-05 -.218E+01   0.354E+02 0.776E-05 0.255E+01   -.185E+01 0.300E-17 -.372E+00   0.785E-04 0.179E-09 0.408E-03
   -.336E+02 0.104E-04 0.218E+01   0.354E+02 0.776E-05 -.255E+01   -.185E+01 0.414E-18 0.372E+00   0.785E-04 0.876E-10 -.408E-03
   0.336E+02 -.438E-05 -.218E+01   -.354E+02 -.763E-05 0.255E+01   0.185E+01 0.498E-18 -.372E+00   -.785E-04 0.228E-09 0.408E-03
   0.283E+01 0.170E-05 0.239E+02   -.314E+01 0.829E-05 -.255E+02   0.318E+00 -.543E-18 0.170E+01   0.287E-03 0.343E-10 -.116E-03
   -.283E+01 -.129E-04 -.239E+02   0.314E+01 -.877E-05 0.255E+02   -.318E+00 0.702E-18 -.170E+01   -.287E-03 0.472E-10 0.116E-03
   -.283E+01 0.352E-06 0.239E+02   0.314E+01 -.877E-05 -.255E+02   -.318E+00 0.235E-17 0.170E+01   -.287E-03 0.119E-09 -.116E-03
   0.283E+01 0.149E-04 -.239E+02   -.314E+01 0.829E-05 0.255E+02   0.318E+00 0.229E-17 -.170E+01   0.287E-03 0.106E-09 0.116E-03
 -----------------------------------------------------------------------------------------------
   -.321E-03 0.467E-03 0.116E-03   -.622E-14 -.153E-13 -.142E-13   0.000E+00 0.232E-15 -.222E-15   0.633E-09 -.919E-10 0.367E-09
 
 
 POSITION                                       TOTAL-FORCE (eV/Angst)
 -----------------------------------------------------------------------------------
      0.13336      1.72059      8.10682        -0.001074     -0.000000      0.001136
      9.13956      5.16177      3.63334         0.001074     -0.000000     -0.001136
      4.50310      5.16177      2.23674         0.001074     -0.000000      0.001136
      4.76982      1.72059      9.50343        -0.001074     -0.000000     -0.001136
      1.41234      5.16177     10.64743        -0.006935     -0.000000      0.001536
      7.86058      1.72059      1.09274         0.006935     -0.000000     -0.001536
      3.22412      1.72059      4.77735         0.006935     -0.000000      0.001536
      6.04880      5.16177      6.96282        -0.006935     -0.000000     -0.001536
      1.78615      0.42638      1.76395         0.002923     -0.005973      0.006260
      7.48677      6.45598      9.97621        -0.002923      0.005973     -0.006260
      2.85031      6.45598      7.63404        -0.002923      0.005973      0.006260
      6.42261      0.42638      4.10613         0.002923     -0.005973     -0.006260
      7.48677      3.86756      9.97621        -0.002923     -0.005973     -0.006260
      1.78615      3.01480      1.76395         0.002923      0.005973      0.006260
      6.42261      3.01480      4.10613         0.002923      0.005973     -0.006260
      2.85031      3.86756      7.63404        -0.002923     -0.005973      0.006260
      0.70105      5.16177      6.96521         0.003931     -0.000000      0.001881
      8.57186      1.72059      4.77495        -0.003931     -0.000000     -0.001881
      3.93541      1.72059      1.09513        -0.003931     -0.000000      0.001881
      5.33751      5.16177     10.64503         0.003931     -0.000000     -0.001881
      1.81347      1.72059     11.26069         0.000384     -0.000000      0.006006
      7.45945      5.16177      0.47948        -0.000384     -0.000000     -0.006006
      2.82299      5.16177      5.39061        -0.000384     -0.000000      0.006006
      6.44993      1.72059      6.34956         0.000384     -0.000000     -0.006006
 -----------------------------------------------------------------------------------
    total drift:                               -0.000321      0.000467      0.000116


--------------------------------------------------------------------------------------------------------



  FREE ENERGIE OF THE ION-ELECTRON SYSTEM (eV)
  ---------------------------------------------------
  free  energy   TOTEN  =      -100.09109833 eV

  energy  without entropy=     -100.09109833  energy(sigma->0) =     -100.09109833
 
 d Force =-0.1519128E-05[-0.124E-04, 0.933E-05]  d Energy = 0.3925180E-04-0.408E-04
 d Force = 0.2697065E-01[ 0.269E-01, 0.271E-01]  d Ewald  =-0.7591627E-01 0.103E+00


--------------------------------------------------------------------------------------------------------


    POTLOK:  cpu time    0.0251: real time    0.0252


--------------------------------------------------------------------------------------------------------




--------------------------------------------------------------------------------------------------------


  
 reached required accuracy - stopping structural energy minimisation
 writing wavefunctions
     LOOP+:  cpu time   14.7776: real time   15.3001
    4ORBIT:  cpu time    0.0000: real time    0.0000
 BZINTS: Fermi energy:  2.646870;144.000000 electrons
         Band energy:***********;  BLOECHL correction:  0.000000

 total amount of memory used by VASP MPI-rank0    68281. kBytes
=======================================================================

   base      :      30000. kBytes
   nonlr-proj:       2987. kBytes
   fftplans  :       2347. kBytes
   grid      :       3658. kBytes
   one-center:         93. kBytes
   wavefun   :      29196. kBytes
 
  
  
 General timing and accounting informations for this job:
 ========================================================
  
                  Total CPU time used (sec):      587.422
                            User time (sec):      583.312
                          System time (sec):        4.110
                         Elapsed time (sec):      591.994
  
                   Maximum memory used (kb):      149340.
                   Average memory used (kb):           0.
  
                          Minor page faults:        23522
                          Major page faults:          270
                 Voluntary context switches:        23411
