 vasp.5.4.4.18Apr17-6-g9f103f2a35 (build Nov 21 2017 15:30:27) complex          
  
 executed on             LinuxIFC date 2020.12.16  16:07:33
 running on   64 total cores
 distrk:  each k-point on   32 cores,    2 groups
 distr:  one band on NCORES_PER_BAND=   4 cores,    8 groups


--------------------------------------------------------------------------------------------------------


 INCAR:
 POTCAR:   PAW Ba_sv 17Apr2000                    
 POTCAR:   PAW Ge 03Mar1998                       

 ----------------------------------------------------------------------------- 
|                                                                             |
|           W    W    AA    RRRRR   N    N  II  N    N   GGGG   !!!           |
|           W    W   A  A   R    R  NN   N  II  NN   N  G    G  !!!           |
|           W    W  A    A  R    R  N N  N  II  N N  N  G       !!!           |
|           W WW W  AAAAAA  RRRRR   N  N N  II  N  N N  G  GGG   !            |
|           WW  WW  A    A  R   R   N   NN  II  N   NN  G    G                |
|           W    W  A    A  R    R  N    N  II  N    N   GGGG   !!!           |
|                                                                             |
|      You have enabled k-point parallelism (KPAR>1).                         |
|      This developmental code was originally  written by Paul Kent at ORNL,  |
|      and carefully double checked in Vienna.                                |
|      GW as well as linear response parallelism added by Martijn Marsman     |
|      and Georg Kresse.                                                      |
|      Carefully verify results versus KPAR=1.                                |
|      Report problems to Paul Kent and Vienna.                               |
|                                                                             |
 ----------------------------------------------------------------------------- 

 POTCAR:   PAW Ba_sv 17Apr2000                    
   VRHFIN =Ba: s2p6s2                                                           
   LEXCH  = CA                                                                  
   EATOM  =   704.0172 eV,   51.7438 Ry                                         
                                                                                
   TITEL  = PAW Ba_sv 17Apr2000                                                 
   LULTRA =        F    use ultrasoft PP ?                                      
   IUNSCR =        1    unscreen: 0-lin 1-nonlin 2-no                           
   RPACOR =    2.400    partial core radius                                     
   POMASS =  137.327; ZVAL   =   10.000    mass and valenz                      
   RCORE  =    2.800    outmost cutoff radius                                   
   RWIGS  =    3.740; RWIGS  =    1.979    wigner-seitz radius (au A)           
   ENMAX  =  186.981; ENMIN  =  140.236 eV                                      
   RCLOC  =    2.516    cutoff for local pot                                    
   LCOR   =        T    correct aug charges                                     
   LPAW   =        T    paw PP                                                  
   EAUG   =  351.165                                                            
   DEXC   =     .000                                                            
   RMAX   =    3.372    core radius for proj-oper                               
   RAUG   =    1.300    factor for augmentation sphere                          
   RDEP   =    2.976    core radius for depl-charge                             
   QCUT   =   -3.707; QGAM   =    7.414    optimization parameters              
                                                                                
   Description                                                                  
     l     E      TYP  RCUT    TYP  RCUT                                        
     0   .000     23  2.800                                                     
     0   .000     23  2.800                                                     
     1   .000     23  2.700                                                     
     1  2.000     23  2.700                                                     
     2   .000     23  2.700                                                     
     2   .000     23  2.700                                                     
  local pseudopotential read in
  partial core-charges read in
  atomic valenz-charges read in
  non local Contribution for L=           0  read in
    real space projection operators read in
  non local Contribution for L=           0  read in
    real space projection operators read in
  non local Contribution for L=           1  read in
    real space projection operators read in
  non local Contribution for L=           1  read in
    real space projection operators read in
  non local Contribution for L=           2  read in
    real space projection operators read in
  non local Contribution for L=           2  read in
    real space projection operators read in
    PAW grid and wavefunctions read in
 
   number of l-projection  operators is LMAX  =           6
   number of lm-projection operators is LMMAX =          18
 
 POTCAR:   PAW Ge 03Mar1998                       
   VRHFIN =Ge: s2p2                                                             
   LEXCH  = CA                                                                  
   EATOM  =   106.1908 eV,    7.8048 Ry                                         
                                                                                
   TITEL  = PAW Ge 03Mar1998                                                    
   LULTRA =        F    use ultrasoft PP ?                                      
   IUNSCR =        1    unscreen: 0-lin 1-nonlin 2-no                           
   RPACOR =    2.170    partial core radius                                     
   POMASS =   72.610; ZVAL   =    4.000    mass and valenz                      
   RCORE  =    2.300    outmost cutoff radius                                   
   RWIGS  =    2.300; RWIGS  =    1.217    wigner-seitz radius (au A)           
   ENMAX  =  173.969; ENMIN  =  130.477 eV                                      
   ICORE  =        3    local potential                                         
   LCOR   =        T    correct aug charges                                     
   LPAW   =        T    paw PP                                                  
   EAUG   =  385.843                                                            
   DEXC   =    -.107                                                            
   RMAX   =    3.496    core radius for proj-oper                               
   RAUG   =    1.300    factor for augmentation sphere                          
   RDEP   =    2.318    core radius for depl-charge                             
   QCUT   =   -3.576; QGAM   =    7.152    optimization parameters              
                                                                                
   Description                                                                  
     l     E      TYP  RCUT    TYP  RCUT                                        
     0   .000     23  2.300                                                     
     0   .000     23  2.300                                                     
     1   .000     23  2.300                                                     
     1   .000     23  2.300                                                     
     2   .000     23  2.300                                                     
     3  -.100      7  2.300                                                     
  local pseudopotential read in
  partial core-charges read in
  atomic valenz-charges read in
  non local Contribution for L=           0  read in
    real space projection operators read in
  non local Contribution for L=           0  read in
    real space projection operators read in
  non local Contribution for L=           1  read in
    real space projection operators read in
  non local Contribution for L=           1  read in
    real space projection operators read in
  non local Contribution for L=           2  read in
    real space projection operators read in
    PAW grid and wavefunctions read in
 
   number of l-projection  operators is LMAX  =           5
   number of lm-projection operators is LMMAX =          13
 
 Optimization of the real space projectors (new method)

 maximal supplied QI-value         = 13.42
 optimisation between [QCUT,QGAM] = [ 11.40, 22.81] = [ 36.42,145.68] Ry 
 Optimized for a Real-space Cutoff    1.56 Angstroem

   l    n(q)    QCUT    max X(q) W(low)/X(q) W(high)/X(q)  e(spline) 
   0     11    11.404     7.180    0.12E-04    0.23E-04    0.91E-07
   0     11    11.404    14.700    0.33E-04    0.82E-04    0.45E-06
   1     10    11.404     3.780    0.19E-04    0.22E-04    0.42E-07
   1     10    11.404     4.341    0.22E-03    0.98E-04    0.21E-06
   2     10    11.404     5.806    0.81E-04    0.60E-05    0.26E-06
   2     10    11.404    65.524    0.41E-03    0.30E-04    0.12E-05
 Optimization of the real space projectors (new method)

 maximal supplied QI-value         = 16.25
 optimisation between [QCUT,QGAM] = [ 11.38, 22.75] = [ 36.24,144.96] Ry 
 Optimized for a Real-space Cutoff    1.27 Angstroem

   l    n(q)    QCUT    max X(q) W(low)/X(q) W(high)/X(q)  e(spline) 
   0      9    11.376     8.430    0.24E-04    0.12E-04    0.12E-07
   0      9    11.376    33.187    0.15E-03    0.18E-03    0.88E-07
   1      8    11.376     5.816    0.23E-04    0.46E-04    0.36E-07
   1      8    11.376    27.463    0.31E-03    0.36E-04    0.16E-06
   2      8    11.376     4.658    0.15E-03    0.22E-03    0.49E-07
 PAW Ba_sv 17Apr2000                    :
 energy of atom  1       EATOM= -704.0172
 kinetic energy error for atom=    0.0005 (will be added to EATOM!!)
 PAW Ge 03Mar1998                       :
 energy of atom  2       EATOM= -106.1908
 kinetic energy error for atom=    0.0002 (will be added to EATOM!!)
 
 
 POSCAR: ba8 ge16                                
  positions in cartesian coordinates
  No initial velocities read in
 exchange correlation table for  LEXCH =        2
   RHO(1)=    0.500       N(1)  =     2000
   RHO(2)=  100.500       N(2)  =     4000
 


--------------------------------------------------------------------------------------------------------


 ion  position               nearest neighbor table
   1  0.015  0.250  0.691-  24 3.40  18 3.40  13 3.45  10 3.45  16 3.45  11 3.45  21 3.60  17 3.63
                            17 3.63   5 4.41   5 4.41   7 4.42   4 4.71   4 4.71
   2  0.985  0.750  0.309-  23 3.40  17 3.40   9 3.45  14 3.45  12 3.45  15 3.45  22 3.60  18 3.63
                            18 3.63   6 4.41   6 4.41   8 4.42   3 4.71   3 4.71
   3  0.485  0.750  0.191-  22 3.40  20 3.40  12 3.45  15 3.45   9 3.45  14 3.45  23 3.60  19 3.63
                            19 3.63   7 4.41   7 4.41   5 4.42   2 4.71   2 4.71
   4  0.515  0.250  0.809-  21 3.40  19 3.40  16 3.45  11 3.45  13 3.45  10 3.45  24 3.60  20 3.63
                            20 3.63   8 4.41   8 4.41   6 4.42   1 4.71   1 4.71
   5  0.159  0.750  0.907-  10 3.46  13 3.46  21 3.48  21 3.48  11 3.50  16 3.50  22 3.54   9 3.55
                            14 3.55  17 3.71  20 3.82   1 4.41   1 4.41   3 4.42
   6  0.841  0.250  0.093-  14 3.46   9 3.46  22 3.48  22 3.48  15 3.50  12 3.50  21 3.54  13 3.55
                            10 3.55  18 3.71  19 3.82   2 4.41   2 4.41   4 4.42
   7  0.341  0.250  0.407-  15 3.46  12 3.46  23 3.48  23 3.48  14 3.50   9 3.50  24 3.54  16 3.55
                            11 3.55  19 3.71  18 3.82   3 4.41   3 4.41   1 4.42
   8  0.659  0.750  0.593-  11 3.46  16 3.46  24 3.48  24 3.48  10 3.50  13 3.50  23 3.54  12 3.55
                            15 3.55  20 3.71  17 3.82   4 4.41   4 4.41   2 4.42
   9  0.194  0.073  0.147-  14 2.41  21 2.41  19 2.42   2 3.45   3 3.45   6 3.46   7 3.50   5 3.55

  10  0.806  0.927  0.853-  13 2.41  22 2.41  20 2.42   1 3.45   4 3.45   5 3.46   8 3.50   6 3.55

  11  0.306  0.927  0.647-  16 2.41  23 2.41  17 2.42   4 3.45   1 3.45   8 3.46   5 3.50   7 3.55

  12  0.694  0.073  0.353-  15 2.41  24 2.41  18 2.42   3 3.45   2 3.45   7 3.46   6 3.50   8 3.55

  13  0.806  0.573  0.853-  10 2.41  22 2.41  20 2.42   1 3.45   4 3.45   5 3.46   8 3.50   6 3.55

  14  0.194  0.427  0.147-   9 2.41  21 2.41  19 2.42   2 3.45   3 3.45   6 3.46   7 3.50   5 3.55

  15  0.694  0.427  0.353-  12 2.41  24 2.41  18 2.42   3 3.45   2 3.45   7 3.46   6 3.50   8 3.55

  16  0.306  0.573  0.647-  11 2.41  23 2.41  17 2.42   4 3.45   1 3.45   8 3.46   5 3.50   7 3.55

  17  0.083  0.750  0.592-  11 2.42  16 2.42  23 2.45   2 3.40   1 3.63   1 3.63   5 3.71   8 3.82

  18  0.917  0.250  0.408-  15 2.42  12 2.42  24 2.45   1 3.40   2 3.63   2 3.63   6 3.71   7 3.82

  19  0.417  0.250  0.092-  14 2.42   9 2.42  21 2.45   4 3.40   3 3.63   3 3.63   7 3.71   6 3.82

  20  0.583  0.750  0.908-  10 2.42  13 2.42  22 2.45   3 3.40   4 3.63   4 3.63   8 3.71   5 3.82

  21  0.198  0.250  0.967-  14 2.41   9 2.41  19 2.45   4 3.40   5 3.48   5 3.48   6 3.54   1 3.60

  22  0.802  0.750  0.033-  10 2.41  13 2.41  20 2.45   3 3.40   6 3.48   6 3.48   5 3.54   2 3.60

  23  0.302  0.750  0.467-  11 2.41  16 2.41  17 2.45   2 3.40   7 3.48   7 3.48   8 3.54   3 3.60

  24  0.698  0.250  0.533-  15 2.41  12 2.41  18 2.45   1 3.40   8 3.48   8 3.48   7 3.54   4 3.60

 
  LATTYP: Found a simple orthorhombic cell.
 ALAT       =     6.7778496742
 B/A-ratio  =     1.3292516818
 C/A-ratio  =     1.7117734747
  
  Lattice vectors:
  
 A1 = (   0.0000000000,  -6.7778496742,   0.0000000000)
 A2 = (  -9.0094680786,   0.0000000000,   0.0000000000)
 A3 = (   0.0000000000,   0.0000000000, -11.6021432877)


Analysis of symmetry for initial positions (statically):
=====================================================================
 Subroutine PRICEL returns:
 Original cell was already a primitive cell.
 

 Routine SETGRP: Setting up the symmetry group for a 
 simple orthorhombic supercell.


 Subroutine GETGRP returns: Found  8 space group operations
 (whereof  2 operations were pure point group operations)
 out of a pool of  8 trial point group operations.


The static configuration has the point symmetry S_2 .
 The point group associated with its full space group is D_2h.


Analysis of symmetry for dynamics (positions and initial velocities):
=====================================================================
 Subroutine PRICEL returns:
 Original cell was already a primitive cell.
 

 Routine SETGRP: Setting up the symmetry group for a 
 simple orthorhombic supercell.


 Subroutine GETGRP returns: Found  8 space group operations
 (whereof  2 operations were pure point group operations)
 out of a pool of  8 trial point group operations.


The dynamic configuration has the point symmetry S_2 .
 The point group associated with its full space group is D_2h.


 Subroutine INISYM returns: Found  8 space group operations
 (whereof  2 operations are pure point group operations),
 and found     1 'primitive' translations

 
 
 KPOINTS: k-density: 6.0                          

Automatic generation of k-mesh.
Space group operators:
 irot       det(A)        alpha          n_x          n_y          n_z        tau_x        tau_y        tau_z
    1     1.000000     0.000000     1.000000     0.000000     0.000000     0.000000     0.000000     0.000000
    2    -1.000000     0.000000     1.000000     0.000000     0.000000     0.000000     0.000000     0.000000
    3     1.000000   180.000000     0.000000     0.000000     1.000000    -0.500000     0.000000    -0.500000
    4    -1.000000   180.000000     0.000000     0.000000     1.000000    -0.500000     0.000000    -0.500000
    5     1.000000   180.000000     1.000000     0.000000     0.000000    -0.500000    -0.500000    -0.500000
    6    -1.000000   180.000000     1.000000     0.000000     0.000000    -0.500000    -0.500000    -0.500000
    7     1.000000   180.000000     0.000000     1.000000     0.000000    -0.000000    -0.500000    -0.000000
    8    -1.000000   180.000000     0.000000     1.000000     0.000000     0.000000    -0.500000     0.000000
 
 Subroutine IBZKPT returns following result:
 ===========================================
 
 Found     36 irreducible k-points:
 
 Following reciprocal coordinates:
            Coordinates               Weight
  0.000000  0.000000  0.000000      1.000000
  0.200000  0.000000  0.000000      2.000000
  0.400000  0.000000  0.000000      2.000000
  0.000000  0.166667  0.000000      2.000000
  0.200000  0.166667  0.000000      4.000000
  0.400000  0.166667  0.000000      4.000000
  0.000000  0.333333  0.000000      2.000000
  0.200000  0.333333  0.000000      4.000000
  0.400000  0.333333  0.000000      4.000000
  0.000000  0.500000  0.000000      1.000000
  0.200000  0.500000  0.000000      2.000000
  0.400000  0.500000  0.000000      2.000000
  0.000000  0.000000  0.250000      2.000000
  0.200000  0.000000  0.250000      4.000000
  0.400000  0.000000  0.250000      4.000000
  0.000000  0.166667  0.250000      4.000000
  0.200000  0.166667  0.250000      8.000000
  0.400000  0.166667  0.250000      8.000000
  0.000000  0.333333  0.250000      4.000000
  0.200000  0.333333  0.250000      8.000000
  0.400000  0.333333  0.250000      8.000000
  0.000000  0.500000  0.250000      2.000000
  0.200000  0.500000  0.250000      4.000000
  0.400000  0.500000  0.250000      4.000000
  0.000000  0.000000  0.500000      1.000000
  0.200000  0.000000  0.500000      2.000000
  0.400000  0.000000  0.500000      2.000000
  0.000000  0.166667  0.500000      2.000000
  0.200000  0.166667  0.500000      4.000000
  0.400000  0.166667  0.500000      4.000000
  0.000000  0.333333  0.500000      2.000000
  0.200000  0.333333  0.500000      4.000000
  0.400000  0.333333  0.500000      4.000000
  0.000000  0.500000  0.500000      1.000000
  0.200000  0.500000  0.500000      2.000000
  0.400000  0.500000  0.500000      2.000000
 
 Following cartesian coordinates:
            Coordinates               Weight
  0.000000  0.000000  0.000000      1.000000
  0.022199  0.000000  0.000000      2.000000
  0.044398  0.000000  0.000000      2.000000
  0.000000  0.024590  0.000000      2.000000
  0.022199  0.024590  0.000000      4.000000
  0.044398  0.024590  0.000000      4.000000
  0.000000  0.049180  0.000000      2.000000
  0.022199  0.049180  0.000000      4.000000
  0.044398  0.049180  0.000000      4.000000
  0.000000  0.073770  0.000000      1.000000
  0.022199  0.073770  0.000000      2.000000
  0.044398  0.073770  0.000000      2.000000
  0.000000  0.000000  0.021548      2.000000
  0.022199  0.000000  0.021548      4.000000
  0.044398  0.000000  0.021548      4.000000
  0.000000  0.024590  0.021548      4.000000
  0.022199  0.024590  0.021548      8.000000
  0.044398  0.024590  0.021548      8.000000
  0.000000  0.049180  0.021548      4.000000
  0.022199  0.049180  0.021548      8.000000
  0.044398  0.049180  0.021548      8.000000
  0.000000  0.073770  0.021548      2.000000
  0.022199  0.073770  0.021548      4.000000
  0.044398  0.073770  0.021548      4.000000
  0.000000  0.000000  0.043095      1.000000
  0.022199  0.000000  0.043095      2.000000
  0.044398  0.000000  0.043095      2.000000
  0.000000  0.024590  0.043095      2.000000
  0.022199  0.024590  0.043095      4.000000
  0.044398  0.024590  0.043095      4.000000
  0.000000  0.049180  0.043095      2.000000
  0.022199  0.049180  0.043095      4.000000
  0.044398  0.049180  0.043095      4.000000
  0.000000  0.073770  0.043095      1.000000
  0.022199  0.073770  0.043095      2.000000
  0.044398  0.073770  0.043095      2.000000
 
 TETIRR: Found    360 inequivalent tetrahedra from      720


--------------------------------------------------------------------------------------------------------




 Dimension of arrays:
   k-points           NKPTS =     36   k-points in BZ     NKDIM =     36   number of bands    NBANDS=     88
   number of dos      NEDOS =    301   number of ions     NIONS =     24
   non local maximal  LDIM  =      6   non local SUM 2l+1 LMDIM =     18
   total plane-waves  NPLWV = 128000
   max r-space proj   IRMAX =   2946   max aug-charges    IRDMAX=  11507
   dimension x,y,z NGX =    50 NGY =   40 NGZ =   64
   dimension x,y,z NGXF=   100 NGYF=   80 NGZF=  128
   support grid    NGXF=   100 NGYF=   80 NGZF=  128
   ions per type =               8  16
   NGX,Y,Z   is equivalent  to a cutoff of   9.23,  9.81,  9.17 a.u.
   NGXF,Y,Z  is equivalent  to a cutoff of  18.45, 19.62, 18.34 a.u.

 SYSTEM =  unknown system                          
 POSCAR =  ba8 ge16                                

 Startparameter for this run:
   NWRITE =      2    write-flag & timer
   PREC   = normal    normal or accurate (medium, high low for compatibility)
   ISTART =      0    job   : 0-new  1-cont  2-samecut
   ICHARG =      2    charge: 1-file 2-atom 10-const
   ISPIN  =      1    spin polarized calculation?
   LNONCOLLINEAR =      F non collinear calculations
   LSORBIT =      F    spin-orbit coupling
   INIWAV =      1    electr: 0-lowe 1-rand  2-diag
   LASPH  =      F    aspherical Exc in radial PAW
   METAGGA=      F    non-selfconsistent MetaGGA calc.

 Electronic Relaxation 1
   ENCUT  =  500.0 eV  36.75 Ry    6.06 a.u.  16.43 12.36 21.15*2*pi/ulx,y,z
   ENINI  =  500.0     initial cutoff
   ENAUG  =  385.8 eV  augmentation charge cutoff
   NELM   =    100;   NELMIN=  2; NELMDL= -5     # of ELM steps 
   EDIFF  = 0.1E-05   stopping-criterion for ELM
   LREAL  =      T    real-space projection
   NLSPLINE    = F    spline interpolate recip. space projectors
   LCOMPAT=      F    compatible to vasp.4.4
   GGA_COMPAT  = T    GGA compatible to vasp.4.4-vasp.4.6
   LMAXPAW     = -100 max onsite density
   LMAXMIX     =    2 max onsite mixed and CHGCAR
   VOSKOWN=      0    Vosko Wilk Nusair interpolation
   ROPT   =   -0.00050  -0.00050
 Ionic relaxation
   EDIFFG = -.1E-01   stopping-criterion for IOM
   NSW    =    200    number of steps for IOM
   NBLOCK =      1;   KBLOCK =    200    inner block; outer block 
   IBRION =      2    ionic relax: 0-MD 1-quasi-New 2-CG
   NFREE  =      1    steps in history (QN), initial steepest desc. (CG)
   ISIF   =      3    stress and relaxation
   IWAVPR =     11    prediction:  0-non 1-charg 2-wave 3-comb
   ISYM   =      2    0-nonsym 1-usesym 2-fastsym
   LCORR  =      T    Harris-Foulkes like correction to forces

   POTIM  = 0.5000    time-step for ionic-motion
   TEIN   =    0.0    initial temperature
   TEBEG  =    0.0;   TEEND  =   0.0 temperature during run
   SMASS  =  -3.00    Nose mass-parameter (am)
   estimated Nose-frequenzy (Omega)   =  0.10E-29 period in steps =****** mass=  -0.185E-26a.u.
   SCALEE = 1.0000    scale energy and forces
   NPACO  =    256;   APACO  = 16.0  distance and # of slots for P.C.
   PSTRESS=    0.0 pullay stress

  Mass of Ions in am
   POMASS = 137.33 72.61
  Ionic Valenz
   ZVAL   =  10.00  4.00
  Atomic Wigner-Seitz radii
   RWIGS  =  -1.00 -1.00
  virtual crystal weights 
   VCA    =   1.00  1.00
   NELECT =     144.0000    total number of electrons
   NUPDOWN=      -1.0000    fix difference up-down

 DOS related values:
   EMIN   =  10.00;   EMAX   =-10.00  energy-range for DOS
   EFERMI =   0.00
   ISMEAR =    -5;   SIGMA  =   0.01  broadening in eV -4-tet -1-fermi 0-gaus

 Electronic relaxation 2 (details)
   IALGO  =     38    algorithm
   LDIAG  =      T    sub-space diagonalisation (order eigenvalues)
   LSUBROT=      F    optimize rotation matrix (better conditioning)
   TURBO    =      0    0=normal 1=particle mesh
   IRESTART =      0    0=no restart 2=restart with 2 vectors
   NREBOOT  =      0    no. of reboots
   NMIN     =      0    reboot dimension
   EREF     =   0.00    reference energy to select bands
   IMIX   =      4    mixing-type and parameters
     AMIX     =   0.40;   BMIX     =  1.00
     AMIX_MAG =   1.60;   BMIX_MAG =  1.00
     AMIN     =   0.10
     WC   =   100.;   INIMIX=   1;  MIXPRE=   1;  MAXMIX= -45

 Intra band minimization:
   WEIMIN = 0.0010     energy-eigenvalue tresh-hold
   EBREAK =  0.28E-08  absolut break condition
   DEPER  =   0.30     relativ break condition  

   TIME   =   0.40     timestep for ELM

  volume/ion in A,a.u.               =      29.52       199.21
  Fermi-wavevector in a.u.,A,eV,Ry     =   0.962541  1.818939 12.605595  0.926485
  Thomas-Fermi vector in A             =   2.092009
 
 Write flags
   LWAVE        =      T    write WAVECAR
   LDOWNSAMPLE  =      F    k-point downsampling of WAVECAR
   LCHARG       =      T    write CHGCAR
   LVTOT        =      F    write LOCPOT, total local potential
   LVHAR        =      F    write LOCPOT, Hartree potential only
   LELF         =      F    write electronic localiz. function (ELF)
   LORBIT       =      0    0 simple, 1 ext, 2 COOP (PROOUT), +10 PAW based schemes


 Dipole corrections
   LMONO  =      F    monopole corrections only (constant potential shift)
   LDIPOL =      F    correct potential (dipole corrections)
   IDIPOL =      0    1-x, 2-y, 3-z, 4-all directions 
   EPSILON=  1.0000000 bulk dielectric constant

 Exchange correlation treatment:
   GGA     =    --    GGA type
   LEXCH   =     2    internal setting for exchange type
   VOSKOWN=      0    Vosko Wilk Nusair interpolation
   LHFCALC =     F    Hartree Fock is set to
   LHFONE  =     F    Hartree Fock one center treatment
   AEXX    =    0.0000 exact exchange contribution

 Linear response parameters
   LEPSILON=     F    determine dielectric tensor
   LRPA    =     F    only Hartree local field effects (RPA)
   LNABLA  =     F    use nabla operator in PAW spheres
   LVEL    =     F    velocity operator in full k-point grid
   LINTERFAST=   F  fast interpolation
   KINTER  =     0    interpolate to denser k-point grid
   CSHIFT  =0.1000    complex shift for real part using Kramers Kronig
   OMEGAMAX=  -1.0    maximum frequency
   DEG_THRESHOLD= 0.2000000E-02 threshold for treating states as degnerate
   RTIME   =   -0.100 relaxation time in fs
  (WPLASMAI=    0.000 imaginary part of plasma frequency in eV, 0.658/RTIME)
   DFIELD  = 0.0000000 0.0000000 0.0000000 field for delta impulse in time
 
 Orbital magnetization related:
   ORBITALMAG=     F  switch on orbital magnetization
   LCHIMAG   =     F  perturbation theory with respect to B field
   DQ        =  0.001000  dq finite difference perturbation B field
   LLRAUG    =     F  two centre corrections for induced B field



--------------------------------------------------------------------------------------------------------


 conjugate gradient relaxation of ions
 charge density and potential will be updated during run
 non-spin polarized calculation
 Variant of blocked Davidson
 Davidson routine will perform the subspace rotation
 perform sub-space diagonalisation
    after iterative eigenvector-optimisation
 modified Broyden-mixing scheme, WC =      100.0
 initial mixing is a Kerker type mixing with AMIX =  0.4000 and BMIX =      1.0000
 Hartree-type preconditioning will be used
 using additional bands           16
 real space projection scheme for non local part
 use partial core corrections
 calculate Harris-corrections to forces 
   (improved forces if not selfconsistent)
 use of overlap-Matrix (Vanderbilt PP)
 Fermi weights with tetrahedron method with Bloechl corrections


--------------------------------------------------------------------------------------------------------


  energy-cutoff  :      500.00
  volume of cell :      708.48
      direct lattice vectors                 reciprocal lattice vectors
     9.009468079  0.000000000  0.000000000     0.110994344  0.000000000  0.000000000
     0.000000000  6.777849674  0.000000000     0.000000000  0.147539419  0.000000000
     0.000000000  0.000000000 11.602143288     0.000000000  0.000000000  0.086190971

  length of vectors
     9.009468079  6.777849674 11.602143288     0.110994344  0.147539419  0.086190971


 
 k-points in units of 2pi/SCALE and weight: k-density: 6.0                          
   0.00000000  0.00000000  0.00000000       0.008
   0.02219887  0.00000000  0.00000000       0.017
   0.04439774  0.00000000  0.00000000       0.017
   0.00000000  0.02458990  0.00000000       0.017
   0.02219887  0.02458990  0.00000000       0.033
   0.04439774  0.02458990  0.00000000       0.033
   0.00000000  0.04917981  0.00000000       0.017
   0.02219887  0.04917981  0.00000000       0.033
   0.04439774  0.04917981  0.00000000       0.033
   0.00000000  0.07376971  0.00000000       0.008
   0.02219887  0.07376971  0.00000000       0.017
   0.04439774  0.07376971  0.00000000       0.017
   0.00000000  0.00000000  0.02154774       0.017
   0.02219887  0.00000000  0.02154774       0.033
   0.04439774  0.00000000  0.02154774       0.033
   0.00000000  0.02458990  0.02154774       0.033
   0.02219887  0.02458990  0.02154774       0.067
   0.04439774  0.02458990  0.02154774       0.067
   0.00000000  0.04917981  0.02154774       0.033
   0.02219887  0.04917981  0.02154774       0.067
   0.04439774  0.04917981  0.02154774       0.067
   0.00000000  0.07376971  0.02154774       0.017
   0.02219887  0.07376971  0.02154774       0.033
   0.04439774  0.07376971  0.02154774       0.033
   0.00000000  0.00000000  0.04309549       0.008
   0.02219887  0.00000000  0.04309549       0.017
   0.04439774  0.00000000  0.04309549       0.017
   0.00000000  0.02458990  0.04309549       0.017
   0.02219887  0.02458990  0.04309549       0.033
   0.04439774  0.02458990  0.04309549       0.033
   0.00000000  0.04917981  0.04309549       0.017
   0.02219887  0.04917981  0.04309549       0.033
   0.04439774  0.04917981  0.04309549       0.033
   0.00000000  0.07376971  0.04309549       0.008
   0.02219887  0.07376971  0.04309549       0.017
   0.04439774  0.07376971  0.04309549       0.017
 
 k-points in reciprocal lattice and weights: k-density: 6.0                          
   0.00000000  0.00000000  0.00000000       0.008
   0.20000000  0.00000000  0.00000000       0.017
   0.40000000  0.00000000  0.00000000       0.017
   0.00000000  0.16666667  0.00000000       0.017
   0.20000000  0.16666667  0.00000000       0.033
   0.40000000  0.16666667  0.00000000       0.033
   0.00000000  0.33333333  0.00000000       0.017
   0.20000000  0.33333333  0.00000000       0.033
   0.40000000  0.33333333  0.00000000       0.033
   0.00000000  0.50000000  0.00000000       0.008
   0.20000000  0.50000000  0.00000000       0.017
   0.40000000  0.50000000  0.00000000       0.017
   0.00000000  0.00000000  0.25000000       0.017
   0.20000000  0.00000000  0.25000000       0.033
   0.40000000  0.00000000  0.25000000       0.033
   0.00000000  0.16666667  0.25000000       0.033
   0.20000000  0.16666667  0.25000000       0.067
   0.40000000  0.16666667  0.25000000       0.067
   0.00000000  0.33333333  0.25000000       0.033
   0.20000000  0.33333333  0.25000000       0.067
   0.40000000  0.33333333  0.25000000       0.067
   0.00000000  0.50000000  0.25000000       0.017
   0.20000000  0.50000000  0.25000000       0.033
   0.40000000  0.50000000  0.25000000       0.033
   0.00000000  0.00000000  0.50000000       0.008
   0.20000000  0.00000000  0.50000000       0.017
   0.40000000  0.00000000  0.50000000       0.017
   0.00000000  0.16666667  0.50000000       0.017
   0.20000000  0.16666667  0.50000000       0.033
   0.40000000  0.16666667  0.50000000       0.033
   0.00000000  0.33333333  0.50000000       0.017
   0.20000000  0.33333333  0.50000000       0.033
   0.40000000  0.33333333  0.50000000       0.033
   0.00000000  0.50000000  0.50000000       0.008
   0.20000000  0.50000000  0.50000000       0.017
   0.40000000  0.50000000  0.50000000       0.017
 
 position of ions in fractional coordinates (direct lattice) 
   0.01517300  0.25000000  0.69130999
   0.98482700  0.75000002  0.30869001
   0.48482700  0.75000002  0.19130993
   0.51517300  0.25000000  0.80869005
   0.15930900  0.75000002  0.90664998
   0.84069100  0.25000000  0.09335000
   0.34069100  0.25000000  0.40665007
   0.65930900  0.75000002  0.59334998
   0.19427001  0.07254100  0.14674400
   0.80572999  0.92745899  0.85325598
   0.30572999  0.92745899  0.64674402
   0.69427001  0.07254100  0.35325598
   0.80572999  0.57254101  0.85325598
   0.19427001  0.42745899  0.14674400
   0.69427001  0.42745899  0.35325598
   0.30572999  0.57254101  0.64674402
   0.08290500  0.75000002  0.59200102
   0.91709498  0.25000000  0.40799898
   0.41709501  0.25000000  0.09200096
   0.58290502  0.75000002  0.90799902
   0.19769400  0.25000000  0.96694000
   0.80230599  0.75000002  0.03306002
   0.30230599  0.75000002  0.46693992
   0.69769401  0.25000000  0.53306000
 
 position of ions in cartesian coordinates  (Angst):
   0.13670066  1.69446242  8.02067757
   8.87276745  5.08338737  3.58146572
   4.36803341  5.08338737  2.21960521
   4.64143467  1.69446242  9.38253784
   1.43528938  5.08338737 10.51908302
   7.57417870  1.69446242  1.08306003
   3.06944466  1.69446242  4.71801233
   5.94002342  5.08338737  6.88413143
   1.75026941  0.49167198  1.70254493
   7.25919867  6.28617763  9.89959812
   2.75446463  6.28617763  7.50361681
   6.25500345  0.49167198  4.09852648
   7.25919867  3.88059688  9.89959812
   1.75026941  2.89725280  1.70254493
   6.25500345  2.89725280  4.09852648
   2.75446463  3.88059688  7.50361681
   0.74692994  5.08338737  6.86848068
   8.26253796  1.69446242  4.73366260
   3.75780416  1.69446242  1.06740832
   5.25166416  5.08338737 10.53473473
   1.78111780  1.69446242 11.21857643
   7.22835016  5.08338737  0.38356703
   2.72361612  5.08338737  5.41750383
   6.28585196  1.69446242  6.18463850
 


--------------------------------------------------------------------------------------------------------


 k-point  1 :   0.0000 0.0000 0.0000  plane waves:   18015
 k-point  2 :   0.2000 0.0000 0.0000  plane waves:   18061
 k-point  3 :   0.4000 0.0000 0.0000  plane waves:   17963
 k-point  4 :   0.0000 0.1667 0.0000  plane waves:   17981
 k-point  5 :   0.2000 0.1667 0.0000  plane waves:   17995
 k-point  6 :   0.4000 0.1667 0.0000  plane waves:   17998
 k-point  7 :   0.0000 0.3333 0.0000  plane waves:   17997
 k-point  8 :   0.2000 0.3333 0.0000  plane waves:   17955
 k-point  9 :   0.4000 0.3333 0.0000  plane waves:   17977
 k-point 10 :   0.0000 0.5000 0.0000  plane waves:   17944
 k-point 11 :   0.2000 0.5000 0.0000  plane waves:   17950
 k-point 12 :   0.4000 0.5000 0.0000  plane waves:   17980
 k-point 13 :   0.0000 0.0000 0.2500  plane waves:   18014
 k-point 14 :   0.2000 0.0000 0.2500  plane waves:   18010
 k-point 15 :   0.4000 0.0000 0.2500  plane waves:   17976
 k-point 16 :   0.0000 0.1667 0.2500  plane waves:   17994
 k-point 17 :   0.2000 0.1667 0.2500  plane waves:   18005
 k-point 18 :   0.4000 0.1667 0.2500  plane waves:   17983
 k-point 19 :   0.0000 0.3333 0.2500  plane waves:   17983
 k-point 20 :   0.2000 0.3333 0.2500  plane waves:   17976
 k-point 21 :   0.4000 0.3333 0.2500  plane waves:   17972
 k-point 22 :   0.0000 0.5000 0.2500  plane waves:   17960
 k-point 23 :   0.2000 0.5000 0.2500  plane waves:   17998
 k-point 24 :   0.4000 0.5000 0.2500  plane waves:   17972
 k-point 25 :   0.0000 0.0000 0.5000  plane waves:   17962
 k-point 26 :   0.2000 0.0000 0.5000  plane waves:   17982
 k-point 27 :   0.4000 0.0000 0.5000  plane waves:   17990
 k-point 28 :   0.0000 0.1667 0.5000  plane waves:   17998
 k-point 29 :   0.2000 0.1667 0.5000  plane waves:   17996
 k-point 30 :   0.4000 0.1667 0.5000  plane waves:   17998
 k-point 31 :   0.0000 0.3333 0.5000  plane waves:   18010
 k-point 32 :   0.2000 0.3333 0.5000  plane waves:   18006
 k-point 33 :   0.4000 0.3333 0.5000  plane waves:   17968
 k-point 34 :   0.0000 0.5000 0.5000  plane waves:   18004
 k-point 35 :   0.2000 0.5000 0.5000  plane waves:   18000
 k-point 36 :   0.4000 0.5000 0.5000  plane waves:   17992

 maximum and minimum number of plane-waves per node :      4533     4466

 maximum number of plane-waves:     18061
 maximum index in each direction: 
   IXMAX=   16   IYMAX=   12   IZMAX=   21
   IXMIN=  -16   IYMIN=  -12   IZMIN=  -21


 real space projection operators:
  total allocation   :       5631.62 KBytes
  max/ min on nodes  :       1458.02       1357.79


 parallel 3D FFT for wavefunctions:
    minimum data exchange during FFTs selected (reduces bandwidth)
 parallel 3D FFT for charge:
    minimum data exchange during FFTs selected (reduces bandwidth)


 total amount of memory used by VASP MPI-rank0    68281. kBytes
=======================================================================

   base      :      30000. kBytes
   nonlr-proj:       2987. kBytes
   fftplans  :       2347. kBytes
   grid      :       3658. kBytes
   one-center:         93. kBytes
   wavefun   :      29196. kBytes
 
     INWAV:  cpu time    0.0000: real time    0.0000
 Broyden mixing: mesh for mixing (old mesh)
   NGX = 33   NGY = 25   NGZ = 43
  (NGX  =100   NGY  = 80   NGZ  =128)
  gives a total of  35475 points

 initial charge density was supplied:
 charge density of overlapping atoms calculated
 number of electron     144.0000000 magnetization 
 keeping initial charge density in first step


--------------------------------------------------------------------------------------------------------


 Maximum index for non-local projection operator          837
 Maximum index for augmentation-charges         1190 (set IRDMAX)


--------------------------------------------------------------------------------------------------------


 First call to EWALD:  gamma=   0.199
 Maximum number of real-space cells 3x 3x 2
 Maximum number of reciprocal cells 3x 2x 3

    FEWALD:  cpu time    0.0586: real time    0.0588


--------------------------------------- Iteration      1(   1)  ---------------------------------------


    POTLOK:  cpu time    0.0118: real time    0.0345
    SETDIJ:  cpu time    0.0027: real time    0.0036
     EDDAV:  cpu time    2.3989: real time    2.4313
 BZINTS: Fermi energy: 11.236344;144.000000 electrons
         Band energy:  13.540267;  BLOECHL correction: -0.051226
       DOS:  cpu time    0.0441: real time    0.0443
    --------------------------------------------
      LOOP:  cpu time    2.4574: real time    2.5138

 eigenvalue-minimisations  :  6336
 total energy-change (2. order) : 0.9225252E+03  (-0.5689914E+04)
 number of electron     144.0000000 magnetization 
 augmentation part      144.0000000 magnetization 

 Free energy of the ion-electron system (eV)
  ---------------------------------------------------
  alpha Z        PSCENC =       555.71601925
  Ewald energy   TEWEN  =     -6374.53395873
  -Hartree energ DENC   =      -922.55732815
  -exchange      EXHF   =         0.00000000
  -V(xc)+E(xc)   XCENC  =        84.35314616
  PAW double counting   =      3852.19140946    -3617.36696999
  entropy T*S    EENTRO =         0.00000000
  eigenvalues    EBANDS =        13.54026674
  atomic energy  EATOM  =      7331.18263396
  Solvation  Ediel_sol  =         0.00000000
  ---------------------------------------------------
  free energy    TOTEN  =       922.52521870 eV

  energy without entropy =      922.52521870  energy(sigma->0) =      922.52521870


--------------------------------------------------------------------------------------------------------




--------------------------------------- Iteration      1(   2)  ---------------------------------------


     EDDAV:  cpu time    2.9484: real time    2.9565
 BZINTS: Fermi energy:  4.079084;144.000000 electrons
         Band energy:-934.529543;  BLOECHL correction: -0.000522
       DOS:  cpu time    0.0370: real time    0.0371
    --------------------------------------------
      LOOP:  cpu time    2.9853: real time    2.9936

 eigenvalue-minimisations  :  8352
 total energy-change (2. order) :-0.9480698E+03  (-0.9182248E+03)
 number of electron     144.0000000 magnetization 
 augmentation part      144.0000000 magnetization 

 Free energy of the ion-electron system (eV)
  ---------------------------------------------------
  alpha Z        PSCENC =       555.71601925
  Ewald energy   TEWEN  =     -6374.53395873
  -Hartree energ DENC   =      -922.55732815
  -exchange      EXHF   =         0.00000000
  -V(xc)+E(xc)   XCENC  =        84.35314616
  PAW double counting   =      3852.19140946    -3617.36696999
  entropy T*S    EENTRO =         0.00000000
  eigenvalues    EBANDS =      -934.52954330
  atomic energy  EATOM  =      7331.18263396
  Solvation  Ediel_sol  =         0.00000000
  ---------------------------------------------------
  free energy    TOTEN  =       -25.54459134 eV

  energy without entropy =      -25.54459134  energy(sigma->0) =      -25.54459134


--------------------------------------------------------------------------------------------------------




--------------------------------------- Iteration      1(   3)  ---------------------------------------


     EDDAV:  cpu time    2.7480: real time    2.7558
 BZINTS: Fermi energy:  2.257814;144.000000 electrons
         Band energy:***********;  BLOECHL correction:  0.000000
       DOS:  cpu time    0.0082: real time    0.0082
    --------------------------------------------
      LOOP:  cpu time    2.7562: real time    2.7640

 eigenvalue-minimisations  :  7672
 total energy-change (2. order) :-0.8726582E+02  (-0.8628007E+02)
 number of electron     144.0000000 magnetization 
 augmentation part      144.0000000 magnetization 

 Free energy of the ion-electron system (eV)
  ---------------------------------------------------
  alpha Z        PSCENC =       555.71601925
  Ewald energy   TEWEN  =     -6374.53395873
  -Hartree energ DENC   =      -922.55732815
  -exchange      EXHF   =         0.00000000
  -V(xc)+E(xc)   XCENC  =        84.35314616
  PAW double counting   =      3852.19140946    -3617.36696999
  entropy T*S    EENTRO =         0.00000000
  eigenvalues    EBANDS =     -1021.79536247
  atomic energy  EATOM  =      7331.18263396
  Solvation  Ediel_sol  =         0.00000000
  ---------------------------------------------------
  free energy    TOTEN  =      -112.81041051 eV

  energy without entropy =     -112.81041051  energy(sigma->0) =     -112.81041051


--------------------------------------------------------------------------------------------------------




--------------------------------------- Iteration      1(   4)  ---------------------------------------


     EDDAV:  cpu time    3.1838: real time    3.1931
 BZINTS: Fermi energy:  2.228444;144.000000 electrons
         Band energy:***********;  BLOECHL correction:  0.000000
       DOS:  cpu time    0.0091: real time    0.0091
    --------------------------------------------
      LOOP:  cpu time    3.1929: real time    3.2022

 eigenvalue-minimisations  :  9424
 total energy-change (2. order) :-0.2739826E+01  (-0.2730667E+01)
 number of electron     144.0000000 magnetization 
 augmentation part      144.0000000 magnetization 

 Free energy of the ion-electron system (eV)
  ---------------------------------------------------
  alpha Z        PSCENC =       555.71601925
  Ewald energy   TEWEN  =     -6374.53395873
  -Hartree energ DENC   =      -922.55732815
  -exchange      EXHF   =         0.00000000
  -V(xc)+E(xc)   XCENC  =        84.35314616
  PAW double counting   =      3852.19140946    -3617.36696999
  entropy T*S    EENTRO =         0.00000000
  eigenvalues    EBANDS =     -1024.53518808
  atomic energy  EATOM  =      7331.18263396
  Solvation  Ediel_sol  =         0.00000000
  ---------------------------------------------------
  free energy    TOTEN  =      -115.55023612 eV

  energy without entropy =     -115.55023612  energy(sigma->0) =     -115.55023612


--------------------------------------------------------------------------------------------------------




--------------------------------------- Iteration      1(   5)  ---------------------------------------


     EDDAV:  cpu time    2.8430: real time    2.8505
 BZINTS: Fermi energy:  2.189210;144.000000 electrons
         Band energy:***********;  BLOECHL correction:  0.000000
       DOS:  cpu time    0.0083: real time    0.0083
    CHARGE:  cpu time    0.0795: real time    0.0798
    MIXING:  cpu time    0.0031: real time    0.0037
    --------------------------------------------
      LOOP:  cpu time    2.9339: real time    2.9423

 eigenvalue-minimisations  :  8168
 total energy-change (2. order) :-0.8691661E-01  (-0.8686694E-01)
 number of electron     143.9999998 magnetization 
 augmentation part      -24.1091695 magnetization 

 Broyden mixing:
  rms(total) = 0.82744E+00    rms(broyden)= 0.82744E+00
  rms(prec ) = 0.11703E+01
  weight for this iteration     100.00

 Free energy of the ion-electron system (eV)
  ---------------------------------------------------
  alpha Z        PSCENC =       555.71601925
  Ewald energy   TEWEN  =     -6374.53395873
  -Hartree energ DENC   =      -922.55732815
  -exchange      EXHF   =         0.00000000
  -V(xc)+E(xc)   XCENC  =        84.35314616
  PAW double counting   =      3852.19140946    -3617.36696999
  entropy T*S    EENTRO =         0.00000000
  eigenvalues    EBANDS =     -1024.62210470
  atomic energy  EATOM  =      7331.18263396
  Solvation  Ediel_sol  =         0.00000000
  ---------------------------------------------------
  free energy    TOTEN  =      -115.63715274 eV

  energy without entropy =     -115.63715274  energy(sigma->0) =     -115.63715274


--------------------------------------------------------------------------------------------------------




--------------------------------------- Iteration      1(   6)  ---------------------------------------


    POTLOK:  cpu time    0.0160: real time    0.0176
    SETDIJ:  cpu time    0.0028: real time    0.0028
     EDDAV:  cpu time    2.6794: real time    2.6857
 BZINTS: Fermi energy:  2.566837;144.000000 electrons
         Band energy:***********;  BLOECHL correction:  0.000000
       DOS:  cpu time    0.0080: real time    0.0080
    CHARGE:  cpu time    0.0760: real time    0.0762
    MIXING:  cpu time    0.0044: real time    0.0044
    --------------------------------------------
      LOOP:  cpu time    2.7865: real time    2.7947

 eigenvalue-minimisations  :  7488
 total energy-change (2. order) : 0.2805317E+01  (-0.6088703E+00)
 number of electron     143.9999998 magnetization 
 augmentation part      -23.8679559 magnetization 

 Broyden mixing:
  rms(total) = 0.44535E+00    rms(broyden)= 0.44535E+00
  rms(prec ) = 0.56277E+00
  weight for this iteration     100.00

 eigenvalues of (default mixing * dielectric matrix)
  average eigenvalue GAMMA=   1.9768
  1.9768

 Free energy of the ion-electron system (eV)
  ---------------------------------------------------
  alpha Z        PSCENC =       555.71601925
  Ewald energy   TEWEN  =     -6374.53395873
  -Hartree energ DENC   =      -924.20124886
  -exchange      EXHF   =         0.00000000
  -V(xc)+E(xc)   XCENC  =        86.09986701
  PAW double counting   =      3959.37081061    -3733.46996655
  entropy T*S    EENTRO =         0.00000000
  eigenvalues    EBANDS =     -1012.99599277
  atomic energy  EATOM  =      7331.18263396
  Solvation  Ediel_sol  =         0.00000000
  ---------------------------------------------------
  free energy    TOTEN  =      -112.83183608 eV

  energy without entropy =     -112.83183608  energy(sigma->0) =     -112.83183608


--------------------------------------------------------------------------------------------------------




--------------------------------------- Iteration      1(   7)  ---------------------------------------


    POTLOK:  cpu time    0.0161: real time    0.0176
    SETDIJ:  cpu time    0.0029: real time    0.0029
     EDDAV:  cpu time    2.9601: real time    2.9671
 BZINTS: Fermi energy:  2.743014;144.000000 electrons
         Band energy:***********;  BLOECHL correction:  0.000000
       DOS:  cpu time    0.0079: real time    0.0079
    CHARGE:  cpu time    0.0754: real time    0.0755
    MIXING:  cpu time    0.0028: real time    0.0142
    --------------------------------------------
      LOOP:  cpu time    3.0652: real time    3.0853

 eigenvalue-minimisations  :  8256
 total energy-change (2. order) : 0.3643224E+00  (-0.2825347E+00)
 number of electron     143.9999998 magnetization 
 augmentation part      -23.8386875 magnetization 

 Broyden mixing:
  rms(total) = 0.14499E+00    rms(broyden)= 0.14499E+00
  rms(prec ) = 0.18712E+00
  weight for this iteration     100.00

 eigenvalues of (default mixing * dielectric matrix)
  average eigenvalue GAMMA=   1.8857
  1.5985  2.1729

 Free energy of the ion-electron system (eV)
  ---------------------------------------------------
  alpha Z        PSCENC =       555.71601925
  Ewald energy   TEWEN  =     -6374.53395873
  -Hartree energ DENC   =      -922.75659298
  -exchange      EXHF   =         0.00000000
  -V(xc)+E(xc)   XCENC  =        87.94199039
  PAW double counting   =      4074.73703665    -3857.10358853
  entropy T*S    EENTRO =         0.00000000
  eigenvalues    EBANDS =     -1007.65105365
  atomic energy  EATOM  =      7331.18263396
  Solvation  Ediel_sol  =         0.00000000
  ---------------------------------------------------
  free energy    TOTEN  =      -112.46751364 eV

  energy without entropy =     -112.46751364  energy(sigma->0) =     -112.46751364


--------------------------------------------------------------------------------------------------------




--------------------------------------- Iteration      1(   8)  ---------------------------------------


    POTLOK:  cpu time    0.0166: real time    0.0178
    SETDIJ:  cpu time    0.0030: real time    0.0030
     EDDAV:  cpu time    2.5878: real time    2.5938
 BZINTS: Fermi energy:  2.758468;144.000000 electrons
         Band energy:***********;  BLOECHL correction:  0.000000
       DOS:  cpu time    0.0093: real time    0.0093
    CHARGE:  cpu time    0.0765: real time    0.0767
    MIXING:  cpu time    0.0029: real time    0.0033
    --------------------------------------------
      LOOP:  cpu time    2.6961: real time    2.7040

 eigenvalue-minimisations  :  7112
 total energy-change (2. order) : 0.2512310E-01  (-0.7132117E-01)
 number of electron     143.9999998 magnetization 
 augmentation part      -23.9802582 magnetization 

 Broyden mixing:
  rms(total) = 0.45643E-01    rms(broyden)= 0.45643E-01
  rms(prec ) = 0.79001E-01
  weight for this iteration     100.00

 eigenvalues of (default mixing * dielectric matrix)
  average eigenvalue GAMMA=   1.6729
  2.5010  1.2589  1.2589

 Free energy of the ion-electron system (eV)
  ---------------------------------------------------
  alpha Z        PSCENC =       555.71601925
  Ewald energy   TEWEN  =     -6374.53395873
  -Hartree energ DENC   =      -921.88218070
  -exchange      EXHF   =         0.00000000
  -V(xc)+E(xc)   XCENC  =        88.70393611
  PAW double counting   =      4128.67224225    -3913.56556517
  entropy T*S    EENTRO =         0.00000000
  eigenvalues    EBANDS =     -1006.73551752
  atomic energy  EATOM  =      7331.18263396
  Solvation  Ediel_sol  =         0.00000000
  ---------------------------------------------------
  free energy    TOTEN  =      -112.44239054 eV

  energy without entropy =     -112.44239054  energy(sigma->0) =     -112.44239054


--------------------------------------------------------------------------------------------------------




--------------------------------------- Iteration      1(   9)  ---------------------------------------


    POTLOK:  cpu time    0.0177: real time    0.0187
    SETDIJ:  cpu time    0.0028: real time    0.0028
     EDDAV:  cpu time    2.6377: real time    2.6440
 BZINTS: Fermi energy:  2.758820;144.000000 electrons
         Band energy:***********;  BLOECHL correction:  0.000000
       DOS:  cpu time    0.0083: real time    0.0083
    CHARGE:  cpu time    0.0757: real time    0.0759
    MIXING:  cpu time    0.0028: real time    0.0029
    --------------------------------------------
      LOOP:  cpu time    2.7451: real time    2.7525

 eigenvalue-minimisations  :  7480
 total energy-change (2. order) : 0.1633884E-01  (-0.1337034E-01)
 number of electron     143.9999998 magnetization 
 augmentation part      -23.9572507 magnetization 

 Broyden mixing:
  rms(total) = 0.14211E-01    rms(broyden)= 0.14211E-01
  rms(prec ) = 0.17588E-01
  weight for this iteration     100.00

 eigenvalues of (default mixing * dielectric matrix)
  average eigenvalue GAMMA=   1.7868
  2.3829  2.3829  1.1906  1.1906

 Free energy of the ion-electron system (eV)
  ---------------------------------------------------
  alpha Z        PSCENC =       555.71601925
  Ewald energy   TEWEN  =     -6374.53395873
  -Hartree energ DENC   =      -923.17212034
  -exchange      EXHF   =         0.00000000
  -V(xc)+E(xc)   XCENC  =        88.98888713
  PAW double counting   =      4142.14464341    -3927.80574200
  entropy T*S    EENTRO =         0.00000000
  eigenvalues    EBANDS =     -1004.94641438
  atomic energy  EATOM  =      7331.18263396
  Solvation  Ediel_sol  =         0.00000000
  ---------------------------------------------------
  free energy    TOTEN  =      -112.42605170 eV

  energy without entropy =     -112.42605170  energy(sigma->0) =     -112.42605170


--------------------------------------------------------------------------------------------------------




--------------------------------------- Iteration      1(  10)  ---------------------------------------


    POTLOK:  cpu time    0.0161: real time    0.0180
    SETDIJ:  cpu time    0.0026: real time    0.0026
     EDDAV:  cpu time    2.9705: real time    2.9776
 BZINTS: Fermi energy:  2.758416;144.000000 electrons
         Band energy:***********;  BLOECHL correction:  0.000000
       DOS:  cpu time    0.0080: real time    0.0080
    CHARGE:  cpu time    0.0755: real time    0.0757
    MIXING:  cpu time    0.0034: real time    0.0035
    --------------------------------------------
      LOOP:  cpu time    3.0761: real time    3.0853

 eigenvalue-minimisations  :  8736
 total energy-change (2. order) :-0.1042362E-02  (-0.1316456E-02)
 number of electron     143.9999998 magnetization 
 augmentation part      -23.9777470 magnetization 

 Broyden mixing:
  rms(total) = 0.65478E-02    rms(broyden)= 0.65478E-02
  rms(prec ) = 0.95181E-02
  weight for this iteration     100.00

 eigenvalues of (default mixing * dielectric matrix)
  average eigenvalue GAMMA=   1.6996
  2.7021  2.7021  1.1744  1.1744  0.7450

 Free energy of the ion-electron system (eV)
  ---------------------------------------------------
  alpha Z        PSCENC =       555.71601925
  Ewald energy   TEWEN  =     -6374.53395873
  -Hartree energ DENC   =      -923.70980077
  -exchange      EXHF   =         0.00000000
  -V(xc)+E(xc)   XCENC  =        88.97970123
  PAW double counting   =      4140.58559122    -3925.89045894
  entropy T*S    EENTRO =         0.00000000
  eigenvalues    EBANDS =     -1004.75682127
  atomic energy  EATOM  =      7331.18263396
  Solvation  Ediel_sol  =         0.00000000
  ---------------------------------------------------
  free energy    TOTEN  =      -112.42709406 eV

  energy without entropy =     -112.42709406  energy(sigma->0) =     -112.42709406


--------------------------------------------------------------------------------------------------------




--------------------------------------- Iteration      1(  11)  ---------------------------------------


    POTLOK:  cpu time    0.0169: real time    0.0182
    SETDIJ:  cpu time    0.0026: real time    0.0026
     EDDAV:  cpu time    2.7878: real time    2.7944
 BZINTS: Fermi energy:  2.757881;144.000000 electrons
         Band energy:***********;  BLOECHL correction:  0.000000
       DOS:  cpu time    0.0081: real time    0.0081
    CHARGE:  cpu time    0.0748: real time    0.0750
    MIXING:  cpu time    0.0029: real time    0.0030
    --------------------------------------------
      LOOP:  cpu time    2.8932: real time    2.9013

 eigenvalue-minimisations  :  7832
 total energy-change (2. order) : 0.9400103E-04  (-0.8433227E-04)
 number of electron     143.9999998 magnetization 
 augmentation part      -23.9805068 magnetization 

 Broyden mixing:
  rms(total) = 0.24787E-02    rms(broyden)= 0.24787E-02
  rms(prec ) = 0.35055E-02
  weight for this iteration     100.00

 eigenvalues of (default mixing * dielectric matrix)
  average eigenvalue GAMMA=   1.6164
  2.5895  2.5895  1.2095  1.2095  1.0503  1.0503

 Free energy of the ion-electron system (eV)
  ---------------------------------------------------
  alpha Z        PSCENC =       555.71601925
  Ewald energy   TEWEN  =     -6374.53395873
  -Hartree energ DENC   =      -923.91811391
  -exchange      EXHF   =         0.00000000
  -V(xc)+E(xc)   XCENC  =        89.00597311
  PAW double counting   =      4142.02153228    -3927.30010474
  entropy T*S    EENTRO =         0.00000000
  eigenvalues    EBANDS =     -1004.60098128
  atomic energy  EATOM  =      7331.18263396
  Solvation  Ediel_sol  =         0.00000000
  ---------------------------------------------------
  free energy    TOTEN  =      -112.42700006 eV

  energy without entropy =     -112.42700006  energy(sigma->0) =     -112.42700006


--------------------------------------------------------------------------------------------------------




--------------------------------------- Iteration      1(  12)  ---------------------------------------


    POTLOK:  cpu time    0.0170: real time    0.0183
    SETDIJ:  cpu time    0.0027: real time    0.0027
     EDDAV:  cpu time    2.8941: real time    2.9009
 BZINTS: Fermi energy:  2.756111;144.000000 electrons
         Band energy:***********;  BLOECHL correction:  0.000000
       DOS:  cpu time    0.0080: real time    0.0081
    CHARGE:  cpu time    0.0759: real time    0.0761
    MIXING:  cpu time    0.0029: real time    0.0030
    --------------------------------------------
      LOOP:  cpu time    3.0007: real time    3.0090

 eigenvalue-minimisations  :  7984
 total energy-change (2. order) : 0.1350782E-04  (-0.1301367E-04)
 number of electron     143.9999998 magnetization 
 augmentation part      -23.9803775 magnetization 

 Broyden mixing:
  rms(total) = 0.10650E-02    rms(broyden)= 0.10650E-02
  rms(prec ) = 0.13102E-02
  weight for this iteration     100.00

 eigenvalues of (default mixing * dielectric matrix)
  average eigenvalue GAMMA=   1.6792
  3.0815  2.5472  1.8092  1.1161  1.1161  1.0421  1.0421

 Free energy of the ion-electron system (eV)
  ---------------------------------------------------
  alpha Z        PSCENC =       555.71601925
  Ewald energy   TEWEN  =     -6374.53395873
  -Hartree energ DENC   =      -923.91487035
  -exchange      EXHF   =         0.00000000
  -V(xc)+E(xc)   XCENC  =        89.01380265
  PAW double counting   =      4142.54346599    -3927.84487131
  entropy T*S    EENTRO =         0.00000000
  eigenvalues    EBANDS =     -1004.58920802
  atomic energy  EATOM  =      7331.18263396
  Solvation  Ediel_sol  =         0.00000000
  ---------------------------------------------------
  free energy    TOTEN  =      -112.42698656 eV

  energy without entropy =     -112.42698656  energy(sigma->0) =     -112.42698656


--------------------------------------------------------------------------------------------------------




--------------------------------------- Iteration      1(  13)  ---------------------------------------


    POTLOK:  cpu time    0.0174: real time    0.0185
    SETDIJ:  cpu time    0.0026: real time    0.0026
     EDDAV:  cpu time    2.9128: real time    2.9197
 BZINTS: Fermi energy:  2.754733;144.000000 electrons
         Band energy:***********;  BLOECHL correction:  0.000000
       DOS:  cpu time    0.0081: real time    0.0081
    CHARGE:  cpu time    0.0758: real time    0.0759
    MIXING:  cpu time    0.0032: real time    0.0033
    --------------------------------------------
      LOOP:  cpu time    3.0199: real time    3.0281

 eigenvalue-minimisations  :  8360
 total energy-change (2. order) :-0.9979995E-06  (-0.2122040E-05)
 number of electron     143.9999998 magnetization 
 augmentation part      -23.9801477 magnetization 

 Broyden mixing:
  rms(total) = 0.41145E-03    rms(broyden)= 0.41145E-03
  rms(prec ) = 0.58111E-03
  weight for this iteration     100.00

 eigenvalues of (default mixing * dielectric matrix)
  average eigenvalue GAMMA=   1.6074
  2.9267  2.2936  2.2936  1.1424  1.1424  1.0846  1.0846  0.8910

 Free energy of the ion-electron system (eV)
  ---------------------------------------------------
  alpha Z        PSCENC =       555.71601925
  Ewald energy   TEWEN  =     -6374.53395873
  -Hartree energ DENC   =      -923.95870560
  -exchange      EXHF   =         0.00000000
  -V(xc)+E(xc)   XCENC  =        89.01702733
  PAW double counting   =      4142.70582734    -3927.99313280
  entropy T*S    EENTRO =         0.00000000
  eigenvalues    EBANDS =     -1004.56269830
  atomic energy  EATOM  =      7331.18263396
  Solvation  Ediel_sol  =         0.00000000
  ---------------------------------------------------
  free energy    TOTEN  =      -112.42698755 eV

  energy without entropy =     -112.42698755  energy(sigma->0) =     -112.42698755


--------------------------------------------------------------------------------------------------------




--------------------------------------- Iteration      1(  14)  ---------------------------------------


    POTLOK:  cpu time    0.0168: real time    0.0179
    SETDIJ:  cpu time    0.0027: real time    0.0027
     EDDAV:  cpu time    2.2586: real time    2.2639
 BZINTS: Fermi energy:  2.753207;144.000000 electrons
         Band energy:***********;  BLOECHL correction:  0.000000
       DOS:  cpu time    0.0082: real time    0.0082
    --------------------------------------------
      LOOP:  cpu time    2.2863: real time    2.2927

 eigenvalue-minimisations  :  6064
 total energy-change (2. order) : 0.2944353E-06  (-0.6859191E-06)
 number of electron     143.9999998 magnetization 
 augmentation part      -23.9801477 magnetization 

 Free energy of the ion-electron system (eV)
  ---------------------------------------------------
  alpha Z        PSCENC =       555.71601925
  Ewald energy   TEWEN  =     -6374.53395873
  -Hartree energ DENC   =      -923.94676821
  -exchange      EXHF   =         0.00000000
  -V(xc)+E(xc)   XCENC  =        89.01761702
  PAW double counting   =      4142.74143340    -3928.03963663
  entropy T*S    EENTRO =         0.00000000
  eigenvalues    EBANDS =     -1004.56432731
  atomic energy  EATOM  =      7331.18263396
  Solvation  Ediel_sol  =         0.00000000
  ---------------------------------------------------
  free energy    TOTEN  =      -112.42698726 eV

  energy without entropy =     -112.42698726  energy(sigma->0) =     -112.42698726


--------------------------------------------------------------------------------------------------------




 average (electrostatic) potential at core
  the test charge radii are     1.2192  1.1631
  (the norm of the test charge is              1.0000)
       1 -36.3958       2 -36.3958       3 -36.3958       4 -36.3958       5 -36.4308
       6 -36.4308       7 -36.4308       8 -36.4308       9 -35.5935      10 -35.5935
      11 -35.5935      12 -35.5935      13 -35.5935      14 -35.5935      15 -35.5935
      16 -35.5935      17 -35.5976      18 -35.5976      19 -35.5976      20 -35.5976
      21 -35.5406      22 -35.5406      23 -35.5406      24 -35.5406
 
 
 
 E-fermi :   2.7532     XC(G=0):  -9.1211     alpha+bet : -9.4964


 k-point     1 :       0.0000    0.0000    0.0000
  band No.  band energies     occupation 
      1     -25.0265      2.00000
      2     -25.0136      2.00000
      3     -25.0127      2.00000
      4     -25.0125      2.00000
      5     -24.9962      2.00000
      6     -24.9920      2.00000
      7     -24.9883      2.00000
      8     -24.9874      2.00000
      9     -10.6583      2.00000
     10     -10.6246      2.00000
     11     -10.5816      2.00000
     12     -10.4901      2.00000
     13     -10.4448      2.00000
     14     -10.4146      2.00000
     15     -10.3979      2.00000
     16     -10.3938      2.00000
     17     -10.3679      2.00000
     18     -10.3576      2.00000
     19     -10.3315      2.00000
     20     -10.3295      2.00000
     21     -10.3045      2.00000
     22     -10.2678      2.00000
     23     -10.2460      2.00000
     24     -10.2439      2.00000
     25     -10.2357      2.00000
     26     -10.2340      2.00000
     27     -10.2105      2.00000
     28     -10.2022      2.00000
     29     -10.1987      2.00000
     30     -10.1812      2.00000
     31     -10.1774      2.00000
     32     -10.1684      2.00000
     33      -9.3435      2.00000
     34      -9.0367      2.00000
     35      -9.0136      2.00000
     36      -8.9550      2.00000
     37      -4.2485      2.00000
     38      -4.2108      2.00000
     39      -3.9843      2.00000
     40      -3.9670      2.00000
     41      -3.9060      2.00000
     42      -3.8830      2.00000
     43      -3.8628      2.00000
     44      -3.8383      2.00000
     45      -3.8019      2.00000
     46      -3.7377      2.00000
     47      -3.7047      2.00000
     48      -3.5785      2.00000
     49      -0.9257      2.00000
     50       0.1088      2.00000
     51       0.2662      2.00000
     52       0.3515      2.00000
     53       0.3723      2.00000
     54       0.6073      2.00000
     55       0.8602      2.00000
     56       0.8951      2.00000
     57       0.9745      2.00000
     58       0.9957      2.00000
     59       0.9994      2.00000
     60       1.1797      2.00000
     61       1.2213      2.00000
     62       1.2320      2.00000
     63       1.3766      2.00000
     64       1.4611      2.00000
     65       1.6013      2.00000
     66       1.6754      2.00000
     67       1.6856      2.00000
     68       1.7151      2.00000
     69       2.0616      2.00000
     70       2.3083      2.00000
     71       2.3316      2.00000
     72       2.4901      2.00000
     73       3.7508      0.00000
     74       3.7569      0.00000
     75       4.0842      0.00000
     76       4.2064      0.00000
     77       4.2709      0.00000
     78       4.5322      0.00000
     79       4.6594      0.00000
     80       4.7837      0.00000
     81       5.0660      0.00000
     82       5.2146      0.00000
     83       5.2571      0.00000
     84       5.2741      0.00000
     85       5.3852      0.00000
     86       5.4657      0.00000
     87       5.5038      0.00000
     88       5.7717      0.00000

 k-point     2 :       0.2000    0.0000    0.0000
  band No.  band energies     occupation 
      1     -25.0254      2.00000
      2     -25.0149      2.00000
      3     -25.0126      2.00000
      4     -25.0125      2.00000
      5     -24.9959      2.00000
      6     -24.9924      2.00000
      7     -24.9881      2.00000
      8     -24.9874      2.00000
      9     -10.6671      2.00000
     10     -10.6116      2.00000
     11     -10.5917      2.00000
     12     -10.4794      2.00000
     13     -10.4191      2.00000
     14     -10.4023      2.00000
     15     -10.3960      2.00000
     16     -10.3883      2.00000
     17     -10.3746      2.00000
     18     -10.3724      2.00000
     19     -10.3391      2.00000
     20     -10.3386      2.00000
     21     -10.3302      2.00000
     22     -10.2649      2.00000
     23     -10.2568      2.00000
     24     -10.2394      2.00000
     25     -10.2331      2.00000
     26     -10.2298      2.00000
     27     -10.2201      2.00000
     28     -10.2038      2.00000
     29     -10.1960      2.00000
     30     -10.1909      2.00000
     31     -10.1888      2.00000
     32     -10.1641      2.00000
     33      -9.2860      2.00000
     34      -9.0260      2.00000
     35      -9.0205      2.00000
     36      -8.9543      2.00000
     37      -4.2463      2.00000
     38      -4.2081      2.00000
     39      -4.0276      2.00000
     40      -3.9692      2.00000
     41      -3.9688      2.00000
     42      -3.8858      2.00000
     43      -3.8416      2.00000
     44      -3.8212      2.00000
     45      -3.7819      2.00000
     46      -3.7627      2.00000
     47      -3.7231      2.00000
     48      -3.6868      2.00000
     49      -0.7908      2.00000
     50       0.2132      2.00000
     51       0.2204      2.00000
     52       0.2535      2.00000
     53       0.3754      2.00000
     54       0.7745      2.00000
     55       0.8190      2.00000
     56       0.9204      2.00000
     57       1.0358      2.00000
     58       1.0682      2.00000
     59       1.0968      2.00000
     60       1.1578      2.00000
     61       1.3364      2.00000
     62       1.3404      2.00000
     63       1.3775      2.00000
     64       1.5263      2.00000
     65       1.6104      2.00000
     66       1.6190      2.00000
     67       1.6971      2.00000
     68       1.7640      2.00000
     69       2.0436      2.00000
     70       2.2721      2.00000
     71       2.3324      2.00000
     72       2.4032      2.00000
     73       3.6855      0.00000
     74       3.7784      0.00000
     75       4.0300      0.00000
     76       4.2058      0.00000
     77       4.2218      0.00000
     78       4.4982      0.00000
     79       4.5379      0.00000
     80       4.5843      0.00000
     81       4.7141      0.00000
     82       5.0662      0.00000
     83       5.0928      0.00000
     84       5.4974      0.00000
     85       5.5830      0.00000
     86       5.5869      0.00000
     87       5.7477      0.00000
     88       5.8198      0.00000

 k-point     3 :       0.4000    0.0000    0.0000
  band No.  band energies     occupation 
      1     -25.0223      2.00000
      2     -25.0183      2.00000
      3     -25.0124      2.00000
      4     -25.0124      2.00000
      5     -24.9950      2.00000
      6     -24.9936      2.00000
      7     -24.9878      2.00000
      8     -24.9875      2.00000
      9     -10.6716      2.00000
     10     -10.6532      2.00000
     11     -10.5084      2.00000
     12     -10.4500      2.00000
     13     -10.4097      2.00000
     14     -10.4027      2.00000
     15     -10.4012      2.00000
     16     -10.3937      2.00000
     17     -10.3737      2.00000
     18     -10.3721      2.00000
     19     -10.3615      2.00000
     20     -10.3554      2.00000
     21     -10.3489      2.00000
     22     -10.3357      2.00000
     23     -10.2628      2.00000
     24     -10.2577      2.00000
     25     -10.2251      2.00000
     26     -10.2199      2.00000
     27     -10.2115      2.00000
     28     -10.2071      2.00000
     29     -10.1994      2.00000
     30     -10.1866      2.00000
     31     -10.1761      2.00000
     32     -10.1657      2.00000
     33      -9.1701      2.00000
     34      -9.0741      2.00000
     35      -8.9863      2.00000
     36      -8.9609      2.00000
     37      -4.2348      2.00000
     38      -4.1849      2.00000
     39      -4.1392      2.00000
     40      -4.0265      2.00000
     41      -3.9261      2.00000
     42      -3.8697      2.00000
     43      -3.8496      2.00000
     44      -3.8434      2.00000
     45      -3.8340      2.00000
     46      -3.7766      2.00000
     47      -3.7720      2.00000
     48      -3.7719      2.00000
     49      -0.4729      2.00000
     50      -0.0835      2.00000
     51       0.1973      2.00000
     52       0.2233      2.00000
     53       0.6130      2.00000
     54       0.7740      2.00000
     55       0.9858      2.00000
     56       1.0497      2.00000
     57       1.0616      2.00000
     58       1.1133      2.00000
     59       1.1477      2.00000
     60       1.3184      2.00000
     61       1.4449      2.00000
     62       1.4547      2.00000
     63       1.4765      2.00000
     64       1.5444      2.00000
     65       1.6778      2.00000
     66       1.7303      2.00000
     67       1.7748      2.00000
     68       1.9238      2.00000
     69       2.0548      2.00000
     70       2.0867      2.00000
     71       2.1688      2.00000
     72       2.2402      2.00000
     73       3.7806      0.00000
     74       3.8738      0.00000
     75       3.9842      0.00000
     76       4.0388      0.00000
     77       4.0730      0.00000
     78       4.1120      0.00000
     79       4.3318      0.00000
     80       4.3645      0.00000
     81       4.8758      0.00000
     82       5.0870      0.00000
     83       5.1216      0.00000
     84       5.2741      0.00000
     85       5.3457      0.00000
     86       5.4786      0.00000
     87       5.5529      0.00000
     88       5.7173      0.00000

 k-point     4 :       0.0000    0.1667    0.0000
  band No.  band energies     occupation 
      1     -25.0247      2.00000
      2     -25.0131      2.00000
      3     -25.0122      2.00000
      4     -25.0117      2.00000
      5     -24.9976      2.00000
      6     -24.9921      2.00000
      7     -24.9897      2.00000
      8     -24.9880      2.00000
      9     -10.6473      2.00000
     10     -10.6266      2.00000
     11     -10.6227      2.00000
     12     -10.4544      2.00000
     13     -10.4516      2.00000
     14     -10.4465      2.00000
     15     -10.4389      2.00000
     16     -10.4281      2.00000
     17     -10.3909      2.00000
     18     -10.3420      2.00000
     19     -10.3208      2.00000
     20     -10.2959      2.00000
     21     -10.2860      2.00000
     22     -10.2848      2.00000
     23     -10.2798      2.00000
     24     -10.2419      2.00000
     25     -10.2312      2.00000
     26     -10.2293      2.00000
     27     -10.2102      2.00000
     28     -10.1944      2.00000
     29     -10.1908      2.00000
     30     -10.1869      2.00000
     31     -10.1815      2.00000
     32     -10.1600      2.00000
     33      -9.2622      2.00000
     34      -9.0224      2.00000
     35      -9.0075      2.00000
     36      -8.9594      2.00000
     37      -4.1932      2.00000
     38      -4.1639      2.00000
     39      -3.9670      2.00000
     40      -3.9630      2.00000
     41      -3.9459      2.00000
     42      -3.9026      2.00000
     43      -3.8629      2.00000
     44      -3.8241      2.00000
     45      -3.8086      2.00000
     46      -3.7701      2.00000
     47      -3.7336      2.00000
     48      -3.5849      2.00000
     49      -0.6910      2.00000
     50       0.1837      2.00000
     51       0.3206      2.00000
     52       0.3863      2.00000
     53       0.4163      2.00000
     54       0.5215      2.00000
     55       0.5803      2.00000
     56       0.9409      2.00000
     57       0.9916      2.00000
     58       1.0425      2.00000
     59       1.1402      2.00000
     60       1.1769      2.00000
     61       1.2294      2.00000
     62       1.2950      2.00000
     63       1.3879      2.00000
     64       1.4130      2.00000
     65       1.5330      2.00000
     66       1.5570      2.00000
     67       1.7225      2.00000
     68       1.7311      2.00000
     69       1.9628      2.00000
     70       2.0518      2.00000
     71       2.5029      2.00000
     72       2.5962      2.00000
     73       3.5728      0.00000
     74       3.7162      0.00000
     75       4.1905      0.00000
     76       4.3426      0.00000
     77       4.3907      0.00000
     78       4.5749      0.00000
     79       4.5772      0.00000
     80       4.7570      0.00000
     81       4.8824      0.00000
     82       4.9553      0.00000
     83       5.0960      0.00000
     84       5.2979      0.00000
     85       5.3584      0.00000
     86       5.3727      0.00000
     87       5.4632      0.00000
     88       5.5732      0.00000

 k-point     5 :       0.2000    0.1667    0.0000
  band No.  band energies     occupation 
      1     -25.0237      2.00000
      2     -25.0142      2.00000
      3     -25.0122      2.00000
      4     -25.0117      2.00000
      5     -24.9972      2.00000
      6     -24.9926      2.00000
      7     -24.9895      2.00000
      8     -24.9882      2.00000
      9     -10.6630      2.00000
     10     -10.6436      2.00000
     11     -10.5989      2.00000
     12     -10.4570      2.00000
     13     -10.4528      2.00000
     14     -10.4336      2.00000
     15     -10.4334      2.00000
     16     -10.4042      2.00000
     17     -10.3927      2.00000
     18     -10.3580      2.00000
     19     -10.3424      2.00000
     20     -10.3011      2.00000
     21     -10.3003      2.00000
     22     -10.2870      2.00000
     23     -10.2675      2.00000
     24     -10.2385      2.00000
     25     -10.2284      2.00000
     26     -10.2218      2.00000
     27     -10.2216      2.00000
     28     -10.2096      2.00000
     29     -10.1955      2.00000
     30     -10.1765      2.00000
     31     -10.1764      2.00000
     32     -10.1623      2.00000
     33      -9.2190      2.00000
     34      -9.0165      2.00000
     35      -9.0085      2.00000
     36      -8.9575      2.00000
     37      -4.1878      2.00000
     38      -4.1766      2.00000
     39      -4.0293      2.00000
     40      -3.9697      2.00000
     41      -3.9343      2.00000
     42      -3.9109      2.00000
     43      -3.8837      2.00000
     44      -3.8252      2.00000
     45      -3.8237      2.00000
     46      -3.7574      2.00000
     47      -3.7540      2.00000
     48      -3.6589      2.00000
     49      -0.5766      2.00000
     50       0.2832      2.00000
     51       0.3132      2.00000
     52       0.3230      2.00000
     53       0.4082      2.00000
     54       0.5986      2.00000
     55       0.7262      2.00000
     56       0.9701      2.00000
     57       1.0521      2.00000
     58       1.0541      2.00000
     59       1.1417      2.00000
     60       1.1583      2.00000
     61       1.3055      2.00000
     62       1.3241      2.00000
     63       1.3777      2.00000
     64       1.4961      2.00000
     65       1.5738      2.00000
     66       1.5945      2.00000
     67       1.7315      2.00000
     68       1.8164      2.00000
     69       1.9914      2.00000
     70       2.0395      2.00000
     71       2.4080      2.00000
     72       2.4683      2.00000
     73       3.6187      0.00000
     74       3.7349      0.00000
     75       4.0980      0.00000
     76       4.1291      0.00000
     77       4.3505      0.00000
     78       4.3758      0.00000
     79       4.4808      0.00000
     80       4.6816      0.00000
     81       4.7446      0.00000
     82       5.0409      0.00000
     83       5.0655      0.00000
     84       5.1201      0.00000
     85       5.3584      0.00000
     86       5.3832      0.00000
     87       5.5290      0.00000
     88       5.6132      0.00000

 k-point     6 :       0.4000    0.1667    0.0000
  band No.  band energies     occupation 
      1     -25.0209      2.00000
      2     -25.0172      2.00000
      3     -25.0119      2.00000
      4     -25.0117      2.00000
      5     -24.9958      2.00000
      6     -24.9940      2.00000
      7     -24.9890      2.00000
      8     -24.9885      2.00000
      9     -10.6801      2.00000
     10     -10.6735      2.00000
     11     -10.5332      2.00000
     12     -10.4731      2.00000
     13     -10.4485      2.00000
     14     -10.4305      2.00000
[...]
     17     -10.0266      2.00000
     18     -10.0266      2.00000
     19      -9.8870      2.00000
     20      -9.8870      2.00000
     21      -9.8728      2.00000
     22      -9.8728      2.00000
     23      -9.8303      2.00000
     24      -9.8303      2.00000
     25      -9.8125      2.00000
     26      -9.8125      2.00000
     27      -9.7420      2.00000
     28      -9.7420      2.00000
     29      -9.7302      2.00000
     30      -9.7302      2.00000
     31      -9.7302      2.00000
     32      -9.7302      2.00000
     33      -7.8909      2.00000
     34      -7.8909      2.00000
     35      -7.8818      2.00000
     36      -7.8818      2.00000
     37      -4.1189      2.00000
     38      -4.1189      2.00000
     39      -3.7697      2.00000
     40      -3.7697      2.00000
     41      -3.6972      2.00000
     42      -3.6972      2.00000
     43      -3.6158      2.00000
     44      -3.6158      2.00000
     45      -3.5416      2.00000
     46      -3.5416      2.00000
     47      -3.3422      2.00000
     48      -3.3422      2.00000
     49       0.3148      2.00000
     50       0.3148      2.00000
     51       0.3895      2.00000
     52       0.3895      2.00000
     53       0.8150      2.00000
     54       0.8150      2.00000
     55       0.8888      2.00000
     56       0.8888      2.00000
     57       1.2591      2.00000
     58       1.2591      2.00000
     59       1.4397      2.00000
     60       1.4397      2.00000
     61       1.6950      2.00000
     62       1.6950      2.00000
     63       1.7101      2.00000
     64       1.7101      2.00000
     65       1.9964      2.00000
     66       1.9964      2.00000
     67       2.0117      2.00000
     68       2.0117      2.00000
     69       2.3978      2.00000
     70       2.3978      2.00000
     71       2.6487      2.00000
     72       2.6487      2.00000
     73       3.5476      0.00000
     74       3.5476      0.00000
     75       3.6859      0.00000
     76       3.6859      0.00000
     77       4.1389      0.00000
     78       4.1389      0.00000
     79       4.3572      0.00000
     80       4.3572      0.00000
     81       4.8469      0.00000
     82       4.8469      0.00000
     83       4.8693      0.00000
     84       4.8693      0.00000
     85       5.3873      0.00000
     86       5.3873      0.00000
     87       5.7284      0.00000
     88       5.7284      0.00000

 k-point    36 :       0.4000    0.5000    0.5000
  band No.  band energies     occupation 
      1     -24.5550      2.00000
      2     -24.5550      2.00000
      3     -24.5548      2.00000
      4     -24.5548      2.00000
      5     -24.5241      2.00000
      6     -24.5241      2.00000
      7     -24.5213      2.00000
      8     -24.5213      2.00000
      9     -10.2652      2.00000
     10     -10.2652      2.00000
     11     -10.2341      2.00000
     12     -10.2341      2.00000
     13     -10.1268      2.00000
     14     -10.1268      2.00000
     15     -10.1006      2.00000
     16     -10.1006      2.00000
     17      -9.9705      2.00000
     18      -9.9705      2.00000
     19      -9.8993      2.00000
     20      -9.8993      2.00000
     21      -9.8396      2.00000
     22      -9.8396      2.00000
     23      -9.8355      2.00000
     24      -9.8355      2.00000
     25      -9.7835      2.00000
     26      -9.7835      2.00000
     27      -9.7624      2.00000
     28      -9.7624      2.00000
     29      -9.7396      2.00000
     30      -9.7396      2.00000
     31      -9.7377      2.00000
     32      -9.7377      2.00000
     33      -7.8705      2.00000
     34      -7.8705      2.00000
     35      -7.8670      2.00000
     36      -7.8670      2.00000
     37      -4.0611      2.00000
     38      -4.0611      2.00000
     39      -3.9452      2.00000
     40      -3.9452      2.00000
     41      -3.7060      2.00000
     42      -3.7060      2.00000
     43      -3.6642      2.00000
     44      -3.6642      2.00000
     45      -3.4876      2.00000
     46      -3.4876      2.00000
     47      -3.4067      2.00000
     48      -3.4067      2.00000
     49       0.4522      2.00000
     50       0.4522      2.00000
     51       0.5457      2.00000
     52       0.5457      2.00000
     53       0.9420      2.00000
     54       0.9420      2.00000
     55       1.0534      2.00000
     56       1.0534      2.00000
     57       1.3222      2.00000
     58       1.3222      2.00000
     59       1.4558      2.00000
     60       1.4558      2.00000
     61       1.5223      2.00000
     62       1.5223      2.00000
     63       1.6087      2.00000
     64       1.6087      2.00000
     65       2.0131      2.00000
     66       2.0131      2.00000
     67       2.0826      2.00000
     68       2.0826      2.00000
     69       2.5308      2.00000
     70       2.5308      2.00000
     71       2.5355      2.00000
     72       2.5355      2.00000
     73       3.6177      0.00000
     74       3.6177      0.00000
     75       3.7975      0.00000
     76       3.7975      0.00000
     77       3.9982      0.00000
     78       3.9982      0.00000
     79       4.2553      0.00000
     80       4.2553      0.00000
     81       4.8249      0.00000
     82       4.8249      0.00000
     83       4.9264      0.00000
     84       4.9264      0.00000
     85       5.3026      0.00000
     86       5.3026      0.00000
     87       5.3239      0.00000
     88       5.3239      0.00000


--------------------------------------------------------------------------------------------------------


 soft charge-density along one line, spin component           1
         0         1         2         3         4         5         6         7         8         9
 total charge-density along one line
 
 pseudopotential strength for first ion, spin component:           1
  1.441  -4.734  -0.000   0.004   0.002  -0.000   0.002   0.001
 -4.734  -3.032   0.000  -0.001  -0.000  -0.000   0.001   0.000
 -0.000   0.000  -7.659  -0.000  -0.000   1.187  -0.000  -0.000
  0.004  -0.001  -0.000  -7.658  -0.001  -0.000   1.189  -0.002
  0.002  -0.000  -0.000  -0.001  -7.658  -0.000  -0.002   1.187
 -0.000  -0.000   1.187  -0.000  -0.000   7.329  -0.000  -0.000
  0.002   0.001  -0.000   1.189  -0.002  -0.000   7.329  -0.000
  0.001   0.000  -0.000  -0.002   1.187  -0.000  -0.000   7.330
 -0.000   0.000   0.000  -0.000  -0.000   0.000  -0.000  -0.000
 -0.000   0.000   0.001  -0.000  -0.000   0.001  -0.000  -0.000
  0.001  -0.000   0.000   0.001  -0.000   0.000   0.001  -0.000
 -0.001   0.001  -0.000   0.001   0.001  -0.000   0.001   0.001
  0.000  -0.000   0.000  -0.000   0.001   0.000  -0.000   0.000
  0.000   0.000  -0.000   0.000   0.000   0.000   0.000   0.000
  0.000   0.000  -0.000   0.000   0.000  -0.000   0.000   0.000
 -0.000  -0.000  -0.000  -0.000   0.000  -0.000  -0.000  -0.000
  0.000   0.000   0.000  -0.000  -0.000   0.000  -0.000  -0.000
 -0.000  -0.000  -0.000   0.000  -0.000  -0.000   0.000  -0.000
 total augmentation occupancy for first ion, spin component:           1
  2.115  -0.279   0.000  -0.005  -0.004   0.000   0.002   0.001   0.000   0.000   0.006  -0.014  -0.000  -0.000   0.000  -0.004
 -0.279   0.651   0.000   0.014   0.009   0.000  -0.006  -0.002  -0.000   0.000  -0.010   0.028   0.002   0.000   0.000   0.015
  0.000  -0.000   2.009  -0.000  -0.000  -0.009   0.000   0.000  -0.015  -0.003   0.000   0.000   0.000   0.021   0.007   0.000
 -0.005   0.014  -0.000   2.005   0.004   0.000  -0.007  -0.002   0.000   0.000   0.001   0.025   0.005   0.000   0.000   0.008
 -0.004   0.009  -0.000   0.004   2.008   0.000  -0.002  -0.009   0.000  -0.000   0.014   0.009   0.015   0.000  -0.000  -0.020
  0.000  -0.000  -0.009   0.000   0.000   0.011   0.000   0.000   0.007   0.003  -0.000   0.000   0.000  -0.011  -0.007   0.000
  0.002  -0.006   0.000  -0.007  -0.002  -0.000   0.011   0.001   0.000   0.000  -0.000  -0.010  -0.003   0.000  -0.000   0.001
  0.001  -0.002   0.000  -0.002  -0.009   0.000   0.001   0.012   0.000   0.000  -0.006  -0.004  -0.006  -0.000   0.000   0.011
 -0.000   0.000  -0.015   0.000  -0.000   0.007   0.000  -0.000   0.137  -0.040   0.000  -0.000   0.000  -0.261   0.079  -0.000
  0.000   0.000  -0.003  -0.000  -0.000   0.003   0.000  -0.000  -0.040   0.090   0.000   0.000   0.000   0.079  -0.171  -0.000
  0.006  -0.010   0.000   0.001   0.014   0.000  -0.000  -0.006   0.000   0.000   0.122   0.029   0.014  -0.000  -0.000  -0.232
 -0.014   0.028   0.000   0.025   0.009   0.000  -0.010  -0.004  -0.000   0.000   0.029   0.128   0.031   0.000   0.000  -0.059
 -0.000   0.002  -0.000   0.005   0.015  -0.000  -0.003  -0.006   0.000  -0.000   0.014   0.031   0.104  -0.000  -0.000  -0.021
  0.000  -0.000   0.021   0.000  -0.000  -0.011   0.000  -0.000  -0.261   0.079  -0.000  -0.000  -0.000   0.536  -0.175   0.000
  0.000  -0.000   0.007   0.000  -0.000  -0.007  -0.000  -0.000   0.079  -0.171   0.000   0.000  -0.000  -0.175   0.348   0.000
 -0.004   0.015  -0.000   0.008  -0.020   0.000   0.001   0.011  -0.000  -0.000  -0.232  -0.059  -0.021  -0.000   0.000   0.478
  0.012  -0.035   0.000  -0.035  -0.003   0.000   0.018   0.005   0.000  -0.000  -0.059  -0.240  -0.056   0.000  -0.000   0.135
  0.005  -0.014   0.000  -0.004  -0.020   0.000   0.005   0.009  -0.000   0.000  -0.021  -0.056  -0.191   0.000  -0.000   0.035


------------------------ aborting loop because EDIFF is reached ----------------------------------------


    CHARGE:  cpu time    0.0781: real time    0.0783
    FORLOC:  cpu time    0.0037: real time    0.0037
    FORNL :  cpu time    0.4138: real time    0.4147
    STRESS:  cpu time    1.2471: real time    1.2501
    FORCOR:  cpu time    0.0091: real time    0.0091
    FORHAR:  cpu time    0.0078: real time    0.0079
    MIXING:  cpu time    0.0029: real time    0.0029
    OFIELD:  cpu time    0.0000: real time    0.0000

  FORCE on cell =-STRESS in cart. coord.  units (eV):
  Direction    XX          YY          ZZ          XY          YZ          ZX
  --------------------------------------------------------------------------------------
  Alpha Z   579.77589   579.77589   579.77589
  Ewald   -2183.62279 -2172.27819 -2164.07742    -0.00000    -0.00000    -0.00012
  Hartree   278.77538   289.85635   288.94933     0.00000    -0.00000     0.00001
  E(xc)    -476.37058  -476.08956  -476.00304    -0.00000    -0.00000    -0.00000
  Local     227.57760   210.74274   205.05033     0.00000    -0.00000     0.00007
  n-local    35.47455    33.36358    33.66788    -0.18518    -0.03301    -0.05256
  augment   -59.52165   -58.95717   -58.99717    -0.00000     0.00000    -0.00000
  Kinetic  1597.89302  1593.63472  1591.63412     0.76078    -1.07450     0.18539
  Fock        0.00000     0.00000     0.00000     0.00000     0.00000     0.00000
  -------------------------------------------------------------------------------------
  Total      -0.01858     0.04835    -0.00008    -0.00000     0.00000     0.00000
  in kB      -0.04383     0.11408    -0.00018    -0.00000     0.00000     0.00000
  external pressure =        0.02 kB  Pullay stress =        0.00 kB


 VOLUME and BASIS-vectors are now :
 -----------------------------------------------------------------------------
  energy-cutoff  :      500.00
  volume of cell :      679.08
      direct lattice vectors                 reciprocal lattice vectors
     8.907029500 -0.000000000  0.000000000     0.112270875 -0.000000000  0.000000000
     0.000000000  6.700356686  0.000000000     0.000000000  0.149245786  0.000000000
     0.000000000  0.000000000 11.378663594     0.000000000  0.000000000  0.087883783

  length of vectors
     8.907029500  6.700356686 11.378663594     0.112270875  0.149245786  0.087883783


 FORCES acting on ions
    electron-ion (+dipol)            ewald-force                    non-local-force                 convergence-correction
 -----------------------------------------------------------------------------------------------
   0.275E+01 0.769E-04 0.770E+01   -.304E+01 0.144E-04 -.798E+01   0.286E+00 0.143E-17 0.283E+00   -.337E-03 0.376E-08 -.101E-03
   -.275E+01 0.560E-05 -.770E+01   0.304E+01 -.202E-04 0.798E+01   -.286E+00 0.214E-17 -.283E+00   0.337E-03 0.330E-08 0.101E-03
   -.275E+01 0.175E-05 0.770E+01   0.304E+01 -.202E-04 -.798E+01   -.286E+00 -.178E-17 0.283E+00   0.337E-03 0.371E-08 -.101E-03
   0.275E+01 0.731E-04 -.770E+01   -.304E+01 0.144E-04 0.798E+01   0.286E+00 0.173E-17 -.283E+00   -.337E-03 0.416E-08 0.101E-03
   -.218E+02 0.414E-05 -.506E+01   0.209E+02 -.183E-04 0.506E+01   0.855E+00 -.380E-18 0.305E-02   -.603E-03 -.267E-09 0.635E-04
   0.218E+02 0.750E-04 0.506E+01   -.209E+02 0.174E-04 -.506E+01   -.855E+00 0.252E-18 -.305E-02   0.603E-03 -.147E-09 -.635E-04
   0.218E+02 0.746E-04 -.506E+01   -.209E+02 0.174E-04 0.506E+01   -.855E+00 -.142E-17 0.305E-02   0.603E-03 -.319E-09 0.635E-04
   -.218E+02 0.373E-05 0.506E+01   0.209E+02 -.183E-04 -.506E+01   0.855E+00 0.126E-17 -.305E-02   -.603E-03 -.439E-09 -.635E-04
   0.615E+01 0.201E+02 -.112E+02   -.662E+01 -.213E+02 0.119E+02   0.478E+00 0.125E+01 -.675E+00   0.537E-05 0.777E-04 -.770E-04
   -.615E+01 -.201E+02 0.112E+02   0.662E+01 0.213E+02 -.119E+02   -.478E+00 -.125E+01 0.675E+00   -.537E-05 -.777E-04 0.770E-04
   -.615E+01 -.201E+02 -.112E+02   0.662E+01 0.213E+02 0.119E+02   -.478E+00 -.125E+01 -.675E+00   -.537E-05 -.777E-04 -.770E-04
   0.615E+01 0.201E+02 0.112E+02   -.662E+01 -.213E+02 -.119E+02   0.478E+00 0.125E+01 0.675E+00   0.537E-05 0.777E-04 0.770E-04
   -.615E+01 0.201E+02 0.112E+02   0.662E+01 -.213E+02 -.119E+02   -.478E+00 0.125E+01 0.675E+00   -.537E-05 0.777E-04 0.770E-04
   0.615E+01 -.201E+02 -.112E+02   -.662E+01 0.213E+02 0.119E+02   0.478E+00 -.125E+01 -.675E+00   0.537E-05 -.777E-04 -.770E-04
   0.615E+01 -.201E+02 0.112E+02   -.662E+01 0.213E+02 -.119E+02   0.478E+00 -.125E+01 0.675E+00   0.537E-05 -.777E-04 0.770E-04
   -.615E+01 0.201E+02 -.112E+02   0.662E+01 -.213E+02 0.119E+02   -.478E+00 0.125E+01 -.675E+00   -.537E-05 0.777E-04 -.770E-04
   0.317E+02 -.106E-04 0.218E+01   -.333E+02 -.830E-05 -.263E+01   0.156E+01 -.123E-17 0.440E+00   0.133E-03 -.111E-08 -.747E-04
   -.317E+02 0.462E-05 -.218E+01   0.333E+02 0.844E-05 0.263E+01   -.156E+01 0.257E-17 -.440E+00   -.133E-03 -.115E-08 0.747E-04
   -.317E+02 0.107E-04 0.218E+01   0.333E+02 0.844E-05 -.263E+01   -.156E+01 0.388E-17 0.440E+00   -.133E-03 -.122E-08 -.747E-04
   0.317E+02 -.455E-05 -.218E+01   -.333E+02 -.830E-05 0.263E+01   0.156E+01 -.417E-17 -.440E+00   0.133E-03 -.118E-08 0.747E-04
   0.272E+01 0.862E-06 0.225E+02   -.296E+01 0.898E-05 -.241E+02   0.232E+00 0.262E-18 0.151E+01   0.131E-03 -.305E-09 0.293E-03
   -.272E+01 -.140E-04 -.225E+02   0.296E+01 -.954E-05 0.241E+02   -.232E+00 -.560E-19 -.151E+01   -.131E-03 -.177E-09 -.293E-03
   -.272E+01 -.679E-06 0.225E+02   0.296E+01 -.954E-05 -.241E+02   -.232E+00 -.836E-18 0.151E+01   -.131E-03 0.124E-09 0.293E-03
   0.272E+01 0.142E-04 -.225E+02   -.296E+01 0.898E-05 0.241E+02   0.232E+00 -.326E-18 -.151E+01   0.131E-03 -.426E-11 -.293E-03
 -----------------------------------------------------------------------------------------------
   -.302E-03 0.440E-03 0.117E-03   0.755E-14 -.337E-13 -.213E-13   0.444E-15 -.222E-15 0.222E-15   -.143E-08 0.503E-08 -.372E-08
 
 
 POSITION                                       TOTAL-FORCE (eV/Angst)
 -----------------------------------------------------------------------------------
      0.14997      1.67509      7.85044        -0.002993      0.000000      0.002013
      8.75706      5.02527      3.52822         0.002993      0.000000     -0.002013
      4.30355      5.02527      2.16111         0.002993      0.000000      0.002013
      4.60348      1.67509      9.21755        -0.002993     -0.000000     -0.002013
      1.40903      5.02527     10.32289         0.001947      0.000000      0.000441
      7.49800      1.67509      1.05577        -0.001947     -0.000000     -0.000441
      3.04448      1.67509      4.63356        -0.001947      0.000000      0.000441
      5.86255      5.02527      6.74511         0.001947     -0.000000     -0.000441
      1.68320      0.40684      1.71252         0.006863     -0.002805      0.002104
      7.22383      6.29351      9.66615        -0.006863      0.002805     -0.002104
      2.77031      6.29351      7.40185        -0.006863      0.002805      0.002104
      6.13672      0.40684      3.97681         0.006863     -0.002805     -0.002104
      7.22383      3.75702      9.66615        -0.006863     -0.002805     -0.002104
      1.68320      2.94333      1.71252         0.006863      0.002805      0.002104
      6.13672      2.94333      3.97681         0.006863      0.002805     -0.002104
      2.77031      3.75702      7.40185        -0.006863     -0.002805      0.002104
      0.64816      5.02527      6.76806        -0.004698      0.000000     -0.002679
      8.25887      1.67509      4.61060         0.004698     -0.000000      0.002679
      3.80535      1.67509      1.07873         0.004698      0.000000     -0.002679
      5.10168      5.02527     10.29993        -0.004698      0.000000      0.002679
      1.71738      1.67509     10.89138        -0.004009     -0.000000     -0.002538
      7.18965      5.02527      0.48729         0.004009     -0.000000      0.002538
      2.73614      5.02527      5.20204         0.004009      0.000000     -0.002538
      6.17089      1.67509      6.17662        -0.004009      0.000000      0.002538
 -----------------------------------------------------------------------------------
    total drift:                               -0.000302      0.000440      0.000117


--------------------------------------------------------------------------------------------------------



  FREE ENERGIE OF THE ION-ELECTRON SYSTEM (eV)
  ---------------------------------------------------
  free  energy   TOTEN  =      -114.03956202 eV

  energy  without entropy=     -114.03956202  energy(sigma->0) =     -114.03956202
 
 d Force = 0.1819050E-04[-0.276E-04, 0.640E-04]  d Energy = 0.2220929E-04-0.402E-05
 d Force =-0.1764668E+00[-0.177E+00,-0.176E+00]  d Ewald  =-0.7733092E+00 0.597E+00


--------------------------------------------------------------------------------------------------------


    POTLOK:  cpu time    0.0091: real time    0.0091


--------------------------------------------------------------------------------------------------------




--------------------------------------------------------------------------------------------------------


  
 reached required accuracy - stopping structural energy minimisation
 writing wavefunctions
     LOOP+:  cpu time   14.9342: real time   15.4495
    4ORBIT:  cpu time    0.0000: real time    0.0000
 BZINTS: Fermi energy:  3.117052;144.000000 electrons
         Band energy:-952.156793;  BLOECHL correction:  0.000000

 total amount of memory used by VASP MPI-rank0    68281. kBytes
=======================================================================

   base      :      30000. kBytes
   nonlr-proj:       2987. kBytes
   fftplans  :       2347. kBytes
   grid      :       3658. kBytes
   one-center:         93. kBytes
   wavefun   :      29196. kBytes
 
  
  
 General timing and accounting informations for this job:
 ========================================================
  
                  Total CPU time used (sec):      494.432
                            User time (sec):      490.818
                          System time (sec):        3.614
                         Elapsed time (sec):      501.086
  
                   Maximum memory used (kb):      150476.
                   Average memory used (kb):           0.
  
                          Minor page faults:        22102
                          Major page faults:          267
                 Voluntary context switches:        22232
