<?xml version="1.0" encoding="ISO-8859-1"?>
<modeling>
 <generator>
  <i name="program" type="string">vasp </i>
  <i name="version" type="string">5.4.4.18Apr17-6-g9f103f2a35  </i>
  <i name="subversion" type="string">(build Nov 21 2017 15:30:27) complex            parallel </i>
  <i name="platform" type="string">LinuxIFC </i>
  <i name="date" type="string">2021 02 08 </i>
  <i name="time" type="string">15:51:37 </i>
 </generator>
 <incar>
  <i type="string" name="PREC">normal</i>
  <i type="int" name="ICHARG">    11</i>
  <i type="int" name="NELM">   100</i>
  <i name="EDIFF">      0.00000100</i>
  <i name="EDIFFG">     -0.01000000</i>
  <i name="ENCUT">    500.00000000</i>
  <i name="POTIM">      0.30000000</i>
  <i type="string" name="LREAL"> Auto       ! Projection in reciprocal s</i>
  <i type="int" name="ISMEAR">     0</i>
  <i name="SIGMA">      0.01000000</i>
  <i type="logical" name="LWAVE"> T  </i>
  <i type="logical" name="LCHARG"> T  </i>
  <i type="logical" name="LASPH"> T  </i>
  <v type="int" name="KPOINT_BSE">    -1     0     0     0</v>
  <i type="int" name="NELM">   100</i>
  <i type="string" name="GGA"> MK</i>
  <i name="PARAM1">      0.12340000</i>
  <i name="PARAM2">      0.71135700</i>
  <i type="logical" name="LUSE_VDW"> T  </i>
  <i name="Zab_VDW">     -1.88670000</i>
  <i name="AGGAC">      0.00000000</i>
  <i type="logical" name="LASPH"> T  </i>
 </incar>
 <structure name="primitive_cell" >
  <crystal>
   <varray name="basis" >
    <v>       8.56859331       0.00000000       0.00000000 </v>
    <v>       0.00000000       6.42172859       0.00000000 </v>
    <v>       0.00000000       0.00000000      11.01312565 </v>
   </varray>
   <i name="volume">    605.99922824 </i>
   <varray name="rec_basis" >
    <v>       0.11670527       0.00000000       0.00000000 </v>
    <v>       0.00000000       0.15572131       0.00000000 </v>
    <v>       0.00000000       0.00000000       0.09080074 </v>
   </varray>
  </crystal>
  <varray name="positions" >
   <v>       0.01511094       0.25000000      -0.30771314 </v>
   <v>      -0.19214082      -0.43779864      -0.14925998 </v>
   <v>      -0.19214082      -0.06220136      -0.14925998 </v>
   <v>      -0.30425306       0.25000000      -0.45971170 </v>
   <v>      -0.07366712       0.25000000       0.40875203 </v>
   <v>       0.30785918      -0.43779864      -0.35074002 </v>
   <v>       0.30785918      -0.06220136      -0.35074002 </v>
   <v>       0.19574693       0.25000000      -0.04028830 </v>
   <v>       0.07366710      -0.24999998      -0.40875203 </v>
   <v>       0.15812571      -0.24999998      -0.09327267 </v>
   <v>       0.34187429       0.25000000       0.40672741 </v>
   <v>      -0.48488906       0.25000000      -0.19228682 </v>
   <v>      -0.34187429      -0.24999998      -0.40672737 </v>
   <v>      -0.15812571       0.25000000       0.09327265 </v>
   <v>       0.30425306      -0.24999998       0.45971162 </v>
   <v>      -0.30785918       0.43779864       0.35074002 </v>
   <v>      -0.30785918       0.06220135       0.35074002 </v>
   <v>      -0.19574694      -0.24999998       0.04028831 </v>
   <v>      -0.01511094      -0.24999998       0.30771314 </v>
   <v>       0.19214082       0.43779864       0.14925996 </v>
   <v>       0.19214082       0.06220135       0.14925996 </v>
   <v>      -0.42633288      -0.24999998      -0.09124793 </v>
   <v>       0.42633291       0.25000000       0.09124791 </v>
   <v>       0.48488906      -0.24999998       0.19228680 </v>
  </varray>
 </structure>
 <varray name="primitive_index" >
  <v type="int" >        1 </v>
  <v type="int" >       13 </v>
  <v type="int" >       10 </v>
  <v type="int" >       24 </v>
  <v type="int" >       18 </v>
  <v type="int" >       16 </v>
  <v type="int" >       11 </v>
  <v type="int" >       21 </v>
  <v type="int" >       17 </v>
  <v type="int" >        5 </v>
  <v type="int" >        7 </v>
  <v type="int" >        4 </v>
  <v type="int" >        8 </v>
  <v type="int" >        6 </v>
  <v type="int" >       23 </v>
  <v type="int" >       15 </v>
  <v type="int" >       12 </v>
  <v type="int" >       22 </v>
  <v type="int" >        2 </v>
  <v type="int" >       14 </v>
  <v type="int" >        9 </v>
  <v type="int" >       20 </v>
  <v type="int" >       19 </v>
  <v type="int" >        3 </v>
 </varray>
 <kpoints>
  <generation param="listgenerated">
   <i name="divisions" type="int">      20 </i>
   <v>       0.00000000       0.00000000       0.00000000 </v>
   <v>       0.00000000       0.50000000       0.00000000 </v>
   <v>       0.00000000       0.50000000       0.50000000 </v>
   <v>       0.00000000       0.00000000       0.50000000 </v>
   <v>       0.00000000       0.00000000       0.00000000 </v>
   <v>       0.50000000       0.00000000       0.00000000 </v>
  </generation>
  <varray name="kpointlist" >
   <v>       0.00000000       0.00000000       0.00000000 </v>
   <v>       0.00000000       0.02631579       0.00000000 </v>
   <v>       0.00000000       0.05263158       0.00000000 </v>
   <v>       0.00000000       0.07894737       0.00000000 </v>
   <v>       0.00000000       0.10526316       0.00000000 </v>
   <v>       0.00000000       0.13157895       0.00000000 </v>
   <v>       0.00000000       0.15789474       0.00000000 </v>
   <v>       0.00000000       0.18421053       0.00000000 </v>
   <v>       0.00000000       0.21052632       0.00000000 </v>
   <v>       0.00000000       0.23684211       0.00000000 </v>
   <v>       0.00000000       0.26315789       0.00000000 </v>
   <v>       0.00000000       0.28947368       0.00000000 </v>
   <v>       0.00000000       0.31578947       0.00000000 </v>
   <v>       0.00000000       0.34210526       0.00000000 </v>
   <v>       0.00000000       0.36842105       0.00000000 </v>
   <v>       0.00000000       0.39473684       0.00000000 </v>
   <v>       0.00000000       0.42105263       0.00000000 </v>
   <v>       0.00000000       0.44736842       0.00000000 </v>
   <v>       0.00000000       0.47368421       0.00000000 </v>
   <v>       0.00000000       0.50000000       0.00000000 </v>
   <v>       0.00000000       0.50000000       0.00000000 </v>
   <v>       0.00000000       0.50000000       0.02631579 </v>
   <v>       0.00000000       0.50000000       0.05263158 </v>
   <v>       0.00000000       0.50000000       0.07894737 </v>
   <v>       0.00000000       0.50000000       0.10526316 </v>
   <v>       0.00000000       0.50000000       0.13157895 </v>
   <v>       0.00000000       0.50000000       0.15789474 </v>
   <v>       0.00000000       0.50000000       0.18421053 </v>
   <v>       0.00000000       0.50000000       0.21052632 </v>
   <v>       0.00000000       0.50000000       0.23684211 </v>
   <v>       0.00000000       0.50000000       0.26315789 </v>
   <v>       0.00000000       0.50000000       0.28947368 </v>
   <v>       0.00000000       0.50000000       0.31578947 </v>
   <v>       0.00000000       0.50000000       0.34210526 </v>
   <v>       0.00000000       0.50000000       0.36842105 </v>
   <v>       0.00000000       0.50000000       0.39473684 </v>
   <v>       0.00000000       0.50000000       0.42105263 </v>
   <v>       0.00000000       0.50000000       0.44736842 </v>
   <v>       0.00000000       0.50000000       0.47368421 </v>
   <v>       0.00000000       0.50000000       0.50000000 </v>
   <v>       0.00000000       0.50000000       0.50000000 </v>
   <v>       0.00000000       0.47368421       0.50000000 </v>
   <v>       0.00000000       0.44736842       0.50000000 </v>
   <v>       0.00000000       0.42105263       0.50000000 </v>
   <v>       0.00000000       0.39473684       0.50000000 </v>
   <v>       0.00000000       0.36842105       0.50000000 </v>
   <v>       0.00000000       0.34210526       0.50000000 </v>
   <v>       0.00000000       0.31578947       0.50000000 </v>
   <v>       0.00000000       0.28947368       0.50000000 </v>
   <v>       0.00000000       0.26315789       0.50000000 </v>
   <v>       0.00000000       0.23684211       0.50000000 </v>
   <v>       0.00000000       0.21052632       0.50000000 </v>
   <v>       0.00000000       0.18421053       0.50000000 </v>
   <v>       0.00000000       0.15789474       0.50000000 </v>
   <v>       0.00000000       0.13157895       0.50000000 </v>
   <v>       0.00000000       0.10526316       0.50000000 </v>
   <v>       0.00000000       0.07894737       0.50000000 </v>
   <v>       0.00000000       0.05263158       0.50000000 </v>
   <v>       0.00000000       0.02631579       0.50000000 </v>
   <v>       0.00000000       0.00000000       0.50000000 </v>
   <v>       0.00000000       0.00000000       0.50000000 </v>
   <v>       0.00000000       0.00000000       0.47368421 </v>
   <v>       0.00000000       0.00000000       0.44736842 </v>
   <v>       0.00000000       0.00000000       0.42105263 </v>
   <v>       0.00000000       0.00000000       0.39473684 </v>
   <v>       0.00000000       0.00000000       0.36842105 </v>
   <v>       0.00000000       0.00000000       0.34210526 </v>
   <v>       0.00000000       0.00000000       0.31578947 </v>
   <v>       0.00000000       0.00000000       0.28947368 </v>
   <v>       0.00000000       0.00000000       0.26315789 </v>
   <v>       0.00000000       0.00000000       0.23684211 </v>
   <v>       0.00000000       0.00000000       0.21052632 </v>
   <v>       0.00000000       0.00000000       0.18421053 </v>
   <v>       0.00000000       0.00000000       0.15789474 </v>
   <v>       0.00000000       0.00000000       0.13157895 </v>
   <v>       0.00000000       0.00000000       0.10526316 </v>
   <v>       0.00000000       0.00000000       0.07894737 </v>
   <v>       0.00000000       0.00000000       0.05263158 </v>
   <v>       0.00000000       0.00000000       0.02631579 </v>
   <v>       0.00000000       0.00000000       0.00000000 </v>
   <v>       0.00000000       0.00000000       0.00000000 </v>
   <v>       0.02631579       0.00000000       0.00000000 </v>
   <v>       0.05263158       0.00000000       0.00000000 </v>
   <v>       0.07894737       0.00000000       0.00000000 </v>
   <v>       0.10526316       0.00000000       0.00000000 </v>
   <v>       0.13157895       0.00000000       0.00000000 </v>
   <v>       0.15789474       0.00000000       0.00000000 </v>
   <v>       0.18421053       0.00000000       0.00000000 </v>
   <v>       0.21052632       0.00000000       0.00000000 </v>
   <v>       0.23684211       0.00000000       0.00000000 </v>
   <v>       0.26315789       0.00000000       0.00000000 </v>
   <v>       0.28947368       0.00000000       0.00000000 </v>
   <v>       0.31578947       0.00000000       0.00000000 </v>
   <v>       0.34210526       0.00000000       0.00000000 </v>
   <v>       0.36842105       0.00000000       0.00000000 </v>
   <v>       0.39473684       0.00000000       0.00000000 </v>
   <v>       0.42105263       0.00000000       0.00000000 </v>
   <v>       0.44736842       0.00000000       0.00000000 </v>
   <v>       0.47368421       0.00000000       0.00000000 </v>
   <v>       0.50000000       0.00000000       0.00000000 </v>
  </varray>
  <varray name="weights" >
   <v>       0.01000000 </v>
   <v>       0.01000000 </v>
   <v>       0.01000000 </v>
   <v>       0.01000000 </v>
   <v>       0.01000000 </v>
   <v>       0.01000000 </v>
   <v>       0.01000000 </v>
   <v>       0.01000000 </v>
   <v>       0.01000000 </v>
   <v>       0.01000000 </v>
   <v>       0.01000000 </v>
   <v>       0.01000000 </v>
   <v>       0.01000000 </v>
   <v>       0.01000000 </v>
   <v>       0.01000000 </v>
   <v>       0.01000000 </v>
   <v>       0.01000000 </v>
   <v>       0.01000000 </v>
   <v>       0.01000000 </v>
   <v>       0.01000000 </v>
   <v>       0.01000000 </v>
   <v>       0.01000000 </v>
   <v>       0.01000000 </v>
   <v>       0.01000000 </v>
   <v>       0.01000000 </v>
   <v>       0.01000000 </v>
   <v>       0.01000000 </v>
   <v>       0.01000000 </v>
   <v>       0.01000000 </v>
   <v>       0.01000000 </v>
   <v>       0.01000000 </v>
   <v>       0.01000000 </v>
   <v>       0.01000000 </v>
   <v>       0.01000000 </v>
   <v>       0.01000000 </v>
   <v>       0.01000000 </v>
   <v>       0.01000000 </v>
   <v>       0.01000000 </v>
   <v>       0.01000000 </v>
   <v>       0.01000000 </v>
   <v>       0.01000000 </v>
   <v>       0.01000000 </v>
   <v>       0.01000000 </v>
   <v>       0.01000000 </v>
   <v>       0.01000000 </v>
   <v>       0.01000000 </v>
   <v>       0.01000000 </v>
   <v>       0.01000000 </v>
   <v>       0.01000000 </v>
   <v>       0.01000000 </v>
   <v>       0.01000000 </v>
   <v>       0.01000000 </v>
   <v>       0.01000000 </v>
   <v>       0.01000000 </v>
   <v>       0.01000000 </v>
   <v>       0.01000000 </v>
   <v>       0.01000000 </v>
   <v>       0.01000000 </v>
   <v>       0.01000000 </v>
   <v>       0.01000000 </v>
   <v>       0.01000000 </v>
   <v>       0.01000000 </v>
   <v>       0.01000000 </v>
   <v>       0.01000000 </v>
   <v>       0.01000000 </v>
   <v>       0.01000000 </v>
   <v>       0.01000000 </v>
   <v>       0.01000000 </v>
   <v>       0.01000000 </v>
   <v>       0.01000000 </v>
   <v>       0.01000000 </v>
   <v>       0.01000000 </v>
   <v>       0.01000000 </v>
   <v>       0.01000000 </v>
   <v>       0.01000000 </v>
   <v>       0.01000000 </v>
   <v>       0.01000000 </v>
   <v>       0.01000000 </v>
   <v>       0.01000000 </v>
   <v>       0.01000000 </v>
   <v>       0.01000000 </v>
   <v>       0.01000000 </v>
   <v>       0.01000000 </v>
   <v>       0.01000000 </v>
   <v>       0.01000000 </v>
   <v>       0.01000000 </v>
   <v>       0.01000000 </v>
   <v>       0.01000000 </v>
   <v>       0.01000000 </v>
   <v>       0.01000000 </v>
   <v>       0.01000000 </v>
   <v>       0.01000000 </v>
   <v>       0.01000000 </v>
   <v>       0.01000000 </v>
   <v>       0.01000000 </v>
   <v>       0.01000000 </v>
   <v>       0.01000000 </v>
   <v>       0.01000000 </v>
   <v>       0.01000000 </v>
   <v>       0.01000000 </v>
  </varray>
 </kpoints>
 <parameters>
  <separator name="general" >
   <i type="string" name="SYSTEM">unknown system</i>
   <i type="logical" name="LCOMPAT"> F  </i>
  </separator>
  <separator name="electronic" >
   <i type="string" name="PREC">normal</i>
   <i name="ENMAX">    500.00000000</i>
   <i name="ENAUG">    366.80400000</i>
   <i name="EDIFF">      0.00000100</i>
   <i type="int" name="IALGO">    38</i>
   <i type="int" name="IWAVPR">    10</i>
   <i type="int" name="NBANDS">    88</i>
   <i name="NELECT">    144.00000000</i>
   <i type="int" name="TURBO">     0</i>
   <i type="int" name="IRESTART">     0</i>
   <i type="int" name="NREBOOT">     0</i>
   <i type="int" name="NMIN">     0</i>
   <i name="EREF">      0.00000000</i>
   <separator name="electronic smearing" >
    <i type="int" name="ISMEAR">     0</i>
    <i name="SIGMA">      0.01000000</i>
    <i name="KSPACING">      0.50000000</i>
    <i type="logical" name="KGAMMA"> T  </i>
   </separator>
   <separator name="electronic projectors" >
    <i type="logical" name="LREAL"> T  </i>
    <v name="ROPT">     -0.00050000     -0.00050000</v>
    <i type="int" name="LMAXPAW">  -100</i>
    <i type="int" name="LMAXMIX">     2</i>
    <i type="logical" name="NLSPLINE"> F  </i>
   </separator>
   <separator name="electronic startup" >
    <i type="int" name="ISTART">     0</i>
    <i type="int" name="ICHARG">    11</i>
    <i type="int" name="INIWAV">     1</i>
   </separator>
   <separator name="electronic spin" >
    <i type="int" name="ISPIN">     1</i>
    <i type="logical" name="LNONCOLLINEAR"> F  </i>
    <v name="MAGMOM">      1.00000000      1.00000000      1.00000000      1.00000000      1.00000000      1.00000000      1.00000000      1.00000000      1.00000000      1.00000000      1.00000000      1.00000000      1.00000000      1.00000000      1.00000000      1.00000000      1.00000000      1.00000000      1.00000000      1.00000000
      1.00000000      1.00000000      1.00000000      1.00000000</v>
    <i name="NUPDOWN">     -1.00000000</i>
    <i type="logical" name="LSORBIT"> F  </i>
    <v name="SAXIS">      0.00000000      0.00000000      1.00000000</v>
    <i type="logical" name="LSPIRAL"> F  </i>
    <v name="QSPIRAL">      0.00000000      0.00000000      0.00000000</v>
    <i type="logical" name="LZEROZ"> F  </i>
   </separator>
   <separator name="electronic exchange-correlation" >
    <i type="logical" name="LASPH"> T  </i>
    <i type="logical" name="LMETAGGA"> F  </i>
   </separator>
   <separator name="electronic convergence" >
    <i type="int" name="NELM">   100</i>
    <i type="int" name="NELMDL">    -5</i>
    <i type="int" name="NELMIN">     2</i>
    <i name="ENINI">    500.00000000</i>
    <separator name="electronic convergence detail" >
     <i type="logical" name="LDIAG"> T  </i>
     <i type="logical" name="LSUBROT"> F  </i>
     <i name="WEIMIN">      0.00000000</i>
     <i name="EBREAK">      0.00000000</i>
     <i name="DEPER">      0.30000000</i>
     <i type="int" name="NRMM">     4</i>
     <i name="TIME">      0.40000000</i>
    </separator>
   </separator>
   <separator name="electronic mixer" >
    <i name="AMIX">      0.40000000</i>
    <i name="BMIX">      1.00000000</i>
    <i name="AMIN">      0.10000000</i>
    <i name="AMIX_MAG">      1.60000000</i>
    <i name="BMIX_MAG">      1.00000000</i>
    <separator name="electronic mixer details" >
     <i type="int" name="IMIX">     4</i>
     <i type="logical" name="MIXFIRST"> F  </i>
     <i type="int" name="MAXMIX">   -45</i>
     <i name="WC">    100.00000000</i>
     <i type="int" name="INIMIX">     1</i>
     <i type="int" name="MIXPRE">     1</i>
     <i type="int" name="MREMOVE">     5</i>
    </separator>
   </separator>
   <separator name="electronic dipolcorrection" >
    <i type="logical" name="LDIPOL"> F  </i>
    <i type="logical" name="LMONO"> F  </i>
    <i type="int" name="IDIPOL">     0</i>
    <i name="EPSILON">      1.00000000</i>
    <v name="DIPOL">   -100.00000000   -100.00000000   -100.00000000</v>
    <i name="EFIELD">      0.00000000</i>
   </separator>
  </separator>
  <separator name="grids" >
   <i type="int" name="NGX">    48</i>
   <i type="int" name="NGY">    36</i>
   <i type="int" name="NGZ">    60</i>
   <i type="int" name="NGXF">    96</i>
   <i type="int" name="NGYF">    72</i>
   <i type="int" name="NGZF">   120</i>
   <i type="logical" name="ADDGRID"> F  </i>
  </separator>
  <separator name="ionic" >
   <i type="int" name="NSW">     0</i>
   <i type="int" name="IBRION">    -1</i>
   <i type="int" name="MDALGO">     0</i>
   <i type="int" name="ISIF">     2</i>
   <i name="PSTRESS">      0.00000000</i>
   <i name="EDIFFG">     -0.01000000</i>
   <i type="int" name="NFREE">     0</i>
   <i name="POTIM">      0.30000000</i>
   <i name="SMASS">     -3.00000000</i>
   <i name="SCALEE">      1.00000000</i>
  </separator>
  <separator name="ionic md" >
   <i name="TEBEG">      0.00010000</i>
   <i name="TEEND">      0.00010000</i>
   <i type="int" name="NBLOCK">     1</i>
   <i type="int" name="KBLOCK">     1</i>
   <i type="int" name="NPACO">   256</i>
   <i name="APACO">     16.00000000</i>
  </separator>
  <separator name="symmetry" >
   <i type="int" name="ISYM">     2</i>
   <i name="SYMPREC">      0.00001000</i>
  </separator>
  <separator name="dos" >
   <i type="int" name="LORBIT">     0</i>
   <v name="RWIGS">     -1.00000000     -1.00000000</v>
   <i type="int" name="NEDOS">   301</i>
   <i name="EMIN">     10.00000000</i>
   <i name="EMAX">    -10.00000000</i>
   <i name="EFERMI">      0.00000000</i>
  </separator>
  <separator name="writing" >
   <i type="int" name="NWRITE">     2</i>
   <i type="logical" name="LWAVE"> T  </i>
   <i type="logical" name="LDOWNSAMPLE"> F  </i>
   <i type="logical" name="LCHARG"> T  </i>
   <i type="logical" name="LPARD"> F  </i>
   <i type="logical" name="LVTOT"> F  </i>
   <i type="logical" name="LVHAR"> F  </i>
   <i type="logical" name="LELF"> F  </i>
   <i type="logical" name="LOPTICS"> F  </i>
   <v name="STM">      0.00000000      0.00000000      0.00000000      0.00000000      0.00000000      0.00000000      0.00000000</v>
  </separator>
  <separator name="performance" >
   <i type="int" name="NPAR">     8</i>
   <i type="int" name="NSIM">     4</i>
   <i type="int" name="NBLK">    -1</i>
   <i type="logical" name="LPLANE"> T  </i>
   <i type="logical" name="LSCALAPACK"> T  </i>
   <i type="logical" name="LSCAAWARE"> F  </i>
   <i type="logical" name="LSCALU"> F  </i>
   <i type="logical" name="LASYNC"> F  </i>
   <i type="logical" name="LORBITALREAL"> F  </i>
  </separator>
  <separator name="miscellaneous" >
   <i type="int" name="IDIOT">     3</i>
   <i type="int" name="ISPECIAL">     0</i>
   <i type="logical" name="LMUSIC"> F  </i>
   <v name="POMASS">     87.62000000     28.08500000</v>
   <v name="DARWINR">      0.00000000      0.00000000</v>
   <v name="DARWINV">      1.00000000      1.00000000</v>
   <i type="logical" name="LCORR"> T  </i>
  </separator>
  <i type="logical" name="GGA_COMPAT"> T  </i>
  <i type="logical" name="LBERRY"> F  </i>
  <i type="int" name="ICORELEVEL">     0</i>
  <i type="logical" name="LDAU"> F  </i>
  <i type="int" name="I_CONSTRAINED_M">     0</i>
  <separator name="electronic exchange-correlation" >
   <i type="string" name="GGA">MK</i>
   <i type="int" name="VOSKOWN">     0</i>
   <i type="logical" name="LHFCALC"> F  </i>
   <i type="string" name="PRECFOCK"></i>
   <i type="logical" name="LSYMGRAD"> F  </i>
   <i type="logical" name="LHFONE"> F  </i>
   <i type="logical" name="LRHFCALC"> F  </i>
   <i type="logical" name="LTHOMAS"> F  </i>
   <i type="logical" name="LMODELHF"> F  </i>
   <i name="ENCUT4O">     -1.00000000</i>
   <i type="int" name="EXXOEP">     0</i>
   <i type="int" name="FOURORBIT">     0</i>
   <i name="AEXX">      0.00000000</i>
   <i name="HFALPHA">      0.00000000</i>
   <i name="MCALPHA">      0.00000000</i>
   <i name="ALDAX">      1.00000000</i>
   <i name="AGGAX">      1.00000000</i>
   <i name="ALDAC">      1.00000000</i>
   <i name="AGGAC">      0.00000000</i>
   <i type="int" name="NKREDX">     1</i>
   <i type="int" name="NKREDY">     1</i>
   <i type="int" name="NKREDZ">     1</i>
   <i type="logical" name="SHIFTRED"> F  </i>
   <i type="logical" name="ODDONLY"> F  </i>
   <i type="logical" name="EVENONLY"> F  </i>
   <i type="int" name="LMAXFOCK">     0</i>
   <i type="int" name="NMAXFOCKAE">     0</i>
   <i type="logical" name="LFOCKAEDFT"> F  </i>
   <i name="HFSCREEN">      0.00000000</i>
   <i name="HFSCREENC">      0.00000000</i>
   <i type="int" name="NBANDSGWLOW">     0</i>
  </separator>
  <separator name="vdW DFT" >
   <i type="logical" name="LUSE_VDW"> T  </i>
   <i name="Zab_VDW">     -1.88670000</i>
   <i name="PARAM1">      0.12340000</i>
   <i name="PARAM2">      0.71135700</i>
   <i name="PARAM3">      0.00000000</i>
  </separator>
  <separator name="model GW" >
   <i type="int" name="MODEL_GW">     0</i>
   <i name="MODEL_EPS0">     15.14998071</i>
   <i name="MODEL_ALPHA">      1.00000000</i>
  </separator>
  <separator name="linear response parameters" >
   <i type="logical" name="LEPSILON"> F  </i>
   <i type="logical" name="LRPA"> F  </i>
   <i type="logical" name="LNABLA"> F  </i>
   <i type="logical" name="LVEL"> F  </i>
   <i type="int" name="KINTER">     0</i>
   <i name="CSHIFT">      0.10000000</i>
   <i name="OMEGAMAX">     -1.00000000</i>
   <i name="DEG_THRESHOLD">      0.00200000</i>
   <i name="RTIME">     -0.10000000</i>
   <i name="WPLASMAI">      0.00000000</i>
   <v name="DFIELD">      0.00000000      0.00000000      0.00000000</v>
   <v name="WPLASMA">      0.00000000      0.00000000      0.00000000      0.00000000      0.00000000      0.00000000      0.00000000      0.00000000      0.00000000</v>
  </separator>
  <separator name="orbital magnetization" >
   <i type="logical" name="NUCIND"> F  </i>
   <v name="MAGPOS">      0.00000000      0.00000000      0.00000000</v>
   <i type="logical" name="LNICSALL"> T  </i>
   <i type="logical" name="ORBITALMAG"> F  </i>
   <i type="logical" name="LMAGBLOCH"> F  </i>
   <i type="logical" name="LCHIMAG"> F  </i>
   <i type="logical" name="LGAUGE"> T  </i>
   <i type="int" name="MAGATOM">     0</i>
   <v name="MAGDIPOL">      0.00000000      0.00000000      0.00000000</v>
   <v name="AVECCONST">      0.00000000      0.00000000      0.00000000</v>
  </separator>
  <separator name="response functions" >
   <i type="logical" name="LADDER"> F  </i>
   <i type="logical" name="LRPAFORCE"> F  </i>
   <i type="logical" name="LFXC"> F  </i>
   <i type="logical" name="LHARTREE"> T  </i>
   <i type="int" name="IBSE">     0</i>
   <v type="int" name="KPOINT">    -1     0     0     0</v>
   <i type="logical" name="LTCTE"> F  </i>
   <i type="logical" name="LTETE"> F  </i>
   <i type="logical" name="LTRIPLET"> F  </i>
   <i type="logical" name="LFXCEPS"> F  </i>
   <i type="logical" name="LFXHEG"> F  </i>
   <i type="int" name="NATURALO">     2</i>
   <i type="logical" name="L2ORDER"> F  </i>
   <i type="logical" name="LMP2LT"> F  </i>
   <i type="logical" name="LUSEW"> F  </i>
   <i name="ENCUTGW">     -2.00000000</i>
   <i name="ENCUTGWSOFT">     -2.00000000</i>
   <i name="ENCUTLF">     -1.00000000</i>
   <i type="int" name="LMAXMP2">    -1</i>
   <i name="SCISSOR">      0.00000000</i>
   <i type="int" name="NOMEGA">     0</i>
   <i type="int" name="NOMEGAR">     0</i>
   <i type="int" name="NBANDSGW">    -1</i>
   <i type="int" name="NBANDSO">    -1</i>
   <i type="int" name="NBANDSV">    -1</i>
   <i type="int" name="NELM">   100</i>
   <i type="int" name="NELMHF">     1</i>
   <i type="int" name="DIM">     3</i>
   <i type="int" name="ANTIRES">     0</i>
   <i name="OMEGAMAX">    -30.00000000</i>
   <i name="OMEGAMIN">    -30.00000000</i>
   <i name="OMEGATL">   -200.00000000</i>
   <i type="int" name="OMEGAGRID">   140</i>
   <i name="CSHIFT">     -0.10000000</i>
   <i type="logical" name="SELFENERGY"> F  </i>
   <i type="logical" name="LSPECTRAL"> F  </i>
   <i type="logical" name="LSPECTRALGW"> F  </i>
   <i type="logical" name="LSINGLES"> F  </i>
   <i type="logical" name="LFERMIGW"> F  </i>
   <i type="logical" name="ODDONLYGW"> F  </i>
   <i type="logical" name="EVENONLYGW"> F  </i>
   <i type="int" name="NKREDLFX">     1</i>
   <i type="int" name="NKREDLFY">     1</i>
   <i type="int" name="NKREDLFZ">     1</i>
   <i type="int" name="MAXMEM">  2800</i>
   <i type="int" name="TELESCOPE">     0</i>
   <i type="int" name="TAUPAR">     1</i>
   <i type="int" name="OMEGAPAR">    -1</i>
   <i name="LAMBDA">      1.00000000</i>
  </separator>
  <separator name="External order field" >
   <i name="OFIELD_KAPPA">      0.00000000</i>
   <v name="OFIELD_K">      0.00000000      0.00000000      0.00000000</v>
   <i name="OFIELD_Q6_NEAR">      0.00000000</i>
   <i name="OFIELD_Q6_FAR">      0.00000000</i>
   <i name="OFIELD_A">      0.00000000</i>
  </separator>
 </parameters>
 <atominfo>
  <atoms>      24 </atoms>
  <types>       2 </types>
  <array name="atoms" >
   <dimension dim="1">ion</dimension>
   <field type="string">element</field>
   <field type="int">atomtype</field>
   <set>
    <rc><c>Sr</c><c>   1</c></rc>
    <rc><c>Sr</c><c>   1</c></rc>
    <rc><c>Sr</c><c>   1</c></rc>
    <rc><c>Sr</c><c>   1</c></rc>
    <rc><c>Sr</c><c>   1</c></rc>
    <rc><c>Sr</c><c>   1</c></rc>
    <rc><c>Sr</c><c>   1</c></rc>
    <rc><c>Sr</c><c>   1</c></rc>
    <rc><c>Si</c><c>   2</c></rc>
    <rc><c>Si</c><c>   2</c></rc>
    <rc><c>Si</c><c>   2</c></rc>
    <rc><c>Si</c><c>   2</c></rc>
    <rc><c>Si</c><c>   2</c></rc>
    <rc><c>Si</c><c>   2</c></rc>
    <rc><c>Si</c><c>   2</c></rc>
    <rc><c>Si</c><c>   2</c></rc>
    <rc><c>Si</c><c>   2</c></rc>
    <rc><c>Si</c><c>   2</c></rc>
    <rc><c>Si</c><c>   2</c></rc>
    <rc><c>Si</c><c>   2</c></rc>
    <rc><c>Si</c><c>   2</c></rc>
    <rc><c>Si</c><c>   2</c></rc>
    <rc><c>Si</c><c>   2</c></rc>
    <rc><c>Si</c><c>   2</c></rc>
   </set>
  </array>
  <array name="atomtypes" >
   <dimension dim="1">type</dimension>
   <field type="int">atomspertype</field>
   <field type="string">element</field>
   <field>mass</field>
   <field>valence</field>
   <field type="string">pseudopotential</field>
   <set>
    <rc><c>   8</c><c>Sr</c><c>     87.62000000</c><c>     10.00000000</c><c> PAW_PBE Sr_sv 07Sep2000                </c></rc>
    <rc><c>  16</c><c>Si</c><c>     28.08500000</c><c>      4.00000000</c><c> PAW_PBE Si 05Jan2001                   </c></rc>
   </set>
  </array>
 </atominfo>
 <structure name="initialpos" >
  <crystal>
   <varray name="basis" >
    <v>       8.56859331       0.00000000       0.00000000 </v>
    <v>       0.00000000       6.42172859       0.00000000 </v>
    <v>       0.00000000       0.00000000      11.01312565 </v>
   </varray>
   <i name="volume">    605.99922824 </i>
   <varray name="rec_basis" >
    <v>       0.11670527       0.00000000       0.00000000 </v>
    <v>       0.00000000       0.15572131       0.00000000 </v>
    <v>       0.00000000       0.00000000       0.09080074 </v>
   </varray>
  </crystal>
  <varray name="positions" >
   <v>       0.01511094       0.25000000       0.69228686 </v>
   <v>       0.98488906       0.75000002       0.30771314 </v>
   <v>       0.48488906       0.75000002       0.19228680 </v>
   <v>       0.51511094       0.25000000       0.80771318 </v>
   <v>       0.15812571       0.75000002       0.90672733 </v>
   <v>       0.84187429       0.25000000       0.09327265 </v>
   <v>       0.34187429       0.25000000       0.40672741 </v>
   <v>       0.65812571       0.75000002       0.59327263 </v>
   <v>       0.19214082       0.06220135       0.14925996 </v>
   <v>       0.80785918       0.93779864       0.85074002 </v>
   <v>       0.30785918       0.93779864       0.64925998 </v>
   <v>       0.69214082       0.06220135       0.35074002 </v>
   <v>       0.80785918       0.56220136       0.85074002 </v>
   <v>       0.19214082       0.43779864       0.14925996 </v>
   <v>       0.69214082       0.43779864       0.35074002 </v>
   <v>       0.30785918       0.56220136       0.64925998 </v>
   <v>       0.07366710       0.75000002       0.59124797 </v>
   <v>       0.92633288       0.25000000       0.40875203 </v>
   <v>       0.42633291       0.25000000       0.09124791 </v>
   <v>       0.57366712       0.75000002       0.90875207 </v>
   <v>       0.19574693       0.25000000       0.95971170 </v>
   <v>       0.80425306       0.75000002       0.04028831 </v>
   <v>       0.30425306       0.75000002       0.45971162 </v>
   <v>       0.69574694       0.25000000       0.54028830 </v>
  </varray>
 </structure>
 <calculation>
  <scstep>
   <time name="dav">    5.06    5.16</time>
   <time name="total">    6.29    6.49</time>
   <energy>
    <i name="alphaZ">    388.43660564 </i>
    <i name="ewald">  -6762.16257921 </i>
    <i name="hartreedc">  -1506.31077526 </i>
    <i name="XCdc">    128.84267999 </i>
    <i name="pawpsdc">   4679.02533844 </i>
    <i name="pawaedc">  -4317.59905375 </i>
    <i name="eentropy">     -0.00036214 </i>
    <i name="bandstr">   -235.84640732 </i>
    <i name="atom">   8407.39227039 </i>
    <i name="e_fr_energy">    781.77771677 </i>
    <i name="e_wo_entrp">    781.77807891 </i>
    <i name="e_0_energy">    781.77789784 </i>
   </energy>
  </scstep>
  <scstep>
   <time name="dav">    5.79    5.81</time>
   <time name="total">    5.80    5.81</time>
   <energy>
    <i name="e_fr_energy">    -16.84983134 </i>
    <i name="e_wo_entrp">    -16.84968945 </i>
    <i name="e_0_energy">    -16.84976040 </i>
   </energy>
  </scstep>
  <scstep>
   <time name="dav">    6.36    6.38</time>
   <time name="total">    6.36    6.38</time>
   <energy>
    <i name="e_fr_energy">    -89.80549901 </i>
    <i name="e_wo_entrp">    -89.80549901 </i>
    <i name="e_0_energy">    -89.80549901 </i>
   </energy>
  </scstep>
  <scstep>
   <time name="dav">    7.58    7.60</time>
   <time name="total">    7.58    7.60</time>
   <energy>
    <i name="e_fr_energy">    -94.40441081 </i>
    <i name="e_wo_entrp">    -94.40441081 </i>
    <i name="e_0_energy">    -94.40441081 </i>
   </energy>
  </scstep>
  <scstep>
   <time name="dav">    6.45    6.47</time>
   <time name="total">    6.45    6.47</time>
   <energy>
    <i name="e_fr_energy">    -94.64841383 </i>
    <i name="e_wo_entrp">    -94.64841383 </i>
    <i name="e_0_energy">    -94.64841383 </i>
   </energy>
  </scstep>
  <scstep>
   <time name="dav">    7.12    7.14</time>
   <time name="total">    7.12    7.14</time>
   <energy>
    <i name="e_fr_energy">    -94.65237825 </i>
    <i name="e_wo_entrp">    -94.65237825 </i>
    <i name="e_0_energy">    -94.65237825 </i>
   </energy>
  </scstep>
  <scstep>
   <time name="dav">    6.60    6.61</time>
   <time name="total">    6.60    6.61</time>
   <energy>
    <i name="e_fr_energy">    -94.65252288 </i>
    <i name="e_wo_entrp">    -94.65252288 </i>
    <i name="e_0_energy">    -94.65252288 </i>
   </energy>
  </scstep>
  <scstep>
   <time name="dav">    6.34    6.35</time>
   <time name="total">    6.34    6.35</time>
   <energy>
    <i name="e_fr_energy">    -94.65252911 </i>
    <i name="e_wo_entrp">    -94.65252911 </i>
    <i name="e_0_energy">    -94.65252911 </i>
   </energy>
  </scstep>
  <scstep>
   <time name="dav">    5.12    5.13</time>
   <time name="total">    5.12    5.14</time>
   <energy>
    <i name="alphaZ">    388.43660564 </i>
    <i name="ewald">  -6762.16257921 </i>
    <i name="hartreedc">  -1506.31077526 </i>
    <i name="XCdc">    128.84267999 </i>
    <i name="pawpsdc">   4679.02533844 </i>
    <i name="pawaedc">  -4317.59905375 </i>
    <i name="eentropy">     -0.00000000 </i>
    <i name="bandstr">  -1112.27701562 </i>
    <i name="atom">   8407.39227039 </i>
    <i name="e_fr_energy">    -94.65252938 </i>
    <i name="e_wo_entrp">    -94.65252938 </i>
    <i name="e_0_energy">    -94.65252938 </i>
   </energy>
  </scstep>
  <structure>
   <crystal>
    <varray name="basis" >
     <v>       8.56859331       0.00000000       0.00000000 </v>
     <v>       0.00000000       6.42172859       0.00000000 </v>
     <v>       0.00000000       0.00000000      11.01312565 </v>
    </varray>
    <i name="volume">    605.99922824 </i>
    <varray name="rec_basis" >
     <v>       0.11670527       0.00000000       0.00000000 </v>
     <v>       0.00000000       0.15572131       0.00000000 </v>
     <v>       0.00000000       0.00000000       0.09080074 </v>
    </varray>
   </crystal>
   <varray name="positions" >
    <v>       0.01511094       0.25000000       0.69228686 </v>
    <v>       0.98488906       0.75000002       0.30771314 </v>
    <v>       0.48488906       0.75000002       0.19228680 </v>
    <v>       0.51511094       0.25000000       0.80771318 </v>
    <v>       0.15812571       0.75000002       0.90672733 </v>
    <v>       0.84187429       0.25000000       0.09327265 </v>
    <v>       0.34187429       0.25000000       0.40672741 </v>
    <v>       0.65812571       0.75000002       0.59327263 </v>
    <v>       0.19214082       0.06220135       0.14925996 </v>
    <v>       0.80785918       0.93779864       0.85074002 </v>
    <v>       0.30785918       0.93779864       0.64925998 </v>
    <v>       0.69214082       0.06220135       0.35074002 </v>
    <v>       0.80785918       0.56220136       0.85074002 </v>
    <v>       0.19214082       0.43779864       0.14925996 </v>
    <v>       0.69214082       0.43779864       0.35074002 </v>
    <v>       0.30785918       0.56220136       0.64925998 </v>
    <v>       0.07366710       0.75000002       0.59124797 </v>
    <v>       0.92633288       0.25000000       0.40875203 </v>
    <v>       0.42633291       0.25000000       0.09124791 </v>
    <v>       0.57366712       0.75000002       0.90875207 </v>
    <v>       0.19574693       0.25000000       0.95971170 </v>
    <v>       0.80425306       0.75000002       0.04028831 </v>
    <v>       0.30425306       0.75000002       0.45971162 </v>
    <v>       0.69574694       0.25000000       0.54028830 </v>
   </varray>
  </structure>
  <varray name="forces" >
   <v>       0.02367536      -0.00000000       0.09040122 </v>
   <v>      -0.02367536       0.00000000      -0.09040122 </v>
   <v>      -0.02367536       0.00000000       0.09040122 </v>
   <v>       0.02367536       0.00000000      -0.09040122 </v>
   <v>       0.08552546      -0.00000000      -0.01608704 </v>
   <v>      -0.08552546       0.00000000       0.01608704 </v>
   <v>      -0.08552546      -0.00000000      -0.01608704 </v>
   <v>       0.08552546      -0.00000000       0.01608704 </v>
   <v>       0.01909189       0.06896423      -0.13818097 </v>
   <v>      -0.01909189      -0.06896423       0.13818097 </v>
   <v>      -0.01909189      -0.06896423      -0.13818097 </v>
   <v>       0.01909189       0.06896423       0.13818097 </v>
   <v>      -0.01909189       0.06896423       0.13818097 </v>
   <v>       0.01909189      -0.06896423      -0.13818097 </v>
   <v>       0.01909189      -0.06896423       0.13818097 </v>
   <v>      -0.01909189       0.06896423      -0.13818097 </v>
   <v>      -0.05422315       0.00000000       0.00523640 </v>
   <v>       0.05422315      -0.00000000      -0.00523640 </v>
   <v>       0.05422315      -0.00000000       0.00523640 </v>
   <v>      -0.05422315       0.00000000      -0.00523640 </v>
   <v>       0.01239666      -0.00000000       0.10351241 </v>
   <v>      -0.01239666      -0.00000000      -0.10351241 </v>
   <v>      -0.01239666       0.00000000       0.10351241 </v>
   <v>       0.01239666      -0.00000000      -0.10351241 </v>
  </varray>
  <varray name="stress" >
   <v>     -23.32172664       0.00000000       0.00000000 </v>
   <v>       0.00000000       1.15239436       0.00000000 </v>
   <v>       0.00000000       0.00000000       5.00536710 </v>
  </varray>
  <energy>
   <i name="e_fr_energy">    -94.65252938 </i>
   <i name="e_wo_entrp">    -94.65252938 </i>
   <i name="e_0_energy">     -0.00000000 </i>
  </energy>
  <time name="totalsc">   72.41   74.40</time>
  <eigenvalues>
   <array>
    <dimension dim="1">band</dimension>
    <dimension dim="2">kpoint</dimension>
    <dimension dim="3">spin</dimension>
    <field>eigene</field>
    <field>occ</field>
    <set>
     <set comment="spin 1">
      <set comment="kpoint 1">
       <r>  -31.1014    1.0000 </r>
       <r>  -31.1010    1.0000 </r>
       <r>  -31.0995    1.0000 </r>
       <r>  -31.0994    1.0000 </r>
       <r>  -30.8674    1.0000 </r>
       <r>  -30.8673    1.0000 </r>
       <r>  -30.8645    1.0000 </r>
       <r>  -30.8642    1.0000 </r>
       <r>  -13.2663    1.0000 </r>
       <r>  -13.2624    1.0000 </r>
       <r>  -13.2527    1.0000 </r>
       <r>  -13.2522    1.0000 </r>
       <r>  -13.2512    1.0000 </r>
       <r>  -13.2405    1.0000 </r>
       <r>  -13.2337    1.0000 </r>
       <r>  -13.2224    1.0000 </r>
       <r>  -13.2192    1.0000 </r>
       <r>  -13.2112    1.0000 </r>
       <r>  -13.2023    1.0000 </r>
       <r>  -13.1945    1.0000 </r>
       <r>  -13.0632    1.0000 </r>
       <r>  -13.0534    1.0000 </r>
       <r>  -13.0268    1.0000 </r>
       <r>  -13.0144    1.0000 </r>
       <r>  -13.0143    1.0000 </r>
       <r>  -13.0032    1.0000 </r>
       <r>  -12.9945    1.0000 </r>
       <r>  -12.9941    1.0000 </r>
       <r>  -12.9926    1.0000 </r>
       <r>  -12.9876    1.0000 </r>
       <r>  -12.9746    1.0000 </r>
       <r>  -12.9710    1.0000 </r>
       <r>   -6.9994    1.0000 </r>
       <r>   -6.7342    1.0000 </r>
       <r>   -6.7261    1.0000 </r>
       <r>   -6.6684    1.0000 </r>
       <r>   -2.5929    1.0000 </r>
       <r>   -2.5172    1.0000 </r>
       <r>   -2.0540    1.0000 </r>
       <r>   -2.0295    1.0000 </r>
       <r>   -1.9309    1.0000 </r>
       <r>   -1.8738    1.0000 </r>
       <r>   -1.8176    1.0000 </r>
       <r>   -1.7345    1.0000 </r>
       <r>   -1.7063    1.0000 </r>
       <r>   -1.7000    1.0000 </r>
       <r>   -1.6811    1.0000 </r>
       <r>   -1.3087    1.0000 </r>
       <r>   -0.0512    1.0000 </r>
       <r>    1.0700    1.0000 </r>
       <r>    1.1306    1.0000 </r>
       <r>    1.1468    1.0000 </r>
       <r>    1.7511    1.0000 </r>
       <r>    1.8138    1.0000 </r>
       <r>    1.8418    1.0000 </r>
       <r>    1.9891    1.0000 </r>
       <r>    2.2301    1.0000 </r>
       <r>    2.2478    1.0000 </r>
       <r>    2.2737    1.0000 </r>
       <r>    2.3647    1.0000 </r>
       <r>    2.4239    1.0000 </r>
       <r>    2.5576    1.0000 </r>
       <r>    2.6193    1.0000 </r>
       <r>    2.6223    1.0000 </r>
       <r>    2.6267    1.0000 </r>
       <r>    2.8835    1.0000 </r>
       <r>    2.9438    1.0000 </r>
       <r>    2.9800    1.0000 </r>
       <r>    3.4008    1.0000 </r>
       <r>    3.5914    1.0000 </r>
       <r>    3.6586    1.0000 </r>
       <r>    3.7492    1.0000 </r>
       <r>    4.8332    0.0000 </r>
       <r>    4.9690    0.0000 </r>
       <r>    5.4387    0.0000 </r>
       <r>    5.5064    0.0000 </r>
       <r>    5.5562    0.0000 </r>
       <r>    5.8505    0.0000 </r>
       <r>    6.1520    0.0000 </r>
       <r>    6.2871    0.0000 </r>
       <r>    6.3862    0.0000 </r>
       <r>    6.6334    0.0000 </r>
       <r>    6.6782    0.0000 </r>
       <r>    6.7790    0.0000 </r>
       <r>    6.8953    0.0000 </r>
       <r>    6.9572    0.0000 </r>
       <r>    6.9750    0.0000 </r>
       <r>    7.3503    0.0000 </r>
      </set>
      <set comment="kpoint 2">
       <r>  -31.1014    1.0000 </r>
       <r>  -31.1010    1.0000 </r>
       <r>  -31.0995    1.0000 </r>
       <r>  -31.0994    1.0000 </r>
       <r>  -30.8674    1.0000 </r>
       <r>  -30.8673    1.0000 </r>
       <r>  -30.8645    1.0000 </r>
       <r>  -30.8642    1.0000 </r>
       <r>  -13.2663    1.0000 </r>
       <r>  -13.2625    1.0000 </r>
       <r>  -13.2525    1.0000 </r>
       <r>  -13.2522    1.0000 </r>
       <r>  -13.2512    1.0000 </r>
       <r>  -13.2405    1.0000 </r>
       <r>  -13.2340    1.0000 </r>
       <r>  -13.2236    1.0000 </r>
       <r>  -13.2180    1.0000 </r>
       <r>  -13.2114    1.0000 </r>
       <r>  -13.2021    1.0000 </r>
       <r>  -13.1946    1.0000 </r>
       <r>  -13.0632    1.0000 </r>
       <r>  -13.0534    1.0000 </r>
       <r>  -13.0267    1.0000 </r>
       <r>  -13.0144    1.0000 </r>
       <r>  -13.0143    1.0000 </r>
       <r>  -13.0032    1.0000 </r>
       <r>  -12.9945    1.0000 </r>
       <r>  -12.9942    1.0000 </r>
       <r>  -12.9926    1.0000 </r>
       <r>  -12.9876    1.0000 </r>
       <r>  -12.9746    1.0000 </r>
       <r>  -12.9710    1.0000 </r>
       <r>   -6.9984    1.0000 </r>
       <r>   -6.7339    1.0000 </r>
       <r>   -6.7260    1.0000 </r>
       <r>   -6.6683    1.0000 </r>
       <r>   -2.5920    1.0000 </r>
       <r>   -2.5155    1.0000 </r>
       <r>   -2.0535    1.0000 </r>
       <r>   -2.0288    1.0000 </r>
       <r>   -1.9314    1.0000 </r>
       <r>   -1.8747    1.0000 </r>
       <r>   -1.8213    1.0000 </r>
       <r>   -1.7360    1.0000 </r>
       <r>   -1.7060    1.0000 </r>
       <r>   -1.6999    1.0000 </r>
       <r>   -1.6886    1.0000 </r>
       <r>   -1.3087    1.0000 </r>
       <r>   -0.0410    1.0000 </r>
       <r>    1.0755    1.0000 </r>
       <r>    1.1343    1.0000 </r>
       <r>    1.1519    1.0000 </r>
       <r>    1.7504    1.0000 </r>
       <r>    1.7897    1.0000 </r>
       <r>    1.8391    1.0000 </r>
       <r>    2.0098    1.0000 </r>
       <r>    2.2296    1.0000 </r>
       <r>    2.2453    1.0000 </r>
       <r>    2.2751    1.0000 </r>
       <r>    2.3641    1.0000 </r>
       <r>    2.4274    1.0000 </r>
       <r>    2.5615    1.0000 </r>
       <r>    2.6149    1.0000 </r>
       <r>    2.6227    1.0000 </r>
       <r>    2.6312    1.0000 </r>
       <r>    2.8827    1.0000 </r>
       <r>    2.9284    1.0000 </r>
       <r>    2.9847    1.0000 </r>
       <r>    3.4054    1.0000 </r>
       <r>    3.5522    1.0000 </r>
       <r>    3.6968    1.0000 </r>
       <r>    3.7517    1.0000 </r>
       <r>    4.8286    0.0000 </r>
       <r>    4.9693    0.0000 </r>
       <r>    5.4431    0.0000 </r>
       <r>    5.5144    0.0000 </r>
       <r>    5.5558    0.0000 </r>
       <r>    5.8602    0.0000 </r>
       <r>    6.1499    0.0000 </r>
       <r>    6.2503    0.0000 </r>
       <r>    6.4254    0.0000 </r>
       <r>    6.6358    0.0000 </r>
       <r>    6.6654    0.0000 </r>
       <r>    6.7783    0.0000 </r>
       <r>    6.8845    0.0000 </r>
       <r>    6.9375    0.0000 </r>
       <r>    6.9752    0.0000 </r>
       <r>    7.3269    0.0000 </r>
      </set>
      <set comment="kpoint 3">
       <r>  -31.1013    1.0000 </r>
       <r>  -31.1010    1.0000 </r>
       <r>  -31.0996    1.0000 </r>
       <r>  -31.0994    1.0000 </r>
       <r>  -30.8674    1.0000 </r>
       <r>  -30.8673    1.0000 </r>
       <r>  -30.8645    1.0000 </r>
       <r>  -30.8642    1.0000 </r>
       <r>  -13.2664    1.0000 </r>
       <r>  -13.2628    1.0000 </r>
       <r>  -13.2522    1.0000 </r>
       <r>  -13.2520    1.0000 </r>
       <r>  -13.2514    1.0000 </r>
       <r>  -13.2404    1.0000 </r>
       <r>  -13.2347    1.0000 </r>
       <r>  -13.2256    1.0000 </r>
       <r>  -13.2160    1.0000 </r>
       <r>  -13.2119    1.0000 </r>
       <r>  -13.2017    1.0000 </r>
       <r>  -13.1948    1.0000 </r>
       <r>  -13.0632    1.0000 </r>
       <r>  -13.0534    1.0000 </r>
       <r>  -13.0262    1.0000 </r>
       <r>  -13.0145    1.0000 </r>
       <r>  -13.0143    1.0000 </r>
       <r>  -13.0031    1.0000 </r>
       <r>  -12.9944    1.0000 </r>
       <r>  -12.9943    1.0000 </r>
       <r>  -12.9927    1.0000 </r>
       <r>  -12.9875    1.0000 </r>
       <r>  -12.9746    1.0000 </r>
       <r>  -12.9710    1.0000 </r>
       <r>   -6.9955    1.0000 </r>
       <r>   -6.7332    1.0000 </r>
       <r>   -6.7258    1.0000 </r>
       <r>   -6.6683    1.0000 </r>
       <r>   -2.5895    1.0000 </r>
       <r>   -2.5106    1.0000 </r>
       <r>   -2.0519    1.0000 </r>
       <r>   -2.0267    1.0000 </r>
       <r>   -1.9333    1.0000 </r>
       <r>   -1.8770    1.0000 </r>
       <r>   -1.8321    1.0000 </r>
       <r>   -1.7406    1.0000 </r>
       <r>   -1.7103    1.0000 </r>
       <r>   -1.7052    1.0000 </r>
       <r>   -1.6994    1.0000 </r>
       <r>   -1.3091    1.0000 </r>
       <r>   -0.0109    1.0000 </r>
       <r>    1.0915    1.0000 </r>
       <r>    1.1453    1.0000 </r>
       <r>    1.1669    1.0000 </r>
       <r>    1.7369    1.0000 </r>
       <r>    1.7484    1.0000 </r>
       <r>    1.8312    1.0000 </r>
       <r>    2.0520    1.0000 </r>
       <r>    2.2278    1.0000 </r>
       <r>    2.2392    1.0000 </r>
       <r>    2.2795    1.0000 </r>
       <r>    2.3623    1.0000 </r>
       <r>    2.4377    1.0000 </r>
       <r>    2.5725    1.0000 </r>
       <r>    2.6015    1.0000 </r>
       <r>    2.6228    1.0000 </r>
       <r>    2.6446    1.0000 </r>
       <r>    2.8816    1.0000 </r>
       <r>    2.8947    1.0000 </r>
       <r>    2.9880    1.0000 </r>
       <r>    3.4179    1.0000 </r>
       <r>    3.4912    1.0000 </r>
       <r>    3.7547    1.0000 </r>
       <r>    3.7587    1.0000 </r>
       <r>    4.8162    0.0000 </r>
       <r>    4.9704    0.0000 </r>
       <r>    5.4556    0.0000 </r>
       <r>    5.5376    0.0000 </r>
       <r>    5.5551    0.0000 </r>
       <r>    5.8885    0.0000 </r>
       <r>    6.1431    0.0000 </r>
       <r>    6.1907    0.0000 </r>
       <r>    6.4920    0.0000 </r>
       <r>    6.6261    0.0000 </r>
       <r>    6.6423    0.0000 </r>
       <r>    6.7763    0.0000 </r>
       <r>    6.8544    0.0000 </r>
       <r>    6.8868    0.0000 </r>
       <r>    6.9760    0.0000 </r>
       <r>    7.2920    0.0000 </r>
      </set>
      <set comment="kpoint 4">
       <r>  -31.1013    1.0000 </r>
       <r>  -31.1009    1.0000 </r>
       <r>  -31.0996    1.0000 </r>
       <r>  -31.0994    1.0000 </r>
       <r>  -30.8674    1.0000 </r>
       <r>  -30.8673    1.0000 </r>
       <r>  -30.8645    1.0000 </r>
       <r>  -30.8642    1.0000 </r>
       <r>  -13.2666    1.0000 </r>
       <r>  -13.2633    1.0000 </r>
       <r>  -13.2523    1.0000 </r>
       <r>  -13.2516    1.0000 </r>
       <r>  -13.2512    1.0000 </r>
       <r>  -13.2404    1.0000 </r>
       <r>  -13.2359    1.0000 </r>
       <r>  -13.2277    1.0000 </r>
       <r>  -13.2139    1.0000 </r>
       <r>  -13.2126    1.0000 </r>
       <r>  -13.2009    1.0000 </r>
       <r>  -13.1951    1.0000 </r>
       <r>  -13.0632    1.0000 </r>
       <r>  -13.0534    1.0000 </r>
       <r>  -13.0254    1.0000 </r>
       <r>  -13.0146    1.0000 </r>
       <r>  -13.0143    1.0000 </r>
       <r>  -13.0029    1.0000 </r>
       <r>  -12.9948    1.0000 </r>
       <r>  -12.9941    1.0000 </r>
       <r>  -12.9927    1.0000 </r>
       <r>  -12.9874    1.0000 </r>
       <r>  -12.9747    1.0000 </r>
       <r>  -12.9711    1.0000 </r>
       <r>   -6.9906    1.0000 </r>
       <r>   -6.7320    1.0000 </r>
       <r>   -6.7253    1.0000 </r>
       <r>   -6.6681    1.0000 </r>
       <r>   -2.5854    1.0000 </r>
       <r>   -2.5025    1.0000 </r>
       <r>   -2.0493    1.0000 </r>
       <r>   -2.0235    1.0000 </r>
       <r>   -1.9366    1.0000 </r>
       <r>   -1.8805    1.0000 </r>
       <r>   -1.8489    1.0000 </r>
       <r>   -1.7478    1.0000 </r>
       <r>   -1.7441    1.0000 </r>
       <r>   -1.7039    1.0000 </r>
       <r>   -1.6987    1.0000 </r>
       <r>   -1.3101    1.0000 </r>
       <r>    0.0368    1.0000 </r>
       <r>    1.1175    1.0000 </r>
       <r>    1.1632    1.0000 </r>
       <r>    1.1914    1.0000 </r>
       <r>    1.6749    1.0000 </r>
       <r>    1.7449    1.0000 </r>
       <r>    1.8186    1.0000 </r>
       <r>    2.0929    1.0000 </r>
       <r>    2.2243    1.0000 </r>
       <r>    2.2345    1.0000 </r>
       <r>    2.2879    1.0000 </r>
       <r>    2.3599    1.0000 </r>
       <r>    2.4534    1.0000 </r>
       <r>    2.5796    1.0000 </r>
       <r>    2.5897    1.0000 </r>
       <r>    2.6197    1.0000 </r>
       <r>    2.6658    1.0000 </r>
       <r>    2.8515    1.0000 </r>
       <r>    2.8842    1.0000 </r>
       <r>    2.9851    1.0000 </r>
       <r>    3.4279    1.0000 </r>
       <r>    3.4355    1.0000 </r>
       <r>    3.7688    1.0000 </r>
       <r>    3.8128    1.0000 </r>
       <r>    4.7994    0.0000 </r>
       <r>    4.9726    0.0000 </r>
       <r>    5.4747    0.0000 </r>
       <r>    5.5549    0.0000 </r>
       <r>    5.5738    0.0000 </r>
       <r>    5.9326    0.0000 </r>
       <r>    6.1304    0.0000 </r>
       <r>    6.1332    0.0000 </r>
       <r>    6.5584    0.0000 </r>
       <r>    6.5604    0.0000 </r>
       <r>    6.6505    0.0000 </r>
       <r>    6.7731    0.0000 </r>
       <r>    6.8099    0.0000 </r>
       <r>    6.8221    0.0000 </r>
       <r>    6.9743    0.0000 </r>
       <r>    7.2527    0.0000 </r>
      </set>
      <set comment="kpoint 5">
       <r>  -31.1013    1.0000 </r>
       <r>  -31.1009    1.0000 </r>
       <r>  -31.0996    1.0000 </r>
       <r>  -31.0995    1.0000 </r>
       <r>  -30.8674    1.0000 </r>
       <r>  -30.8673    1.0000 </r>
       <r>  -30.8645    1.0000 </r>
       <r>  -30.8642    1.0000 </r>
       <r>  -13.2668    1.0000 </r>
       <r>  -13.2638    1.0000 </r>
       <r>  -13.2524    1.0000 </r>
       <r>  -13.2520    1.0000 </r>
       <r>  -13.2502    1.0000 </r>
       <r>  -13.2403    1.0000 </r>
       <r>  -13.2375    1.0000 </r>
       <r>  -13.2297    1.0000 </r>
       <r>  -13.2136    1.0000 </r>
       <r>  -13.2119    1.0000 </r>
       <r>  -13.2001    1.0000 </r>
       <r>  -13.1955    1.0000 </r>
       <r>  -13.0632    1.0000 </r>
       <r>  -13.0534    1.0000 </r>
       <r>  -13.0243    1.0000 </r>
       <r>  -13.0148    1.0000 </r>
       <r>  -13.0143    1.0000 </r>
       <r>  -13.0027    1.0000 </r>
       <r>  -12.9953    1.0000 </r>
       <r>  -12.9938    1.0000 </r>
       <r>  -12.9928    1.0000 </r>
       <r>  -12.9873    1.0000 </r>
       <r>  -12.9747    1.0000 </r>
       <r>  -12.9712    1.0000 </r>
       <r>   -6.9839    1.0000 </r>
       <r>   -6.7303    1.0000 </r>
       <r>   -6.7248    1.0000 </r>
       <r>   -6.6680    1.0000 </r>
       <r>   -2.5801    1.0000 </r>
       <r>   -2.4912    1.0000 </r>
       <r>   -2.0459    1.0000 </r>
       <r>   -2.0200    1.0000 </r>
       <r>   -1.9420    1.0000 </r>
       <r>   -1.8846    1.0000 </r>
       <r>   -1.8704    1.0000 </r>
       <r>   -1.7868    1.0000 </r>
       <r>   -1.7573    1.0000 </r>
       <r>   -1.7023    1.0000 </r>
       <r>   -1.6977    1.0000 </r>
       <r>   -1.3125    1.0000 </r>
       <r>    0.0994    1.0000 </r>
       <r>    1.1525    1.0000 </r>
       <r>    1.1876    1.0000 </r>
       <r>    1.2249    1.0000 </r>
       <r>    1.6110    1.0000 </r>
       <r>    1.7398    1.0000 </r>
       <r>    1.8020    1.0000 </r>
       <r>    2.1176    1.0000 </r>
       <r>    2.2180    1.0000 </r>
       <r>    2.2420    1.0000 </r>
       <r>    2.3012    1.0000 </r>
       <r>    2.3575    1.0000 </r>
       <r>    2.4729    1.0000 </r>
       <r>    2.5496    1.0000 </r>
       <r>    2.6101    1.0000 </r>
       <r>    2.6115    1.0000 </r>
       <r>    2.6935    1.0000 </r>
       <r>    2.8023    1.0000 </r>
       <r>    2.8951    1.0000 </r>
       <r>    2.9774    1.0000 </r>
       <r>    3.3648    1.0000 </r>
       <r>    3.4544    1.0000 </r>
       <r>    3.7800    1.0000 </r>
       <r>    3.8687    1.0000 </r>
       <r>    4.7828    0.0000 </r>
       <r>    4.9763    0.0000 </r>
       <r>    5.4977    0.0000 </r>
       <r>    5.5567    0.0000 </r>
       <r>    5.6198    0.0000 </r>
       <r>    5.9893    0.0000 </r>
       <r>    6.0835    0.0000 </r>
       <r>    6.1094    0.0000 </r>
       <r>    6.4637    0.0000 </r>
       <r>    6.6215    0.0000 </r>
       <r>    6.6566    0.0000 </r>
       <r>    6.7570    0.0000 </r>
       <r>    6.7608    0.0000 </r>
       <r>    6.7689    0.0000 </r>
       <r>    6.9744    0.0000 </r>
       <r>    7.2853    0.0000 </r>
      </set>
      <set comment="kpoint 6">
       <r>  -31.1013    1.0000 </r>
       <r>  -31.1009    1.0000 </r>
       <r>  -31.0996    1.0000 </r>
       <r>  -31.0995    1.0000 </r>
       <r>  -30.8674    1.0000 </r>
       <r>  -30.8673    1.0000 </r>
       <r>  -30.8645    1.0000 </r>
       <r>  -30.8642    1.0000 </r>
       <r>  -13.2671    1.0000 </r>
       <r>  -13.2643    1.0000 </r>
       <r>  -13.2525    1.0000 </r>
       <r>  -13.2524    1.0000 </r>
       <r>  -13.2491    1.0000 </r>
       <r>  -13.2403    1.0000 </r>
       <r>  -13.2392    1.0000 </r>
       <r>  -13.2317    1.0000 </r>
       <r>  -13.2148    1.0000 </r>
       <r>  -13.2099    1.0000 </r>
       <r>  -13.1992    1.0000 </r>
       <r>  -13.1960    1.0000 </r>
       <r>  -13.0631    1.0000 </r>
       <r>  -13.0534    1.0000 </r>
       <r>  -13.0230    1.0000 </r>
       <r>  -13.0151    1.0000 </r>
       <r>  -13.0143    1.0000 </r>
       <r>  -13.0024    1.0000 </r>
       <r>  -12.9959    1.0000 </r>
       <r>  -12.9934    1.0000 </r>
       <r>  -12.9929    1.0000 </r>
       <r>  -12.9872    1.0000 </r>
       <r>  -12.9747    1.0000 </r>
       <r>  -12.9714    1.0000 </r>
       <r>   -6.9755    1.0000 </r>
       <r>   -6.7282    1.0000 </r>
       <r>   -6.7243    1.0000 </r>
       <r>   -6.6678    1.0000 </r>
       <r>   -2.5740    1.0000 </r>
       <r>   -2.4768    1.0000 </r>
       <r>   -2.0421    1.0000 </r>
       <r>   -2.0179    1.0000 </r>
       <r>   -1.9497    1.0000 </r>
       <r>   -1.8947    1.0000 </r>
       <r>   -1.8888    1.0000 </r>
       <r>   -1.8339    1.0000 </r>
       <r>   -1.7683    1.0000 </r>
       <r>   -1.7005    1.0000 </r>
       <r>   -1.6965    1.0000 </r>
       <r>   -1.3166    1.0000 </r>
       <r>    0.1736    1.0000 </r>
       <r>    1.1949    1.0000 </r>
       <r>    1.2176    1.0000 </r>
       <r>    1.2663    1.0000 </r>
       <r>    1.5485    1.0000 </r>
       <r>    1.7331    1.0000 </r>
       <r>    1.7824    1.0000 </r>
       <r>    2.1185    1.0000 </r>
       <r>    2.2072    1.0000 </r>
       <r>    2.2691    1.0000 </r>
       <r>    2.3200    1.0000 </r>
       <r>    2.3557    1.0000 </r>
       <r>    2.4951    1.0000 </r>
       <r>    2.5133    1.0000 </r>
       <r>    2.5929    1.0000 </r>
       <r>    2.6361    1.0000 </r>
       <r>    2.7262    1.0000 </r>
       <r>    2.7497    1.0000 </r>
       <r>    2.9172    1.0000 </r>
       <r>    2.9674    1.0000 </r>
       <r>    3.3030    1.0000 </r>
       <r>    3.4713    1.0000 </r>
       <r>    3.7907    1.0000 </r>
       <r>    3.9212    1.0000 </r>
       <r>    4.7709    0.0000 </r>
       <r>    4.9812    0.0000 </r>
       <r>    5.5215    0.0000 </r>
       <r>    5.5620    0.0000 </r>
       <r>    5.6718    0.0000 </r>
       <r>    6.0450    0.0000 </r>
       <r>    6.0550    0.0000 </r>
       <r>    6.0762    0.0000 </r>
       <r>    6.3510    0.0000 </r>
       <r>    6.6429    0.0000 </r>
       <r>    6.6561    0.0000 </r>
       <r>    6.6967    0.0000 </r>
       <r>    6.7413    0.0000 </r>
       <r>    6.7640    0.0000 </r>
       <r>    6.9735    0.0000 </r>
       <r>    7.2558    0.0000 </r>
      </set>
      <set comment="kpoint 7">
       <r>  -31.1012    1.0000 </r>
       <r>  -31.1009    1.0000 </r>
       <r>  -31.0996    1.0000 </r>
       <r>  -31.0995    1.0000 </r>
       <r>  -30.8674    1.0000 </r>
       <r>  -30.8673    1.0000 </r>
       <r>  -30.8644    1.0000 </r>
       <r>  -30.8642    1.0000 </r>
       <r>  -13.2673    1.0000 </r>
       <r>  -13.2648    1.0000 </r>
       <r>  -13.2531    1.0000 </r>
       <r>  -13.2527    1.0000 </r>
       <r>  -13.2480    1.0000 </r>
       <r>  -13.2411    1.0000 </r>
       <r>  -13.2403    1.0000 </r>
       <r>  -13.2335    1.0000 </r>
       <r>  -13.2159    1.0000 </r>
       <r>  -13.2080    1.0000 </r>
       <r>  -13.1983    1.0000 </r>
       <r>  -13.1966    1.0000 </r>
       <r>  -13.0631    1.0000 </r>
       <r>  -13.0535    1.0000 </r>
       <r>  -13.0214    1.0000 </r>
       <r>  -13.0153    1.0000 </r>
       <r>  -13.0143    1.0000 </r>
       <r>  -13.0021    1.0000 </r>
       <r>  -12.9965    1.0000 </r>
       <r>  -12.9930    1.0000 </r>
       <r>  -12.9930    1.0000 </r>
       <r>  -12.9871    1.0000 </r>
       <r>  -12.9747    1.0000 </r>
       <r>  -12.9715    1.0000 </r>
       <r>   -6.9655    1.0000 </r>
       <r>   -6.7257    1.0000 </r>
       <r>   -6.7238    1.0000 </r>
       <r>   -6.6677    1.0000 </r>
       <r>   -2.5676    1.0000 </r>
       <r>   -2.4596    1.0000 </r>
       <r>   -2.0382    1.0000 </r>
       <r>   -2.0215    1.0000 </r>
       <r>   -1.9596    1.0000 </r>
       <r>   -1.9200    1.0000 </r>
       <r>   -1.8929    1.0000 </r>
       <r>   -1.8787    1.0000 </r>
       <r>   -1.7799    1.0000 </r>
       <r>   -1.6987    1.0000 </r>
       <r>   -1.6952    1.0000 </r>
       <r>   -1.3230    1.0000 </r>
       <r>    0.2564    1.0000 </r>
       <r>    1.2429    1.0000 </r>
       <r>    1.2520    1.0000 </r>
       <r>    1.3147    1.0000 </r>
       <r>    1.4897    1.0000 </r>
       <r>    1.7248    1.0000 </r>
       <r>    1.7609    1.0000 </r>
       <r>    2.1045    1.0000 </r>
       <r>    2.1894    1.0000 </r>
       <r>    2.3085    1.0000 </r>
       <r>    2.3445    1.0000 </r>
       <r>    2.3548    1.0000 </r>
       <r>    2.4736    1.0000 </r>
       <r>    2.5189    1.0000 </r>
       <r>    2.5698    1.0000 </r>
       <r>    2.6621    1.0000 </r>
       <r>    2.6956    1.0000 </r>
       <r>    2.7620    1.0000 </r>
       <r>    2.9506    1.0000 </r>
       <r>    2.9568    1.0000 </r>
       <r>    3.2432    1.0000 </r>
       <r>    3.4838    1.0000 </r>
       <r>    3.7994    1.0000 </r>
       <r>    3.9697    1.0000 </r>
       <r>    4.7673    0.0000 </r>
       <r>    4.9868    0.0000 </r>
       <r>    5.5417    0.0000 </r>
       <r>    5.5725    0.0000 </r>
       <r>    5.7259    0.0000 </r>
       <r>    6.0208    0.0000 </r>
       <r>    6.0234    0.0000 </r>
       <r>    6.1263    0.0000 </r>
       <r>    6.2351    0.0000 </r>
       <r>    6.5979    0.0000 </r>
       <r>    6.6425    0.0000 </r>
       <r>    6.6444    0.0000 </r>
       <r>    6.7576    0.0000 </r>
       <r>    6.7798    0.0000 </r>
       <r>    6.9679    0.0000 </r>
       <r>    7.2331    0.0000 </r>
      </set>
      <set comment="kpoint 8">
       <r>  -31.1012    1.0000 </r>
       <r>  -31.1008    1.0000 </r>
       <r>  -31.0997    1.0000 </r>
       <r>  -31.0995    1.0000 </r>
       <r>  -30.8674    1.0000 </r>
       <r>  -30.8673    1.0000 </r>
       <r>  -30.8644    1.0000 </r>
       <r>  -30.8642    1.0000 </r>
       <r>  -13.2676    1.0000 </r>
       <r>  -13.2651    1.0000 </r>
       <r>  -13.2538    1.0000 </r>
       <r>  -13.2530    1.0000 </r>
       <r>  -13.2469    1.0000 </r>
       <r>  -13.2430    1.0000 </r>
       <r>  -13.2405    1.0000 </r>
       <r>  -13.2352    1.0000 </r>
       <r>  -13.2170    1.0000 </r>
       <r>  -13.2063    1.0000 </r>
       <r>  -13.1976    1.0000 </r>
       <r>  -13.1972    1.0000 </r>
       <r>  -13.0630    1.0000 </r>
       <r>  -13.0536    1.0000 </r>
       <r>  -13.0197    1.0000 </r>
       <r>  -13.0156    1.0000 </r>
       <r>  -13.0144    1.0000 </r>
       <r>  -13.0018    1.0000 </r>
       <r>  -12.9972    1.0000 </r>
       <r>  -12.9931    1.0000 </r>
       <r>  -12.9925    1.0000 </r>
       <r>  -12.9870    1.0000 </r>
       <r>  -12.9748    1.0000 </r>
       <r>  -12.9717    1.0000 </r>
       <r>   -6.9541    1.0000 </r>
       <r>   -6.7235    1.0000 </r>
       <r>   -6.7229    1.0000 </r>
       <r>   -6.6676    1.0000 </r>
       <r>   -2.5614    1.0000 </r>
       <r>   -2.4396    1.0000 </r>
       <r>   -2.0396    1.0000 </r>
       <r>   -2.0348    1.0000 </r>
       <r>   -1.9715    1.0000 </r>
       <r>   -1.9445    1.0000 </r>
       <r>   -1.9106    1.0000 </r>
       <r>   -1.8971    1.0000 </r>
       <r>   -1.7914    1.0000 </r>
       <r>   -1.6969    1.0000 </r>
       <r>   -1.6938    1.0000 </r>
       <r>   -1.3318    1.0000 </r>
       <r>    0.3449    1.0000 </r>
       <r>    1.2889    1.0000 </r>
       <r>    1.2938    1.0000 </r>
       <r>    1.3685    1.0000 </r>
       <r>    1.4372    1.0000 </r>
       <r>    1.7152    1.0000 </r>
       <r>    1.7385    1.0000 </r>
       <r>    2.0844    1.0000 </r>
       <r>    2.1616    1.0000 </r>
       <r>    2.3526    1.0000 </r>
       <r>    2.3550    1.0000 </r>
       <r>    2.3744    1.0000 </r>
       <r>    2.4343    1.0000 </r>
       <r>    2.5439    1.0000 </r>
       <r>    2.5443    1.0000 </r>
       <r>    2.6416    1.0000 </r>
       <r>    2.6886    1.0000 </r>
       <r>    2.7991    1.0000 </r>
       <r>    2.9469    1.0000 </r>
       <r>    2.9935    1.0000 </r>
       <r>    3.1861    1.0000 </r>
       <r>    3.4903    1.0000 </r>
       <r>    3.8053    1.0000 </r>
       <r>    4.0132    1.0000 </r>
       <r>    4.7745    0.0000 </r>
       <r>    4.9923    0.0000 </r>
       <r>    5.5536    0.0000 </r>
       <r>    5.5897    0.0000 </r>
       <r>    5.7779    0.0000 </r>
       <r>    5.9400    0.0000 </r>
       <r>    6.0136    0.0000 </r>
       <r>    6.1335    0.0000 </r>
       <r>    6.2001    0.0000 </r>
       <r>    6.5367    0.0000 </r>
       <r>    6.5945    0.0000 </r>
       <r>    6.6163    0.0000 </r>
       <r>    6.7501    0.0000 </r>
       <r>    6.8273    0.0000 </r>
       <r>    6.9799    0.0000 </r>
       <r>    7.1465    0.0000 </r>
      </set>
      <set comment="kpoint 9">
       <r>  -31.1011    1.0000 </r>
       <r>  -31.1008    1.0000 </r>
       <r>  -31.0997    1.0000 </r>
       <r>  -31.0996    1.0000 </r>
       <r>  -30.8674    1.0000 </r>
       <r>  -30.8673    1.0000 </r>
       <r>  -30.8644    1.0000 </r>
       <r>  -30.8642    1.0000 </r>
       <r>  -13.2679    1.0000 </r>
       <r>  -13.2653    1.0000 </r>
       <r>  -13.2546    1.0000 </r>
       <r>  -13.2533    1.0000 </r>
       <r>  -13.2458    1.0000 </r>
       <r>  -13.2449    1.0000 </r>
       <r>  -13.2409    1.0000 </r>
       <r>  -13.2367    1.0000 </r>
       <r>  -13.2177    1.0000 </r>
       <r>  -13.2048    1.0000 </r>
       <r>  -13.1978    1.0000 </r>
       <r>  -13.1970    1.0000 </r>
       <r>  -13.0629    1.0000 </r>
       <r>  -13.0538    1.0000 </r>
       <r>  -13.0179    1.0000 </r>
       <r>  -13.0160    1.0000 </r>
       <r>  -13.0145    1.0000 </r>
       <r>  -13.0014    1.0000 </r>
       <r>  -12.9978    1.0000 </r>
       <r>  -12.9933    1.0000 </r>
       <r>  -12.9920    1.0000 </r>
       <r>  -12.9869    1.0000 </r>
       <r>  -12.9748    1.0000 </r>
       <r>  -12.9719    1.0000 </r>
       <r>   -6.9414    1.0000 </r>
       <r>   -6.7236    1.0000 </r>
       <r>   -6.7197    1.0000 </r>
       <r>   -6.6675    1.0000 </r>
       <r>   -2.5561    1.0000 </r>
       <r>   -2.4170    1.0000 </r>
       <r>   -2.0776    1.0000 </r>
       <r>   -2.0323    1.0000 </r>
       <r>   -1.9848    1.0000 </r>
       <r>   -1.9665    1.0000 </r>
       <r>   -1.9225    1.0000 </r>
       <r>   -1.9019    1.0000 </r>
       <r>   -1.8015    1.0000 </r>
       <r>   -1.6955    1.0000 </r>
       <r>   -1.6922    1.0000 </r>
       <r>   -1.3432    1.0000 </r>
       <r>    0.4367    1.0000 </r>
       <r>    1.3204    1.0000 </r>
       <r>    1.3443    1.0000 </r>
       <r>    1.3992    1.0000 </r>
       <r>    1.4261    1.0000 </r>
       <r>    1.7051    1.0000 </r>
       <r>    1.7165    1.0000 </r>
       <r>    2.0626    1.0000 </r>
       <r>    2.1216    1.0000 </r>
       <r>    2.3562    1.0000 </r>
       <r>    2.3984    1.0000 </r>
       <r>    2.3996    1.0000 </r>
       <r>    2.4089    1.0000 </r>
       <r>    2.5203    1.0000 </r>
       <r>    2.5703    1.0000 </r>
       <r>    2.5886    1.0000 </r>
       <r>    2.7149    1.0000 </r>
       <r>    2.8354    1.0000 </r>
       <r>    2.9385    1.0000 </r>
       <r>    3.0437    1.0000 </r>
       <r>    3.1322    1.0000 </r>
       <r>    3.4907    1.0000 </r>
       <r>    3.8083    1.0000 </r>
       <r>    4.0510    1.0000 </r>
       <r>    4.7937    0.0000 </r>
       <r>    4.9967    0.0000 </r>
       <r>    5.5530    0.0000 </r>
       <r>    5.6149    0.0000 </r>
       <r>    5.8240    0.0000 </r>
       <r>    5.8257    0.0000 </r>
       <r>    6.0238    0.0000 </r>
       <r>    6.0518    0.0000 </r>
       <r>    6.2729    0.0000 </r>
       <r>    6.4757    0.0000 </r>
       <r>    6.5529    0.0000 </r>
       <r>    6.5675    0.0000 </r>
       <r>    6.7398    0.0000 </r>
       <r>    6.8682    0.0000 </r>
       <r>    6.9236    0.0000 </r>
       <r>    7.0373    0.0000 </r>
      </set>
      <set comment="kpoint 10">
       <r>  -31.1011    1.0000 </r>
       <r>  -31.1007    1.0000 </r>
       <r>  -31.0997    1.0000 </r>
       <r>  -31.0996    1.0000 </r>
       <r>  -30.8674    1.0000 </r>
       <r>  -30.8673    1.0000 </r>
       <r>  -30.8644    1.0000 </r>
       <r>  -30.8642    1.0000 </r>
       <r>  -13.2682    1.0000 </r>
       <r>  -13.2654    1.0000 </r>
       <r>  -13.2556    1.0000 </r>
       <r>  -13.2536    1.0000 </r>
       <r>  -13.2467    1.0000 </r>
       <r>  -13.2449    1.0000 </r>
       <r>  -13.2417    1.0000 </r>
       <r>  -13.2381    1.0000 </r>
       <r>  -13.2181    1.0000 </r>
       <r>  -13.2034    1.0000 </r>
       <r>  -13.1984    1.0000 </r>
       <r>  -13.1966    1.0000 </r>
       <r>  -13.0627    1.0000 </r>
       <r>  -13.0540    1.0000 </r>
       <r>  -13.0163    1.0000 </r>
       <r>  -13.0160    1.0000 </r>
       <r>  -13.0147    1.0000 </r>
       <r>  -13.0010    1.0000 </r>
       <r>  -12.9984    1.0000 </r>
       <r>  -12.9936    1.0000 </r>
       <r>  -12.9915    1.0000 </r>
       <r>  -12.9868    1.0000 </r>
       <r>  -12.9748    1.0000 </r>
       <r>  -12.9721    1.0000 </r>
       <r>   -6.9276    1.0000 </r>
       <r>   -6.7241    1.0000 </r>
       <r>   -6.7164    1.0000 </r>
       <r>   -6.6676    1.0000 </r>
       <r>   -2.5522    1.0000 </r>
       <r>   -2.3922    1.0000 </r>
       <r>   -2.1280    1.0000 </r>
       <r>   -2.0315    1.0000 </r>
       <r>   -1.9988    1.0000 </r>
       <r>   -1.9846    1.0000 </r>
       <r>   -1.9209    1.0000 </r>
       <r>   -1.9076    1.0000 </r>
       <r>   -1.8093    1.0000 </r>
       <r>   -1.6946    1.0000 </r>
       <r>   -1.6904    1.0000 </r>
       <r>   -1.3571    1.0000 </r>
       <r>    0.5293    1.0000 </r>
       <r>    1.3168    1.0000 </r>
       <r>    1.3901    1.0000 </r>
       <r>    1.4052    1.0000 </r>
       <r>    1.4853    1.0000 </r>
       <r>    1.6956    1.0000 </r>
       <r>    1.6963    1.0000 </r>
       <r>    2.0410    1.0000 </r>
       <r>    2.0698    1.0000 </r>
       <r>    2.3579    1.0000 </r>
       <r>    2.3707    1.0000 </r>
       <r>    2.4446    1.0000 </r>
       <r>    2.4459    1.0000 </r>
       <r>    2.5012    1.0000 </r>
       <r>    2.5376    1.0000 </r>
       <r>    2.5995    1.0000 </r>
       <r>    2.7410    1.0000 </r>
       <r>    2.8699    1.0000 </r>
       <r>    2.9319    1.0000 </r>
       <r>    3.0821    1.0000 </r>
       <r>    3.0992    1.0000 </r>
       <r>    3.4856    1.0000 </r>
       <r>    3.8086    1.0000 </r>
       <r>    4.0823    1.0000 </r>
       <r>    4.8248    0.0000 </r>
       <r>    4.9992    0.0000 </r>
       <r>    5.5369    0.0000 </r>
       <r>    5.6488    0.0000 </r>
       <r>    5.6955    0.0000 </r>
       <r>    5.8605    0.0000 </r>
       <r>    5.9791    0.0000 </r>
       <r>    6.0484    0.0000 </r>
       <r>    6.3413    0.0000 </r>
       <r>    6.4223    0.0000 </r>
       <r>    6.4943    0.0000 </r>
       <r>    6.5179    0.0000 </r>
       <r>    6.7261    0.0000 </r>
       <r>    6.8591    0.0000 </r>
       <r>    6.9190    0.0000 </r>
       <r>    6.9543    0.0000 </r>
      </set>
      <set comment="kpoint 11">
       <r>  -31.1010    1.0000 </r>
       <r>  -31.1007    1.0000 </r>
       <r>  -31.0998    1.0000 </r>
       <r>  -31.0996    1.0000 </r>
       <r>  -30.8674    1.0000 </r>
       <r>  -30.8673    1.0000 </r>
       <r>  -30.8644    1.0000 </r>
       <r>  -30.8642    1.0000 </r>
       <r>  -13.2684    1.0000 </r>
       <r>  -13.2654    1.0000 </r>
       <r>  -13.2566    1.0000 </r>
       <r>  -13.2541    1.0000 </r>
       <r>  -13.2484    1.0000 </r>
       <r>  -13.2441    1.0000 </r>
       <r>  -13.2427    1.0000 </r>
       <r>  -13.2393    1.0000 </r>
       <r>  -13.2180    1.0000 </r>
       <r>  -13.2022    1.0000 </r>
       <r>  -13.1989    1.0000 </r>
       <r>  -13.1965    1.0000 </r>
       <r>  -13.0624    1.0000 </r>
       <r>  -13.0542    1.0000 </r>
       <r>  -13.0166    1.0000 </r>
       <r>  -13.0150    1.0000 </r>
       <r>  -13.0140    1.0000 </r>
       <r>  -13.0007    1.0000 </r>
       <r>  -12.9988    1.0000 </r>
       <r>  -12.9938    1.0000 </r>
       <r>  -12.9909    1.0000 </r>
       <r>  -12.9867    1.0000 </r>
       <r>  -12.9748    1.0000 </r>
       <r>  -12.9724    1.0000 </r>
       <r>   -6.9130    1.0000 </r>
       <r>   -6.7252    1.0000 </r>
       <r>   -6.7128    1.0000 </r>
       <r>   -6.6679    1.0000 </r>
       <r>   -2.5501    1.0000 </r>
       <r>   -2.3652    1.0000 </r>
       <r>   -2.1824    1.0000 </r>
       <r>   -2.0328    1.0000 </r>
       <r>   -2.0130    1.0000 </r>
       <r>   -1.9975    1.0000 </r>
       <r>   -1.9148    1.0000 </r>
       <r>   -1.9135    1.0000 </r>
       <r>   -1.8140    1.0000 </r>
       <r>   -1.6944    1.0000 </r>
       <r>   -1.6881    1.0000 </r>
       <r>   -1.3734    1.0000 </r>
       <r>    0.6208    1.0000 </r>
       <r>    1.2887    1.0000 </r>
       <r>    1.4256    1.0000 </r>
       <r>    1.4450    1.0000 </r>
       <r>    1.5431    1.0000 </r>
       <r>    1.6770    1.0000 </r>
       <r>    1.6918    1.0000 </r>
       <r>    2.0101    1.0000 </r>
       <r>    2.0207    1.0000 </r>
       <r>    2.3458    1.0000 </r>
       <r>    2.3602    1.0000 </r>
       <r>    2.4820    1.0000 </r>
       <r>    2.4895    1.0000 </r>
       <r>    2.4897    1.0000 </r>
       <r>    2.4900    1.0000 </r>
       <r>    2.6338    1.0000 </r>
       <r>    2.7668    1.0000 </r>
       <r>    2.9022    1.0000 </r>
       <r>    2.9274    1.0000 </r>
       <r>    3.0364    1.0000 </r>
       <r>    3.1580    1.0000 </r>
       <r>    3.4761    1.0000 </r>
       <r>    3.8073    1.0000 </r>
       <r>    4.1061    1.0000 </r>
       <r>    4.8665    0.0000 </r>
       <r>    4.9990    0.0000 </r>
       <r>    5.5041    0.0000 </r>
       <r>    5.5619    0.0000 </r>
       <r>    5.6915    0.0000 </r>
       <r>    5.8846    0.0000 </r>
       <r>    5.9071    0.0000 </r>
       <r>    6.0797    0.0000 </r>
       <r>    6.3861    0.0000 </r>
       <r>    6.3972    0.0000 </r>
       <r>    6.4017    0.0000 </r>
       <r>    6.4896    0.0000 </r>
       <r>    6.7070    0.0000 </r>
       <r>    6.7689    0.0000 </r>
       <r>    6.8867    0.0000 </r>
       <r>    6.9523    0.0000 </r>
      </set>
      <set comment="kpoint 12">
       <r>  -31.1009    1.0000 </r>
       <r>  -31.1006    1.0000 </r>
       <r>  -31.0998    1.0000 </r>
       <r>  -31.0997    1.0000 </r>
       <r>  -30.8674    1.0000 </r>
       <r>  -30.8673    1.0000 </r>
       <r>  -30.8644    1.0000 </r>
       <r>  -30.8642    1.0000 </r>
       <r>  -13.2685    1.0000 </r>
       <r>  -13.2653    1.0000 </r>
       <r>  -13.2576    1.0000 </r>
       <r>  -13.2546    1.0000 </r>
       <r>  -13.2500    1.0000 </r>
       <r>  -13.2441    1.0000 </r>
       <r>  -13.2434    1.0000 </r>
       <r>  -13.2403    1.0000 </r>
       <r>  -13.2175    1.0000 </r>
       <r>  -13.2012    1.0000 </r>
       <r>  -13.1994    1.0000 </r>
       <r>  -13.1965    1.0000 </r>
       <r>  -13.0621    1.0000 </r>
       <r>  -13.0545    1.0000 </r>
       <r>  -13.0169    1.0000 </r>
       <r>  -13.0153    1.0000 </r>
       <r>  -13.0121    1.0000 </r>
       <r>  -13.0003    1.0000 </r>
       <r>  -12.9992    1.0000 </r>
       <r>  -12.9941    1.0000 </r>
       <r>  -12.9904    1.0000 </r>
       <r>  -12.9866    1.0000 </r>
       <r>  -12.9748    1.0000 </r>
       <r>  -12.9726    1.0000 </r>
       <r>   -6.8978    1.0000 </r>
       <r>   -6.7271    1.0000 </r>
       <r>   -6.7091    1.0000 </r>
       <r>   -6.6683    1.0000 </r>
       <r>   -2.5498    1.0000 </r>
       <r>   -2.3365    1.0000 </r>
       <r>   -2.2365    1.0000 </r>
       <r>   -2.0363    1.0000 </r>
       <r>   -2.0269    1.0000 </r>
       <r>   -2.0048    1.0000 </r>
       <r>   -1.9239    1.0000 </r>
       <r>   -1.9044    1.0000 </r>
       <r>   -1.8151    1.0000 </r>
       <r>   -1.6950    1.0000 </r>
       <r>   -1.6850    1.0000 </r>
       <r>   -1.3918    1.0000 </r>
       <r>    0.7094    1.0000 </r>
       <r>    1.2623    1.0000 </r>
       <r>    1.4453    1.0000 </r>
       <r>    1.4923    1.0000 </r>
       <r>    1.5946    1.0000 </r>
       <r>    1.6614    1.0000 </r>
       <r>    1.6943    1.0000 </r>
       <r>    1.9490    1.0000 </r>
       <r>    2.0022    1.0000 </r>
       <r>    2.3206    1.0000 </r>
       <r>    2.3641    1.0000 </r>
       <r>    2.4489    1.0000 </r>
       <r>    2.4869    1.0000 </r>
       <r>    2.5132    1.0000 </r>
       <r>    2.5311    1.0000 </r>
       <r>    2.6758    1.0000 </r>
       <r>    2.7921    1.0000 </r>
       <r>    2.9249    1.0000 </r>
       <r>    2.9329    1.0000 </r>
       <r>    2.9962    1.0000 </r>
       <r>    3.2177    1.0000 </r>
       <r>    3.4636    1.0000 </r>
       <r>    3.8055    1.0000 </r>
       <r>    4.1218    1.0000 </r>
       <r>    4.9172    0.0000 </r>
       <r>    4.9953    0.0000 </r>
       <r>    5.4311    0.0000 </r>
       <r>    5.4556    0.0000 </r>
       <r>    5.7418    0.0000 </r>
       <r>    5.8336    0.0000 </r>
       <r>    5.8943    0.0000 </r>
       <r>    6.1067    0.0000 </r>
       <r>    6.2836    0.0000 </r>
       <r>    6.3794    0.0000 </r>
       <r>    6.4508    0.0000 </r>
       <r>    6.4677    0.0000 </r>
       <r>    6.6724    0.0000 </r>
       <r>    6.6840    0.0000 </r>
       <r>    6.8605    0.0000 </r>
       <r>    6.9158    0.0000 </r>
      </set>
      <set comment="kpoint 13">
       <r>  -31.1009    1.0000 </r>
       <r>  -31.1006    1.0000 </r>
       <r>  -31.0999    1.0000 </r>
       <r>  -31.0997    1.0000 </r>
       <r>  -30.8674    1.0000 </r>
       <r>  -30.8673    1.0000 </r>
       <r>  -30.8644    1.0000 </r>
       <r>  -30.8642    1.0000 </r>
       <r>  -13.2686    1.0000 </r>
       <r>  -13.2650    1.0000 </r>
       <r>  -13.2587    1.0000 </r>
       <r>  -13.2551    1.0000 </r>
       <r>  -13.2514    1.0000 </r>
       <r>  -13.2456    1.0000 </r>
       <r>  -13.2429    1.0000 </r>
       <r>  -13.2411    1.0000 </r>
       <r>  -13.2166    1.0000 </r>
       <r>  -13.2005    1.0000 </r>
       <r>  -13.1998    1.0000 </r>
       <r>  -13.1969    1.0000 </r>
       <r>  -13.0618    1.0000 </r>
       <r>  -13.0549    1.0000 </r>
       <r>  -13.0172    1.0000 </r>
       <r>  -13.0157    1.0000 </r>
       <r>  -13.0103    1.0000 </r>
       <r>  -13.0001    1.0000 </r>
       <r>  -12.9993    1.0000 </r>
       <r>  -12.9945    1.0000 </r>
       <r>  -12.9899    1.0000 </r>
       <r>  -12.9866    1.0000 </r>
       <r>  -12.9748    1.0000 </r>
       <r>  -12.9728    1.0000 </r>
       <r>   -6.8821    1.0000 </r>
       <r>   -6.7298    1.0000 </r>
       <r>   -6.7053    1.0000 </r>
       <r>   -6.6689    1.0000 </r>
       <r>   -2.5509    1.0000 </r>
       <r>   -2.3064    1.0000 </r>
       <r>   -2.2883    1.0000 </r>
       <r>   -2.0418    1.0000 </r>
       <r>   -2.0399    1.0000 </r>
       <r>   -2.0063    1.0000 </r>
       <r>   -1.9351    1.0000 </r>
       <r>   -1.8955    1.0000 </r>
       <r>   -1.8127    1.0000 </r>
       <r>   -1.6967    1.0000 </r>
       <r>   -1.6806    1.0000 </r>
       <r>   -1.4121    1.0000 </r>
       <r>    0.7939    1.0000 </r>
       <r>    1.2427    1.0000 </r>
       <r>    1.4471    1.0000 </r>
       <r>    1.5422    1.0000 </r>
       <r>    1.6312    1.0000 </r>
       <r>    1.6495    1.0000 </r>
       <r>    1.7034    1.0000 </r>
       <r>    1.8965    1.0000 </r>
       <r>    1.9861    1.0000 </r>
       <r>    2.2892    1.0000 </r>
       <r>    2.3721    1.0000 </r>
       <r>    2.4193    1.0000 </r>
       <r>    2.4920    1.0000 </r>
       <r>    2.5368    1.0000 </r>
       <r>    2.5667    1.0000 </r>
       <r>    2.7243    1.0000 </r>
       <r>    2.8167    1.0000 </r>
       <r>    2.9242    1.0000 </r>
       <r>    2.9641    1.0000 </r>
       <r>    2.9644    1.0000 </r>
       <r>    3.2760    1.0000 </r>
       <r>    3.4491    1.0000 </r>
       <r>    3.8050    1.0000 </r>
       <r>    4.1287    1.0000 </r>
       <r>    4.9747    0.0000 </r>
       <r>    4.9863    0.0000 </r>
       <r>    5.3064    0.0000 </r>
       <r>    5.3965    0.0000 </r>
       <r>    5.7589    0.0000 </r>
       <r>    5.7962    0.0000 </r>
       <r>    5.8899    0.0000 </r>
       <r>    6.1233    0.0000 </r>
[...]
       <r>  -13.1999    1.0000 </r>
       <r>  -13.1999    1.0000 </r>
       <r>  -13.0420    1.0000 </r>
       <r>  -13.0420    1.0000 </r>
       <r>  -13.0265    1.0000 </r>
       <r>  -13.0265    1.0000 </r>
       <r>  -13.0001    1.0000 </r>
       <r>  -13.0001    1.0000 </r>
       <r>  -12.9948    1.0000 </r>
       <r>  -12.9948    1.0000 </r>
       <r>  -12.9948    1.0000 </r>
       <r>  -12.9948    1.0000 </r>
       <r>  -12.9898    1.0000 </r>
       <r>  -12.9898    1.0000 </r>
       <r>   -6.8284    1.0000 </r>
       <r>   -6.8284    1.0000 </r>
       <r>   -6.7157    1.0000 </r>
       <r>   -6.7157    1.0000 </r>
       <r>   -2.5530    1.0000 </r>
       <r>   -2.5530    1.0000 </r>
       <r>   -2.1547    1.0000 </r>
       <r>   -2.1547    1.0000 </r>
       <r>   -1.8090    1.0000 </r>
       <r>   -1.8090    1.0000 </r>
       <r>   -1.8015    1.0000 </r>
       <r>   -1.8015    1.0000 </r>
       <r>   -1.7613    1.0000 </r>
       <r>   -1.7613    1.0000 </r>
       <r>   -1.6841    1.0000 </r>
       <r>   -1.6841    1.0000 </r>
       <r>    0.6865    1.0000 </r>
       <r>    0.6865    1.0000 </r>
       <r>    1.1404    1.0000 </r>
       <r>    1.1404    1.0000 </r>
       <r>    1.7442    1.0000 </r>
       <r>    1.7442    1.0000 </r>
       <r>    2.0682    1.0000 </r>
       <r>    2.0682    1.0000 </r>
       <r>    2.0790    1.0000 </r>
       <r>    2.0790    1.0000 </r>
       <r>    2.4607    1.0000 </r>
       <r>    2.4607    1.0000 </r>
       <r>    2.8479    1.0000 </r>
       <r>    2.8479    1.0000 </r>
       <r>    2.8646    1.0000 </r>
       <r>    2.8646    1.0000 </r>
       <r>    2.9433    1.0000 </r>
       <r>    2.9433    1.0000 </r>
       <r>    3.2358    1.0000 </r>
       <r>    3.2358    1.0000 </r>
       <r>    3.3389    1.0000 </r>
       <r>    3.3389    1.0000 </r>
       <r>    3.4181    1.0000 </r>
       <r>    3.4181    1.0000 </r>
       <r>    5.1719    0.0000 </r>
       <r>    5.1719    0.0000 </r>
       <r>    5.2559    0.0000 </r>
       <r>    5.2559    0.0000 </r>
       <r>    5.3148    0.0000 </r>
       <r>    5.3148    0.0000 </r>
       <r>    5.6264    0.0000 </r>
       <r>    5.6264    0.0000 </r>
       <r>    6.3004    0.0000 </r>
       <r>    6.3004    0.0000 </r>
       <r>    6.5282    0.0000 </r>
       <r>    6.5282    0.0000 </r>
       <r>    6.8096    0.0000 </r>
       <r>    6.8096    0.0000 </r>
       <r>    7.3167    0.0000 </r>
       <r>    7.4008    0.0000 </r>
      </set>
     </set>
    </set>
   </array>
  </eigenvalues>
  <separator name="orbital magnetization" >
   <v name="MAGDIPOLOUT">      0.00000000      0.00000000      0.00000000</v>
  </separator>
  <dos>
   <i name="efermi">      4.17301756 </i>
   <total>
    <array>
     <dimension dim="1">gridpoints</dimension>
     <dimension dim="2">spin</dimension>
     <field>energy</field>
     <field>total</field>
     <field>integrated</field>
     <set>
      <set comment="spin 1">
       <r>   -33.0265     0.0000     0.0000 </r>
       <r>   -32.8853     0.0000     0.0000 </r>
       <r>   -32.7441     0.0000     0.0000 </r>
       <r>   -32.6029     0.0000     0.0000 </r>
       <r>   -32.4618     0.0000     0.0000 </r>
       <r>   -32.3206     0.0000     0.0000 </r>
       <r>   -32.1794     0.0000     0.0000 </r>
       <r>   -32.0382     0.0000     0.0000 </r>
       <r>   -31.8971     0.0000     0.0000 </r>
       <r>   -31.7559     0.0000     0.0000 </r>
       <r>   -31.6147     0.0000     0.0000 </r>
       <r>   -31.4736     0.0000     0.0000 </r>
       <r>   -31.3324     0.0000     0.0000 </r>
       <r>   -31.1912     0.0000     0.0000 </r>
       <r>   -31.0500    56.6674     8.0000 </r>
       <r>   -30.9089     0.0000     8.0000 </r>
       <r>   -30.7677     0.0000    16.0000 </r>
       <r>   -30.6265     0.0000    16.0000 </r>
       <r>   -30.4853     0.0000    16.0000 </r>
       <r>   -30.3442     0.0000    16.0000 </r>
       <r>   -30.2030     0.0000    16.0000 </r>
       <r>   -30.0618     0.0000    16.0000 </r>
       <r>   -29.9206     0.0000    16.0000 </r>
       <r>   -29.7795     0.0000    16.0000 </r>
       <r>   -29.6383     0.0000    16.0000 </r>
       <r>   -29.4971     0.0000    16.0000 </r>
       <r>   -29.3559     0.0000    16.0000 </r>
       <r>   -29.2148     0.0000    16.0000 </r>
       <r>   -29.0736     0.0000    16.0000 </r>
       <r>   -28.9324     0.0000    16.0000 </r>
       <r>   -28.7912     0.0000    16.0000 </r>
       <r>   -28.6501     0.0000    16.0000 </r>
       <r>   -28.5089     0.0000    16.0000 </r>
       <r>   -28.3677     0.0000    16.0000 </r>
       <r>   -28.2265     0.0000    16.0000 </r>
       <r>   -28.0854     0.0000    16.0000 </r>
       <r>   -27.9442     0.0000    16.0000 </r>
       <r>   -27.8030     0.0000    16.0000 </r>
       <r>   -27.6618     0.0000    16.0000 </r>
       <r>   -27.5207     0.0000    16.0000 </r>
       <r>   -27.3795     0.0000    16.0000 </r>
       <r>   -27.2383     0.0000    16.0000 </r>
       <r>   -27.0971     0.0000    16.0000 </r>
       <r>   -26.9560     0.0000    16.0000 </r>
       <r>   -26.8148     0.0000    16.0000 </r>
       <r>   -26.6736     0.0000    16.0000 </r>
       <r>   -26.5324     0.0000    16.0000 </r>
       <r>   -26.3913     0.0000    16.0000 </r>
       <r>   -26.2501     0.0000    16.0000 </r>
       <r>   -26.1089     0.0000    16.0000 </r>
       <r>   -25.9677     0.0000    16.0000 </r>
       <r>   -25.8266     0.0000    16.0000 </r>
       <r>   -25.6854     0.0000    16.0000 </r>
       <r>   -25.5442     0.0000    16.0000 </r>
       <r>   -25.4030     0.0000    16.0000 </r>
       <r>   -25.2619     0.0000    16.0000 </r>
       <r>   -25.1207     0.0000    16.0000 </r>
       <r>   -24.9795     0.0000    16.0000 </r>
       <r>   -24.8383     0.0000    16.0000 </r>
       <r>   -24.6972     0.0000    16.0000 </r>
       <r>   -24.5560     0.0000    16.0000 </r>
       <r>   -24.4148     0.0000    16.0000 </r>
       <r>   -24.2737     0.0000    16.0000 </r>
       <r>   -24.1325     0.0000    16.0000 </r>
       <r>   -23.9913     0.0000    16.0000 </r>
       <r>   -23.8501     0.0000    16.0000 </r>
       <r>   -23.7090     0.0000    16.0000 </r>
       <r>   -23.5678     0.0000    16.0000 </r>
       <r>   -23.4266     0.0000    16.0000 </r>
       <r>   -23.2854     0.0000    16.0000 </r>
       <r>   -23.1443     0.0000    16.0000 </r>
       <r>   -23.0031     0.0000    16.0000 </r>
       <r>   -22.8619     0.0000    16.0000 </r>
       <r>   -22.7207     0.0000    16.0000 </r>
       <r>   -22.5796     0.0000    16.0000 </r>
       <r>   -22.4384     0.0000    16.0000 </r>
       <r>   -22.2972     0.0000    16.0000 </r>
       <r>   -22.1560     0.0000    16.0000 </r>
       <r>   -22.0149     0.0000    16.0000 </r>
       <r>   -21.8737     0.0000    16.0000 </r>
       <r>   -21.7325     0.0000    16.0000 </r>
       <r>   -21.5913     0.0000    16.0000 </r>
       <r>   -21.4502     0.0000    16.0000 </r>
       <r>   -21.3090     0.0000    16.0000 </r>
       <r>   -21.1678     0.0000    16.0000 </r>
       <r>   -21.0266     0.0000    16.0000 </r>
       <r>   -20.8855     0.0000    16.0000 </r>
       <r>   -20.7443     0.0000    16.0000 </r>
       <r>   -20.6031     0.0000    16.0000 </r>
       <r>   -20.4619     0.0000    16.0000 </r>
       <r>   -20.3208     0.0000    16.0000 </r>
       <r>   -20.1796     0.0000    16.0000 </r>
       <r>   -20.0384     0.0000    16.0000 </r>
       <r>   -19.8972     0.0000    16.0000 </r>
       <r>   -19.7561     0.0000    16.0000 </r>
       <r>   -19.6149     0.0000    16.0000 </r>
       <r>   -19.4737     0.0000    16.0000 </r>
       <r>   -19.3325     0.0000    16.0000 </r>
       <r>   -19.1914     0.0000    16.0000 </r>
       <r>   -19.0502     0.0000    16.0000 </r>
       <r>   -18.9090     0.0000    16.0000 </r>
       <r>   -18.7678     0.0000    16.0000 </r>
       <r>   -18.6267     0.0000    16.0000 </r>
       <r>   -18.4855     0.0000    16.0000 </r>
       <r>   -18.3443     0.0000    16.0000 </r>
       <r>   -18.2031     0.0000    16.0000 </r>
       <r>   -18.0620     0.0000    16.0000 </r>
       <r>   -17.9208     0.0000    16.0000 </r>
       <r>   -17.7796     0.0000    16.0000 </r>
       <r>   -17.6384     0.0000    16.0000 </r>
       <r>   -17.4973     0.0000    16.0000 </r>
       <r>   -17.3561     0.0000    16.0000 </r>
       <r>   -17.2149     0.0000    16.0000 </r>
       <r>   -17.0737     0.0000    16.0000 </r>
       <r>   -16.9326     0.0000    16.0000 </r>
       <r>   -16.7914     0.0000    16.0000 </r>
       <r>   -16.6502     0.0000    16.0000 </r>
       <r>   -16.5091     0.0000    16.0000 </r>
       <r>   -16.3679     0.0000    16.0000 </r>
       <r>   -16.2267     0.0000    16.0000 </r>
       <r>   -16.0855     0.0000    16.0000 </r>
       <r>   -15.9444     0.0000    16.0000 </r>
       <r>   -15.8032     0.0000    16.0000 </r>
       <r>   -15.6620     0.0000    16.0000 </r>
       <r>   -15.5208     0.0000    16.0000 </r>
       <r>   -15.3797     0.0000    16.0000 </r>
       <r>   -15.2385     0.0000    16.0000 </r>
       <r>   -15.0973     0.0000    16.0000 </r>
       <r>   -14.9561     0.0000    16.0000 </r>
       <r>   -14.8150     0.0000    16.0000 </r>
       <r>   -14.6738     0.0000    16.0000 </r>
       <r>   -14.5326     0.0000    16.0000 </r>
       <r>   -14.3914     0.0000    16.0000 </r>
       <r>   -14.2503     0.0000    16.0000 </r>
       <r>   -14.1091     0.0000    16.0000 </r>
       <r>   -13.9679     0.0000    16.0000 </r>
       <r>   -13.8267     0.0000    16.0000 </r>
       <r>   -13.6856     0.0000    16.0000 </r>
       <r>   -13.5444     0.0000    16.0000 </r>
       <r>   -13.4032     0.0000    16.0000 </r>
       <r>   -13.2620    27.9567    19.9468 </r>
       <r>   -13.1209    24.7920    40.0000 </r>
       <r>   -12.9797   136.0485    60.6066 </r>
       <r>   -12.8385     0.0000    64.0000 </r>
       <r>   -12.6973     0.0000    64.0000 </r>
       <r>   -12.5562     0.0000    64.0000 </r>
       <r>   -12.4150     0.0000    64.0000 </r>
       <r>   -12.2738     0.0000    64.0000 </r>
       <r>   -12.1326     0.0000    64.0000 </r>
       <r>   -11.9915     0.0000    64.0000 </r>
       <r>   -11.8503     0.0000    64.0000 </r>
       <r>   -11.7091     0.0000    64.0000 </r>
       <r>   -11.5679     0.0000    64.0000 </r>
       <r>   -11.4268     0.0000    64.0000 </r>
       <r>   -11.2856     0.0000    64.0000 </r>
       <r>   -11.1444     0.0000    64.0000 </r>
       <r>   -11.0032     0.0000    64.0000 </r>
       <r>   -10.8621     0.0000    64.0000 </r>
       <r>   -10.7209     0.0000    64.0000 </r>
       <r>   -10.5797     0.0000    64.0000 </r>
       <r>   -10.4385     0.0000    64.0000 </r>
       <r>   -10.2974     0.0000    64.0000 </r>
       <r>   -10.1562     0.0000    64.0000 </r>
       <r>   -10.0150     0.0000    64.0000 </r>
       <r>    -9.8738     0.0000    64.0000 </r>
       <r>    -9.7327     0.0000    64.0000 </r>
       <r>    -9.5915     0.0000    64.0000 </r>
       <r>    -9.4503     0.0000    64.0000 </r>
       <r>    -9.3092     0.0000    64.0000 </r>
       <r>    -9.1680     0.0000    64.0000 </r>
       <r>    -9.0268     0.0000    64.0000 </r>
       <r>    -8.8856     0.0000    64.0000 </r>
       <r>    -8.7445     0.0000    64.0000 </r>
       <r>    -8.6033     0.0000    64.0000 </r>
       <r>    -8.4621     0.0000    64.0000 </r>
       <r>    -8.3209     0.0000    64.0000 </r>
       <r>    -8.1798     0.0000    64.0000 </r>
       <r>    -8.0386     0.0000    64.0000 </r>
       <r>    -7.8974     0.0000    64.0000 </r>
       <r>    -7.7562     0.0000    64.0000 </r>
       <r>    -7.6151     0.0000    64.0000 </r>
       <r>    -7.4739     0.0000    64.0000 </r>
       <r>    -7.3327     0.0000    64.0000 </r>
       <r>    -7.1915     0.0000    64.0000 </r>
       <r>    -7.0504     0.0000    64.0000 </r>
       <r>    -6.9092     3.8179    64.8390 </r>
       <r>    -6.7680     9.9895    66.9303 </r>
       <r>    -6.6268    21.5336    72.0000 </r>
       <r>    -6.4857     0.0000    72.0000 </r>
       <r>    -6.3445     0.0000    72.0000 </r>
       <r>    -6.2033     0.0000    72.0000 </r>
       <r>    -6.0621     0.0000    72.0000 </r>
       <r>    -5.9210     0.0000    72.0000 </r>
       <r>    -5.7798     0.0000    72.0000 </r>
       <r>    -5.6386     0.0000    72.0000 </r>
       <r>    -5.4974     0.0000    72.0000 </r>
       <r>    -5.3563     0.0000    72.0000 </r>
       <r>    -5.2151     0.0000    72.0000 </r>
       <r>    -5.0739     0.0000    72.0000 </r>
       <r>    -4.9327     0.0000    72.0000 </r>
       <r>    -4.7916     0.0000    72.0000 </r>
       <r>    -4.6504     0.0000    72.0000 </r>
       <r>    -4.5092     0.0000    72.0000 </r>
       <r>    -4.3680     0.0000    72.0000 </r>
       <r>    -4.2269     0.0000    72.0000 </r>
       <r>    -4.0857     0.0000    72.0000 </r>
       <r>    -3.9445     0.0000    72.0000 </r>
       <r>    -3.8033     0.0000    72.0000 </r>
       <r>    -3.6622     0.0000    72.0000 </r>
       <r>    -3.5210     0.0000    72.0000 </r>
       <r>    -3.3798     0.0000    72.0000 </r>
       <r>    -3.2386     0.0000    72.0000 </r>
       <r>    -3.0975     0.0000    72.0000 </r>
       <r>    -2.9563     0.0000    72.0000 </r>
       <r>    -2.8151     0.0000    72.0000 </r>
       <r>    -2.6739     0.0000    72.0000 </r>
       <r>    -2.5328    12.5571    73.8927 </r>
       <r>    -2.3916     3.8350    75.3214 </r>
       <r>    -2.2504     4.0715    76.4548 </r>
       <r>    -2.1092     3.4628    77.4889 </r>
       <r>    -1.9681    17.6889    82.4172 </r>
       <r>    -1.8269    13.6037    86.3805 </r>
       <r>    -1.6857    28.6071    91.7186 </r>
       <r>    -1.5446     8.8612    94.3310 </r>
       <r>    -1.4034     4.6302    95.2937 </r>
       <r>    -1.2622     3.2584    96.0000 </r>
       <r>    -1.1210     0.0000    96.0000 </r>
       <r>    -0.9799     0.0000    96.0000 </r>
       <r>    -0.8387     0.0000    96.0000 </r>
       <r>    -0.6975     0.0000    96.0000 </r>
       <r>    -0.5563     0.0000    96.0000 </r>
       <r>    -0.4152     0.0000    96.0000 </r>
       <r>    -0.2740     0.0000    96.0000 </r>
       <r>    -0.1328     0.0000    96.0000 </r>
       <r>     0.0084     1.7410    96.2458 </r>
       <r>     0.1495     0.7165    96.4411 </r>
       <r>     0.2907     0.5901    96.6033 </r>
       <r>     0.4319     0.4548    96.7442 </r>
       <r>     0.5731     0.4423    96.8824 </r>
       <r>     0.7142     1.6361    97.1910 </r>
       <r>     0.8554     1.2815    97.5009 </r>
       <r>     0.9966     1.5977    97.8656 </r>
       <r>     1.1378    11.1751   100.1776 </r>
       <r>     1.2789     6.8919   102.2130 </r>
       <r>     1.4201     7.0703   103.6181 </r>
       <r>     1.5613     4.6546   104.6971 </r>
       <r>     1.7025     7.6399   106.8586 </r>
       <r>     1.8436     5.9638   108.5419 </r>
       <r>     1.9848    13.0656   110.9645 </r>
       <r>     2.1260     8.8342   113.4072 </r>
       <r>     2.2672    14.7879   116.3277 </r>
       <r>     2.4083    13.9056   119.4031 </r>
       <r>     2.5495    12.3556   122.2843 </r>
       <r>     2.6907    13.1316   125.8738 </r>
       <r>     2.8319    10.9249   128.3623 </r>
       <r>     2.9730    18.1077   132.7363 </r>
       <r>     3.1142     6.3553   134.6372 </r>
       <r>     3.2554     6.4956   135.7570 </r>
       <r>     3.3966    12.4649   138.5997 </r>
       <r>     3.5377     3.0172   139.7460 </r>
       <r>     3.6789     5.3621   140.9570 </r>
       <r>     3.8201     9.8598   142.7320 </r>
       <r>     3.9613     2.7085   143.6624 </r>
       <r>     4.1024     0.7317   143.9033 </r>
       <r>     4.2436     0.0000   144.0000 </r>
       <r>     4.3848     0.0000   144.0000 </r>
       <r>     4.5260     0.0000   144.0000 </r>
       <r>     4.6671     0.0000   144.0000 </r>
       <r>     4.8083     8.7964   145.4818 </r>
       <r>     4.9495     3.0193   146.5063 </r>
       <r>     5.0907     3.0395   147.8691 </r>
       <r>     5.2318     3.4282   148.6440 </r>
       <r>     5.3730     7.2508   150.1836 </r>
       <r>     5.5142    11.2501   152.7082 </r>
       <r>     5.6554     3.4259   154.1036 </r>
       <r>     5.7965     6.2431   155.4414 </r>
       <r>     5.9377     6.7232   157.1291 </r>
       <r>     6.0789     7.1705   158.7523 </r>
       <r>     6.2200     5.3702   160.1981 </r>
       <r>     6.3612    13.0997   162.7293 </r>
       <r>     6.5024    10.1994   165.1399 </r>
       <r>     6.6436    12.0549   167.4818 </r>
       <r>     6.7847     8.3381   169.6971 </r>
       <r>     6.9259     7.6894   171.7655 </r>
       <r>     7.0671     4.9610   173.7604 </r>
       <r>     7.2083     4.4122   174.9829 </r>
       <r>     7.3494     3.9111   175.8522 </r>
       <r>     7.4906     0.0000   176.0000 </r>
       <r>     7.6318     0.0000   176.0000 </r>
       <r>     7.7730     0.0000   176.0000 </r>
       <r>     7.9141     0.0000   176.0000 </r>
       <r>     8.0553     0.0000   176.0000 </r>
       <r>     8.1965     0.0000   176.0000 </r>
       <r>     8.3377     0.0000   176.0000 </r>
       <r>     8.4788     0.0000   176.0000 </r>
       <r>     8.6200     0.0000   176.0000 </r>
       <r>     8.7612     0.0000   176.0000 </r>
       <r>     8.9024     0.0000   176.0000 </r>
       <r>     9.0435     0.0000   176.0000 </r>
       <r>     9.1847     0.0000   176.0000 </r>
       <r>     9.3259     0.0000   176.0000 </r>
      </set>
     </set>
    </array>
   </total>
  </dos>
 </calculation>
 <structure name="finalpos" >
  <crystal>
   <varray name="basis" >
    <v>       8.56859331       0.00000000       0.00000000 </v>
    <v>       0.00000000       6.42172859       0.00000000 </v>
    <v>       0.00000000       0.00000000      11.01312565 </v>
   </varray>
   <i name="volume">    605.99922824 </i>
   <varray name="rec_basis" >
    <v>       0.11670527       0.00000000       0.00000000 </v>
    <v>       0.00000000       0.15572131       0.00000000 </v>
    <v>       0.00000000       0.00000000       0.09080074 </v>
   </varray>
  </crystal>
  <varray name="positions" >
   <v>       0.01511094       0.25000000       0.69228686 </v>
   <v>       0.98488906       0.75000002       0.30771314 </v>
   <v>       0.48488906       0.75000002       0.19228680 </v>
   <v>       0.51511094       0.25000000       0.80771318 </v>
   <v>       0.15812571       0.75000002       0.90672733 </v>
   <v>       0.84187429       0.25000000       0.09327265 </v>
   <v>       0.34187429       0.25000000       0.40672741 </v>
   <v>       0.65812571       0.75000002       0.59327263 </v>
   <v>       0.19214082       0.06220135       0.14925996 </v>
   <v>       0.80785918       0.93779864       0.85074002 </v>
   <v>       0.30785918       0.93779864       0.64925998 </v>
   <v>       0.69214082       0.06220135       0.35074002 </v>
   <v>       0.80785918       0.56220136       0.85074002 </v>
   <v>       0.19214082       0.43779864       0.14925996 </v>
   <v>       0.69214082       0.43779864       0.35074002 </v>
   <v>       0.30785918       0.56220136       0.64925998 </v>
   <v>       0.07366710       0.75000002       0.59124797 </v>
   <v>       0.92633288       0.25000000       0.40875203 </v>
   <v>       0.42633291       0.25000000       0.09124791 </v>
   <v>       0.57366712       0.75000002       0.90875207 </v>
   <v>       0.19574693       0.25000000       0.95971170 </v>
   <v>       0.80425306       0.75000002       0.04028831 </v>
   <v>       0.30425306       0.75000002       0.45971162 </v>
   <v>       0.69574694       0.25000000       0.54028830 </v>
  </varray>
 </structure>
</modeling>
