<?xml version="1.0" encoding="ISO-8859-1"?>
<modeling>
 <generator>
  <i name="program" type="string">vasp </i>
  <i name="version" type="string">5.4.4.18Apr17-6-g9f103f2a35  </i>
  <i name="subversion" type="string">(build Apr 25 2017 14:31:24) complex            parallel </i>
  <i name="platform" type="string">Abel-impi-ifc </i>
  <i name="date" type="string">2021 03 18 </i>
  <i name="time" type="string">16:11:57 </i>
 </generator>
 <incar>
  <i type="string" name="PREC">normal</i>
  <i type="int" name="ICHARG">    11</i>
  <i type="int" name="NELM">   100</i>
  <i name="EDIFF">      0.00000100</i>
  <i name="EDIFFG">     -0.01000000</i>
  <i name="ENCUT">    500.00000000</i>
  <i name="POTIM">      0.30000000</i>
  <i type="string" name="LREAL"> Auto       ! Projection in reciprocal s</i>
  <i type="int" name="ISMEAR">     0</i>
  <i name="SIGMA">      0.01000000</i>
  <i type="logical" name="LWAVE"> T  </i>
  <i type="logical" name="LCHARG"> T  </i>
  <i type="logical" name="LASPH"> T  </i>
  <v type="int" name="KPOINT_BSE">    -1     0     0     0</v>
  <i type="int" name="NELM">   100</i>
  <i type="string" name="GGA"> MK</i>
  <i name="PARAM1">      0.12340000</i>
  <i name="PARAM2">      0.71135700</i>
  <i type="logical" name="LUSE_VDW"> T  </i>
  <i name="Zab_VDW">     -1.88670000</i>
  <i name="AGGAC">      0.00000000</i>
  <i type="logical" name="LASPH"> T  </i>
 </incar>
 <structure name="primitive_cell" >
  <crystal>
   <varray name="basis" >
    <v>      99.65704433       0.00000000       0.00000000 </v>
    <v>       0.00000000       6.70500348       0.00000000 </v>
    <v>       0.00000000       0.00000000      11.47905600 </v>
   </varray>
   <i name="volume">   7670.31474209 </i>
   <varray name="rec_basis" >
    <v>       0.01003441       0.00000000       0.00000000 </v>
    <v>       0.00000000       0.14914235       0.00000000 </v>
    <v>       0.00000000       0.00000000       0.08711518 </v>
   </varray>
  </crystal>
  <varray name="positions" >
   <v>       0.00327536       0.25000000      -0.29879438 </v>
   <v>       0.01641096       0.25000000      -0.03742798 </v>
   <v>       0.02779893      -0.42842543      -0.35758566 </v>
   <v>       0.02779893      -0.07157457      -0.35758566 </v>
   <v>       0.00658989      -0.24999998      -0.38170693 </v>
   <v>       0.01910250      -0.24999998      -0.08785238 </v>
   <v>       0.03093646       0.25000000       0.39549419 </v>
   <v>       0.04644328       0.25000000      -0.19175221 </v>
   <v>       0.02321748      -0.24999998       0.46227159 </v>
   <v>       0.01624169       0.42839635       0.14508311 </v>
   <v>       0.01624169       0.07160364       0.14508311 </v>
   <v>       0.03678203       0.25000000       0.08252567 </v>
   <v>       0.06226428       0.25000000      -0.46479388 </v>
   <v>       0.05282187      -0.24999998      -0.09093750 </v>
   <v>       0.05938890      -0.24999998      -0.40477288 </v>
   <v>       0.06193209       0.43029956       0.35321955 </v>
   <v>       0.06193209       0.06970043       0.35321955 </v>
   <v>       0.07282025      -0.42997063      -0.14577959 </v>
   <v>       0.07282025      -0.07002937      -0.14577959 </v>
   <v>       0.04233362      -0.24999998       0.19286987 </v>
   <v>       0.07477905       0.25000000       0.09298583 </v>
   <v>       0.08201734       0.25000000       0.40806476 </v>
   <v>       0.07215754      -0.24999998       0.03672292 </v>
   <v>       0.09109855       0.25000000      -0.30925942 </v>
   <v>       0.09702315      -0.24999998      -0.40885602 </v>
   <v>       0.08813144      -0.24999998       0.30812392 </v>
   <v>       0.10704060       0.25000000      -0.03554675 </v>
   <v>       0.10417380      -0.24999998      -0.09386960 </v>
   <v>       0.10667357       0.42957961       0.14610098 </v>
   <v>       0.10667357       0.07042038       0.14610098 </v>
   <v>       0.11716937      -0.42967168      -0.35459114 </v>
   <v>       0.11716937      -0.07032832      -0.35459114 </v>
   <v>       0.11681698      -0.24999998       0.46373236 </v>
   <v>       0.11998230       0.25000000       0.40522508 </v>
   <v>       0.12684529       0.25000000       0.09161623 </v>
   <v>       0.13574350       0.25000000      -0.19138350 </v>
   <v>       0.14177728      -0.24999998      -0.09143365 </v>
   <v>       0.13290822      -0.24999998       0.19143476 </v>
   <v>       0.15190634       0.25000000      -0.46437015 </v>
   <v>       0.14877806      -0.24999998      -0.40612882 </v>
   <v>       0.15157575       0.42965635       0.35390059 </v>
   <v>       0.15157575       0.07034364       0.35390059 </v>
   <v>       0.16191322      -0.42968928      -0.14616245 </v>
   <v>       0.16191322      -0.07031072      -0.14616245 </v>
   <v>      -0.15571023       0.25000000       0.11829301 </v>
   <v>       0.16158261      -0.24999998       0.03553528 </v>
   <v>       0.16471437       0.25000000       0.09407511 </v>
   <v>      -0.15239562      -0.24999998       0.20120556 </v>
   <v>      -0.16536197      -0.42839635      -0.35491687 </v>
   <v>      -0.16536197      -0.07160365      -0.35491687 </v>
   <v>       0.17171944       0.25000000       0.40863166 </v>
   <v>      -0.16553129      -0.24999998       0.46257194 </v>
   <v>      -0.16822279       0.25000000       0.41214771 </v>
   <v>       0.18056086       0.25000000      -0.30840370 </v>
   <v>      -0.17233772       0.25000000      -0.03772833 </v>
   <v>       0.17770896      -0.24999998       0.30844764 </v>
   <v>       0.18655909      -0.24999998      -0.40850389 </v>
   <v>      -0.17691922       0.42842543       0.14241432 </v>
   <v>      -0.17691922       0.07157456       0.14241432 </v>
   <v>      -0.18005675      -0.24999998      -0.10450589 </v>
   <v>      -0.18590227      -0.24999998      -0.41747427 </v>
   <v>       0.19353823      -0.24999998      -0.09393993 </v>
   <v>      -0.19145394       0.25000000      -0.30713007 </v>
   <v>       0.19666202       0.25000000      -0.03550429 </v>
   <v>       0.19634684       0.42963309       0.14623966 </v>
   <v>       0.19634684       0.07036691       0.14623966 </v>
   <v>       0.20670294      -0.42963336      -0.35371746 </v>
   <v>       0.20670294      -0.07036664      -0.35371746 </v>
   <v>      -0.19556358      -0.24999998       0.30824775 </v>
   <v>       0.20637288      -0.24999998       0.46454836 </v>
   <v>      -0.20194217       0.25000000       0.40906246 </v>
   <v>       0.20949683       0.25000000       0.40605094 </v>
   <v>      -0.21105234      -0.43029956      -0.14678045 </v>
   <v>      -0.21105234      -0.06970044      -0.14678045 </v>
   <v>      -0.20850915       0.25000000       0.09522714 </v>
   <v>       0.21648728       0.25000000       0.09143584 </v>
   <v>      -0.21138458      -0.24999998       0.03520614 </v>
   <v>       0.22533747       0.25000000      -0.19146423 </v>
   <v>      -0.22127783       0.25000000      -0.46327710 </v>
   <v>       0.22248600      -0.24999998       0.19161703 </v>
   <v>      -0.22194051       0.42997063       0.35422041 </v>
   <v>      -0.22194051       0.07002936       0.35422041 </v>
   <v>      -0.22389930      -0.24999998      -0.40701419 </v>
   <v>       0.23131626      -0.24999998      -0.09149196 </v>
   <v>       0.23833508      -0.24999998      -0.40597880 </v>
   <v>      -0.23113761      -0.24999998      -0.09193520 </v>
   <v>       0.24144659       0.25000000      -0.46444929 </v>
   <v>      -0.23725172       0.25000000      -0.19187604 </v>
   <v>       0.24112542       0.42964227       0.35381256 </v>
   <v>       0.24112542       0.07035772       0.35381256 </v>
   <v>       0.25147228      -0.42965187      -0.14604041 </v>
   <v>       0.25147228      -0.07034813      -0.14604041 </v>
   <v>      -0.24021881      -0.24999998       0.19074052 </v>
   <v>       0.25111908      -0.24999998       0.03567286 </v>
   <v>      -0.24614341       0.25000000       0.09114392 </v>
   <v>       0.25430556       0.25000000       0.09407012 </v>
   <v>      -0.25329401       0.25000000       0.40613048 </v>
   <v>      -0.25579385      -0.42957961      -0.35389900 </v>
   <v>      -0.25579385      -0.07042039      -0.35389900 </v>
   <v>       0.26126904       0.25000000       0.40857209 </v>
   <v>      -0.25616085      -0.24999998       0.46445316 </v>
   <v>       0.27011554       0.25000000      -0.30846170 </v>
   <v>       0.26727809      -0.24999998       0.30830302 </v>
   <v>      -0.26593730       0.25000000      -0.03626756 </v>
   <v>      -0.26628966       0.42967168       0.14540884 </v>
   <v>      -0.26628966       0.07032831       0.14540884 </v>
   <v>       0.27610190      -0.24999998      -0.40872778 </v>
   <v>      -0.26910259      -0.24999998      -0.09477500 </v>
   <v>      -0.27596552      -0.24999998      -0.40838371 </v>
   <v>       0.28310364      -0.24999998      -0.09422888 </v>
   <v>       0.28628280       0.25000000      -0.03576574 </v>
   <v>      -0.28202846       0.25000000      -0.30856518 </v>
   <v>       0.28593612       0.42969525       0.14590796 </v>
   <v>       0.28593612       0.07030474       0.14590796 </v>
   <v>      -0.28486380      -0.24999998       0.30861646 </v>
   <v>       0.29625289      -0.42966761      -0.35407819 </v>
   <v>       0.29625289      -0.07033239      -0.35407819 </v>
   <v>       0.29591566      -0.24999998       0.46424407 </v>
   <v>      -0.29089758       0.25000000       0.40856631 </v>
   <v>       0.29906458       0.25000000       0.40586815 </v>
   <v>      -0.29789839       0.25000000       0.09387120 </v>
   <v>      -0.30069599      -0.42965635      -0.14609941 </v>
   <v>      -0.30069599      -0.07034365      -0.14609941 </v>
   <v>       0.30608978       0.25000000       0.09134879 </v>
   <v>      -0.30102662      -0.24999998       0.03562987 </v>
   <v>       0.31491001       0.25000000      -0.19167701 </v>
   <v>      -0.31070290       0.25000000      -0.46446474 </v>
   <v>       0.31207461      -0.24999998       0.19146134 </v>
   <v>      -0.31103347       0.42968928       0.35383755 </v>
   <v>      -0.31103347       0.07031071       0.35383755 </v>
   <v>      -0.31383462      -0.24999998      -0.40592491 </v>
   <v>       0.32092473      -0.24999998      -0.09144502 </v>
   <v>       0.32788300      -0.24999998      -0.40603399 </v>
   <v>      -0.32083971      -0.24999998      -0.09136830 </v>
   <v>       0.33103957       0.25000000      -0.46448182 </v>
   <v>       0.33069975       0.42960921       0.35378331 </v>
   <v>       0.33069975       0.07039078       0.35378331 </v>
   <v>      -0.32682925       0.25000000      -0.19155232 </v>
   <v>       0.34106299      -0.42964282      -0.14631592 </v>
   <v>       0.34106299      -0.07035718      -0.14631592 </v>
   <v>      -0.32968113      -0.24999998       0.19159623 </v>
   <v>       0.34074952      -0.24999998       0.03543739 </v>
   <v>      -0.33567934       0.25000000       0.09149605 </v>
   <v>       0.34385871       0.25000000       0.09398273 </v>
   <v>      -0.34265852       0.25000000       0.40606015 </v>
   <v>       0.35085119       0.25000000       0.40847461 </v>
   <v>      -0.34546713      -0.42963309      -0.35376032 </v>
   <v>      -0.34546713      -0.07036691      -0.35376032 </v>
   <v>      -0.34578235      -0.24999998       0.46449563 </v>
   <v>       0.35969236       0.25000000      -0.30855142 </v>
   <v>       0.35683441      -0.24999998       0.30843751 </v>
   <v>      -0.35549320       0.25000000      -0.03545156 </v>
   <v>      -0.35582323       0.42963336       0.14628252 </v>
   <v>      -0.35582323       0.07036664       0.14628252 </v>
   <v>       0.36567188      -0.24999998      -0.40861081 </v>
   <v>      -0.35861712      -0.24999998      -0.09394914 </v>
   <v>      -0.36560751      -0.24999998      -0.40856410 </v>
   <v>       0.37269594      -0.24999998      -0.09401190 </v>
   <v>       0.37581438       0.25000000      -0.03552144 </v>
   <v>      -0.37160627       0.25000000      -0.30838291 </v>
   <v>       0.37547523       0.42963271       0.14620957 </v>
   <v>       0.37547523       0.07036728       0.14620957 </v>
   <v>      -0.37445770      -0.24999998       0.30853573 </v>
   <v>       0.38581723      -0.42963737      -0.35392249 </v>
   <v>       0.38581723      -0.07036263      -0.35392249 </v>
   <v>       0.38549382      -0.24999998       0.46435449 </v>
   <v>      -0.38043653       0.25000000       0.40850799 </v>
   <v>       0.38864738       0.25000000       0.40592201 </v>
   <v>      -0.38745536       0.25000000       0.09402122 </v>
   <v>      -0.39024567      -0.42964227      -0.14618744 </v>
   <v>      -0.39024567      -0.07035773      -0.14618744 </v>
   <v>       0.39561920       0.25000000       0.09145240 </v>
   <v>      -0.39056684      -0.24999998       0.03555073 </v>
   <v>       0.40446816       0.25000000      -0.19160980 </v>
   <v>       0.40162491      -0.24999998       0.19145547 </v>
   <v>      -0.40023935       0.25000000      -0.46432715 </v>
   <v>      -0.40059253       0.42965187       0.35395959 </v>
   <v>      -0.40059253       0.07034812       0.35395959 </v>
   <v>      -0.40342581      -0.24999998      -0.40592990 </v>
   <v>       0.41047828      -0.24999998      -0.09155026 </v>
   <v>      -0.41038931      -0.24999998      -0.09142787 </v>
   <v>       0.41744614      -0.24999998      -0.40600695 </v>
   <v>       0.42059028       0.25000000      -0.46451362 </v>
   <v>       0.42025768       0.42967751       0.35380731 </v>
   <v>       0.42025768       0.07032248       0.35380731 </v>
   <v>      -0.41639833       0.25000000      -0.19169694 </v>
   <v>      -0.41923575      -0.24999998       0.19153823 </v>
   <v>       0.43062201      -0.42967751      -0.14619269 </v>
   <v>       0.43062201      -0.07032249      -0.14619269 </v>
   <v>       0.43028949      -0.24999998       0.03548640 </v>
   <v>      -0.42522215       0.25000000       0.09127216 </v>
   <v>       0.43343363       0.25000000       0.09399307 </v>
   <v>      -0.43222385       0.25000000       0.40577121 </v>
   <v>       0.44040149       0.25000000       0.40844970 </v>
   <v>      -0.43505635      -0.42969525      -0.35409202 </v>
   <v>      -0.43505635      -0.07030475      -0.35409202 </v>
   <v>      -0.43540305      -0.24999998       0.46423418 </v>
   <v>       0.44925482       0.25000000      -0.30854447 </v>
   <v>       0.44641161      -0.24999998       0.30839016 </v>
   <v>      -0.44503585       0.25000000      -0.03575585 </v>
   <v>      -0.44537312       0.42966761       0.14592179 </v>
   <v>      -0.44537312       0.07033238       0.14592179 </v>
   <v>      -0.44818483      -0.24999998      -0.09413193 </v>
   <v>       0.45526056      -0.24999998      -0.40854754 </v>
   <v>      -0.45520999      -0.24999998      -0.40865115 </v>
   <v>       0.46223231      -0.24999998      -0.09407807 </v>
   <v>       0.46538595       0.25000000      -0.03564543 </v>
   <v>      -0.46119482       0.25000000      -0.30853860 </v>
   <v>       0.46506254       0.42963737       0.14607749 </v>
   <v>       0.46506254       0.07036262       0.14607749 </v>
   <v>      -0.46403026      -0.24999998       0.30832294 </v>
   <v>       0.47540453      -0.42963271      -0.35379041 </v>
   <v>       0.47540453      -0.07036729      -0.35379041 </v>
   <v>       0.47506531      -0.24999998       0.46447848 </v>
   <v>      -0.47004496       0.25000000       0.40855494 </v>
   <v>       0.47818379       0.25000000       0.40598818 </v>
   <v>      -0.47700327       0.25000000       0.09396603 </v>
   <v>      -0.47981998      -0.42960921      -0.14621669 </v>
   <v>      -0.47981998      -0.07039079      -0.14621669 </v>
   <v>       0.48520782       0.25000000       0.09138913 </v>
   <v>      -0.48015984      -0.24999998       0.03551819 </v>
   <v>       0.49404532       0.25000000      -0.19156245 </v>
   <v>       0.49118737      -0.24999998       0.19144852 </v>
   <v>      -0.48986979       0.25000000      -0.46456262 </v>
   <v>      -0.49018326       0.42964282       0.35368408 </v>
   <v>      -0.49018326       0.07035717       0.35368408 </v>
   <v>      -0.49297895      -0.24999998      -0.40601729 </v>
   <v>      -0.49997146      -0.24999998      -0.09152534 </v>
  </varray>
 </structure>
 <varray name="primitive_index" >
  <v type="int" >        1 </v>
  <v type="int" >      191 </v>
  <v type="int" >      143 </v>
  <v type="int" >       96 </v>
  <v type="int" >      153 </v>
  <v type="int" >       39 </v>
  <v type="int" >       58 </v>
  <v type="int" >       30 </v>
  <v type="int" >      210 </v>
  <v type="int" >      124 </v>
  <v type="int" >       77 </v>
  <v type="int" >      172 </v>
  <v type="int" >      220 </v>
  <v type="int" >      182 </v>
  <v type="int" >       68 </v>
  <v type="int" >      134 </v>
  <v type="int" >      106 </v>
  <v type="int" >      115 </v>
  <v type="int" >       87 </v>
  <v type="int" >       20 </v>
  <v type="int" >       49 </v>
  <v type="int" >      163 </v>
  <v type="int" >      201 </v>
  <v type="int" >        2 </v>
  <v type="int" >      154 </v>
  <v type="int" >       11 </v>
  <v type="int" >      192 </v>
  <v type="int" >       40 </v>
  <v type="int" >      125 </v>
  <v type="int" >       78 </v>
  <v type="int" >      144 </v>
  <v type="int" >       97 </v>
  <v type="int" >      211 </v>
  <v type="int" >       59 </v>
  <v type="int" >      173 </v>
  <v type="int" >       31 </v>
  <v type="int" >      183 </v>
  <v type="int" >       21 </v>
  <v type="int" >      221 </v>
  <v type="int" >       69 </v>
  <v type="int" >      135 </v>
  <v type="int" >      107 </v>
  <v type="int" >      116 </v>
  <v type="int" >       88 </v>
  <v type="int" >      181 </v>
  <v type="int" >      202 </v>
  <v type="int" >       50 </v>
  <v type="int" >       29 </v>
  <v type="int" >      152 </v>
  <v type="int" >      105 </v>
  <v type="int" >      164 </v>
  <v type="int" >      219 </v>
  <v type="int" >       67 </v>
  <v type="int" >        3 </v>
  <v type="int" >      200 </v>
  <v type="int" >       12 </v>
  <v type="int" >      155 </v>
  <v type="int" >      133 </v>
  <v type="int" >       86 </v>
  <v type="int" >       48 </v>
  <v type="int" >      162 </v>
  <v type="int" >       41 </v>
  <v type="int" >       10 </v>
  <v type="int" >      193 </v>
  <v type="int" >      126 </v>
  <v type="int" >       79 </v>
  <v type="int" >      145 </v>
  <v type="int" >       98 </v>
  <v type="int" >       19 </v>
  <v type="int" >      212 </v>
  <v type="int" >      171 </v>
  <v type="int" >       60 </v>
  <v type="int" >      123 </v>
  <v type="int" >       95 </v>
  <v type="int" >       57 </v>
  <v type="int" >      174 </v>
  <v type="int" >      209 </v>
  <v type="int" >       32 </v>
  <v type="int" >      228 </v>
  <v type="int" >       22 </v>
  <v type="int" >      142 </v>
  <v type="int" >      114 </v>
  <v type="int" >       76 </v>
  <v type="int" >      184 </v>
  <v type="int" >       70 </v>
  <v type="int" >      190 </v>
  <v type="int" >      222 </v>
  <v type="int" >       38 </v>
  <v type="int" >      136 </v>
  <v type="int" >      108 </v>
  <v type="int" >      117 </v>
  <v type="int" >       89 </v>
  <v type="int" >       28 </v>
  <v type="int" >      203 </v>
  <v type="int" >      180 </v>
  <v type="int" >       51 </v>
  <v type="int" >       66 </v>
  <v type="int" >      151 </v>
  <v type="int" >      104 </v>
  <v type="int" >      165 </v>
  <v type="int" >      218 </v>
  <v type="int" >        4 </v>
  <v type="int" >       13 </v>
  <v type="int" >      199 </v>
  <v type="int" >      132 </v>
  <v type="int" >       85 </v>
  <v type="int" >      156 </v>
  <v type="int" >       47 </v>
  <v type="int" >      161 </v>
  <v type="int" >       42 </v>
  <v type="int" >      194 </v>
  <v type="int" >        9 </v>
  <v type="int" >      127 </v>
  <v type="int" >       80 </v>
  <v type="int" >       18 </v>
  <v type="int" >      146 </v>
  <v type="int" >       99 </v>
  <v type="int" >      213 </v>
  <v type="int" >      170 </v>
  <v type="int" >       61 </v>
  <v type="int" >       56 </v>
  <v type="int" >      122 </v>
  <v type="int" >       94 </v>
  <v type="int" >      175 </v>
  <v type="int" >      208 </v>
  <v type="int" >       33 </v>
  <v type="int" >      227 </v>
  <v type="int" >       23 </v>
  <v type="int" >      141 </v>
  <v type="int" >      113 </v>
  <v type="int" >       75 </v>
  <v type="int" >      185 </v>
  <v type="int" >       71 </v>
  <v type="int" >      189 </v>
  <v type="int" >      223 </v>
  <v type="int" >      137 </v>
  <v type="int" >      109 </v>
  <v type="int" >       37 </v>
  <v type="int" >      118 </v>
  <v type="int" >       90 </v>
  <v type="int" >       27 </v>
  <v type="int" >      204 </v>
  <v type="int" >      179 </v>
  <v type="int" >       52 </v>
  <v type="int" >       65 </v>
  <v type="int" >      166 </v>
  <v type="int" >      150 </v>
  <v type="int" >      103 </v>
  <v type="int" >      217 </v>
  <v type="int" >        5 </v>
  <v type="int" >       14 </v>
  <v type="int" >      198 </v>
  <v type="int" >      131 </v>
  <v type="int" >       84 </v>
  <v type="int" >      157 </v>
  <v type="int" >       46 </v>
  <v type="int" >      160 </v>
  <v type="int" >       43 </v>
  <v type="int" >      195 </v>
  <v type="int" >        8 </v>
  <v type="int" >      128 </v>
  <v type="int" >       81 </v>
  <v type="int" >       17 </v>
  <v type="int" >      147 </v>
  <v type="int" >      100 </v>
  <v type="int" >      214 </v>
  <v type="int" >      169 </v>
  <v type="int" >       62 </v>
  <v type="int" >       55 </v>
  <v type="int" >      121 </v>
  <v type="int" >       93 </v>
  <v type="int" >      176 </v>
  <v type="int" >      207 </v>
  <v type="int" >       34 </v>
  <v type="int" >       24 </v>
  <v type="int" >      226 </v>
  <v type="int" >      140 </v>
  <v type="int" >      112 </v>
  <v type="int" >       74 </v>
  <v type="int" >      186 </v>
  <v type="int" >      188 </v>
  <v type="int" >       72 </v>
  <v type="int" >      224 </v>
  <v type="int" >      138 </v>
  <v type="int" >      110 </v>
  <v type="int" >       36 </v>
  <v type="int" >       26 </v>
  <v type="int" >      119 </v>
  <v type="int" >       91 </v>
  <v type="int" >      205 </v>
  <v type="int" >      178 </v>
  <v type="int" >       53 </v>
  <v type="int" >       64 </v>
  <v type="int" >      167 </v>
  <v type="int" >      149 </v>
  <v type="int" >      102 </v>
  <v type="int" >      216 </v>
  <v type="int" >        6 </v>
  <v type="int" >       15 </v>
  <v type="int" >      197 </v>
  <v type="int" >      130 </v>
  <v type="int" >       83 </v>
  <v type="int" >       45 </v>
  <v type="int" >      158 </v>
  <v type="int" >      159 </v>
  <v type="int" >       44 </v>
  <v type="int" >      196 </v>
  <v type="int" >        7 </v>
  <v type="int" >      129 </v>
  <v type="int" >       82 </v>
  <v type="int" >       16 </v>
  <v type="int" >      148 </v>
  <v type="int" >      101 </v>
  <v type="int" >      215 </v>
  <v type="int" >      168 </v>
  <v type="int" >       63 </v>
  <v type="int" >       54 </v>
  <v type="int" >      120 </v>
  <v type="int" >       92 </v>
  <v type="int" >      177 </v>
  <v type="int" >      206 </v>
  <v type="int" >       35 </v>
  <v type="int" >       25 </v>
  <v type="int" >      225 </v>
  <v type="int" >      139 </v>
  <v type="int" >      111 </v>
  <v type="int" >       73 </v>
  <v type="int" >      187 </v>
 </varray>
 <kpoints>
  <generation param="listgenerated">
   <i name="divisions" type="int">      20 </i>
   <v>       0.00000000       0.00000000       0.00000000 </v>
   <v>       0.00000000       0.50000000       0.00000000 </v>
   <v>       0.00000000       0.50000000       0.50000000 </v>
   <v>       0.00000000       0.00000000       0.50000000 </v>
   <v>       0.00000000       0.00000000       0.00000000 </v>
  </generation>
  <varray name="kpointlist" >
   <v>       0.00000000       0.00000000       0.00000000 </v>
   <v>       0.00000000       0.02631579       0.00000000 </v>
   <v>       0.00000000       0.05263158       0.00000000 </v>
   <v>       0.00000000       0.07894737       0.00000000 </v>
   <v>       0.00000000       0.10526316       0.00000000 </v>
   <v>       0.00000000       0.13157895       0.00000000 </v>
   <v>       0.00000000       0.15789474       0.00000000 </v>
   <v>       0.00000000       0.18421053       0.00000000 </v>
   <v>       0.00000000       0.21052632       0.00000000 </v>
   <v>       0.00000000       0.23684211       0.00000000 </v>
   <v>       0.00000000       0.26315789       0.00000000 </v>
   <v>       0.00000000       0.28947368       0.00000000 </v>
   <v>       0.00000000       0.31578947       0.00000000 </v>
   <v>       0.00000000       0.34210526       0.00000000 </v>
   <v>       0.00000000       0.36842105       0.00000000 </v>
   <v>       0.00000000       0.39473684       0.00000000 </v>
   <v>       0.00000000       0.42105263       0.00000000 </v>
   <v>       0.00000000       0.44736842       0.00000000 </v>
   <v>       0.00000000       0.47368421       0.00000000 </v>
   <v>       0.00000000       0.50000000       0.00000000 </v>
   <v>       0.00000000       0.50000000       0.00000000 </v>
   <v>       0.00000000       0.50000000       0.02631579 </v>
   <v>       0.00000000       0.50000000       0.05263158 </v>
   <v>       0.00000000       0.50000000       0.07894737 </v>
   <v>       0.00000000       0.50000000       0.10526316 </v>
   <v>       0.00000000       0.50000000       0.13157895 </v>
   <v>       0.00000000       0.50000000       0.15789474 </v>
   <v>       0.00000000       0.50000000       0.18421053 </v>
   <v>       0.00000000       0.50000000       0.21052632 </v>
   <v>       0.00000000       0.50000000       0.23684211 </v>
   <v>       0.00000000       0.50000000       0.26315789 </v>
   <v>       0.00000000       0.50000000       0.28947368 </v>
   <v>       0.00000000       0.50000000       0.31578947 </v>
   <v>       0.00000000       0.50000000       0.34210526 </v>
   <v>       0.00000000       0.50000000       0.36842105 </v>
   <v>       0.00000000       0.50000000       0.39473684 </v>
   <v>       0.00000000       0.50000000       0.42105263 </v>
   <v>       0.00000000       0.50000000       0.44736842 </v>
   <v>       0.00000000       0.50000000       0.47368421 </v>
   <v>       0.00000000       0.50000000       0.50000000 </v>
   <v>       0.00000000       0.50000000       0.50000000 </v>
   <v>       0.00000000       0.47368421       0.50000000 </v>
   <v>       0.00000000       0.44736842       0.50000000 </v>
   <v>       0.00000000       0.42105263       0.50000000 </v>
   <v>       0.00000000       0.39473684       0.50000000 </v>
   <v>       0.00000000       0.36842105       0.50000000 </v>
   <v>       0.00000000       0.34210526       0.50000000 </v>
   <v>       0.00000000       0.31578947       0.50000000 </v>
   <v>       0.00000000       0.28947368       0.50000000 </v>
   <v>       0.00000000       0.26315789       0.50000000 </v>
   <v>       0.00000000       0.23684211       0.50000000 </v>
   <v>       0.00000000       0.21052632       0.50000000 </v>
   <v>       0.00000000       0.18421053       0.50000000 </v>
   <v>       0.00000000       0.15789474       0.50000000 </v>
   <v>       0.00000000       0.13157895       0.50000000 </v>
   <v>       0.00000000       0.10526316       0.50000000 </v>
   <v>       0.00000000       0.07894737       0.50000000 </v>
   <v>       0.00000000       0.05263158       0.50000000 </v>
   <v>       0.00000000       0.02631579       0.50000000 </v>
   <v>       0.00000000       0.00000000       0.50000000 </v>
   <v>       0.00000000       0.00000000       0.50000000 </v>
   <v>       0.00000000       0.00000000       0.47368421 </v>
   <v>       0.00000000       0.00000000       0.44736842 </v>
   <v>       0.00000000       0.00000000       0.42105263 </v>
   <v>       0.00000000       0.00000000       0.39473684 </v>
   <v>       0.00000000       0.00000000       0.36842105 </v>
   <v>       0.00000000       0.00000000       0.34210526 </v>
   <v>       0.00000000       0.00000000       0.31578947 </v>
   <v>       0.00000000       0.00000000       0.28947368 </v>
   <v>       0.00000000       0.00000000       0.26315789 </v>
   <v>       0.00000000       0.00000000       0.23684211 </v>
   <v>       0.00000000       0.00000000       0.21052632 </v>
   <v>       0.00000000       0.00000000       0.18421053 </v>
   <v>       0.00000000       0.00000000       0.15789474 </v>
   <v>       0.00000000       0.00000000       0.13157895 </v>
   <v>       0.00000000       0.00000000       0.10526316 </v>
   <v>       0.00000000       0.00000000       0.07894737 </v>
   <v>       0.00000000       0.00000000       0.05263158 </v>
   <v>       0.00000000       0.00000000       0.02631579 </v>
   <v>       0.00000000       0.00000000       0.00000000 </v>
  </varray>
  <varray name="weights" >
   <v>       0.01250000 </v>
   <v>       0.01250000 </v>
   <v>       0.01250000 </v>
   <v>       0.01250000 </v>
   <v>       0.01250000 </v>
   <v>       0.01250000 </v>
   <v>       0.01250000 </v>
   <v>       0.01250000 </v>
   <v>       0.01250000 </v>
   <v>       0.01250000 </v>
   <v>       0.01250000 </v>
   <v>       0.01250000 </v>
   <v>       0.01250000 </v>
   <v>       0.01250000 </v>
   <v>       0.01250000 </v>
   <v>       0.01250000 </v>
   <v>       0.01250000 </v>
   <v>       0.01250000 </v>
   <v>       0.01250000 </v>
   <v>       0.01250000 </v>
   <v>       0.01250000 </v>
   <v>       0.01250000 </v>
   <v>       0.01250000 </v>
   <v>       0.01250000 </v>
   <v>       0.01250000 </v>
   <v>       0.01250000 </v>
   <v>       0.01250000 </v>
   <v>       0.01250000 </v>
   <v>       0.01250000 </v>
   <v>       0.01250000 </v>
   <v>       0.01250000 </v>
   <v>       0.01250000 </v>
   <v>       0.01250000 </v>
   <v>       0.01250000 </v>
   <v>       0.01250000 </v>
   <v>       0.01250000 </v>
   <v>       0.01250000 </v>
   <v>       0.01250000 </v>
   <v>       0.01250000 </v>
   <v>       0.01250000 </v>
   <v>       0.01250000 </v>
   <v>       0.01250000 </v>
   <v>       0.01250000 </v>
   <v>       0.01250000 </v>
   <v>       0.01250000 </v>
   <v>       0.01250000 </v>
   <v>       0.01250000 </v>
   <v>       0.01250000 </v>
   <v>       0.01250000 </v>
   <v>       0.01250000 </v>
   <v>       0.01250000 </v>
   <v>       0.01250000 </v>
   <v>       0.01250000 </v>
   <v>       0.01250000 </v>
   <v>       0.01250000 </v>
   <v>       0.01250000 </v>
   <v>       0.01250000 </v>
   <v>       0.01250000 </v>
   <v>       0.01250000 </v>
   <v>       0.01250000 </v>
   <v>       0.01250000 </v>
   <v>       0.01250000 </v>
   <v>       0.01250000 </v>
   <v>       0.01250000 </v>
   <v>       0.01250000 </v>
   <v>       0.01250000 </v>
   <v>       0.01250000 </v>
   <v>       0.01250000 </v>
   <v>       0.01250000 </v>
   <v>       0.01250000 </v>
   <v>       0.01250000 </v>
   <v>       0.01250000 </v>
   <v>       0.01250000 </v>
   <v>       0.01250000 </v>
   <v>       0.01250000 </v>
   <v>       0.01250000 </v>
   <v>       0.01250000 </v>
   <v>       0.01250000 </v>
   <v>       0.01250000 </v>
   <v>       0.01250000 </v>
  </varray>
 </kpoints>
 <parameters>
  <separator name="general" >
   <i type="string" name="SYSTEM">unknown system</i>
   <i type="logical" name="LCOMPAT"> F  </i>
  </separator>
  <separator name="electronic" >
   <i type="string" name="PREC">normal</i>
   <i name="ENMAX">    500.00000000</i>
   <i name="ENAUG">    351.16500000</i>
   <i name="EDIFF">      0.00000100</i>
   <i type="int" name="IALGO">    38</i>
   <i type="int" name="IWAVPR">    10</i>
   <i type="int" name="NBANDS">   824</i>
   <i name="NELECT">   1368.00000000</i>
   <i type="int" name="TURBO">     0</i>
   <i type="int" name="IRESTART">     0</i>
   <i type="int" name="NREBOOT">     0</i>
   <i type="int" name="NMIN">     0</i>
   <i name="EREF">      0.00000000</i>
   <separator name="electronic smearing" >
    <i type="int" name="ISMEAR">     0</i>
    <i name="SIGMA">      0.01000000</i>
    <i name="KSPACING">      0.50000000</i>
    <i type="logical" name="KGAMMA"> T  </i>
   </separator>
   <separator name="electronic projectors" >
    <i type="logical" name="LREAL"> T  </i>
    <v name="ROPT">     -0.00050000     -0.00050000</v>
    <i type="int" name="LMAXPAW">  -100</i>
    <i type="int" name="LMAXMIX">     2</i>
    <i type="logical" name="NLSPLINE"> F  </i>
   </separator>
   <separator name="electronic startup" >
    <i type="int" name="ISTART">     0</i>
    <i type="int" name="ICHARG">    11</i>
    <i type="int" name="INIWAV">     1</i>
   </separator>
   <separator name="electronic spin" >
    <i type="int" name="ISPIN">     1</i>
    <i type="logical" name="LNONCOLLINEAR"> F  </i>
    <v name="MAGMOM">      1.00000000      1.00000000      1.00000000      1.00000000      1.00000000      1.00000000      1.00000000      1.00000000      1.00000000      1.00000000      1.00000000      1.00000000      1.00000000      1.00000000      1.00000000      1.00000000      1.00000000      1.00000000      1.00000000      1.00000000
      1.00000000      1.00000000      1.00000000      1.00000000      1.00000000      1.00000000      1.00000000      1.00000000      1.00000000      1.00000000      1.00000000      1.00000000      1.00000000      1.00000000      1.00000000      1.00000000      1.00000000      1.00000000      1.00000000      1.00000000
      1.00000000      1.00000000      1.00000000      1.00000000      1.00000000      1.00000000      1.00000000      1.00000000      1.00000000      1.00000000      1.00000000      1.00000000      1.00000000      1.00000000      1.00000000      1.00000000      1.00000000      1.00000000      1.00000000      1.00000000
      1.00000000      1.00000000      1.00000000      1.00000000      1.00000000      1.00000000      1.00000000      1.00000000      1.00000000      1.00000000      1.00000000      1.00000000      1.00000000      1.00000000      1.00000000      1.00000000      1.00000000      1.00000000      1.00000000      1.00000000
      1.00000000      1.00000000      1.00000000      1.00000000      1.00000000      1.00000000      1.00000000      1.00000000      1.00000000      1.00000000      1.00000000      1.00000000      1.00000000      1.00000000      1.00000000      1.00000000      1.00000000      1.00000000      1.00000000      1.00000000
      1.00000000      1.00000000      1.00000000      1.00000000      1.00000000      1.00000000      1.00000000      1.00000000      1.00000000      1.00000000      1.00000000      1.00000000      1.00000000      1.00000000      1.00000000      1.00000000      1.00000000      1.00000000      1.00000000      1.00000000
      1.00000000      1.00000000      1.00000000      1.00000000      1.00000000      1.00000000      1.00000000      1.00000000      1.00000000      1.00000000      1.00000000      1.00000000      1.00000000      1.00000000      1.00000000      1.00000000      1.00000000      1.00000000      1.00000000      1.00000000
      1.00000000      1.00000000      1.00000000      1.00000000      1.00000000      1.00000000      1.00000000      1.00000000      1.00000000      1.00000000      1.00000000      1.00000000      1.00000000      1.00000000      1.00000000      1.00000000      1.00000000      1.00000000      1.00000000      1.00000000
      1.00000000      1.00000000      1.00000000      1.00000000      1.00000000      1.00000000      1.00000000      1.00000000      1.00000000      1.00000000      1.00000000      1.00000000      1.00000000      1.00000000      1.00000000      1.00000000      1.00000000      1.00000000      1.00000000      1.00000000
      1.00000000      1.00000000      1.00000000      1.00000000      1.00000000      1.00000000      1.00000000      1.00000000      1.00000000      1.00000000      1.00000000      1.00000000      1.00000000      1.00000000      1.00000000      1.00000000      1.00000000      1.00000000      1.00000000      1.00000000
      1.00000000      1.00000000      1.00000000      1.00000000      1.00000000      1.00000000      1.00000000      1.00000000      1.00000000      1.00000000      1.00000000      1.00000000      1.00000000      1.00000000      1.00000000      1.00000000      1.00000000      1.00000000      1.00000000      1.00000000
      1.00000000      1.00000000      1.00000000      1.00000000      1.00000000      1.00000000      1.00000000      1.00000000</v>
    <i name="NUPDOWN">     -1.00000000</i>
    <i type="logical" name="LSORBIT"> F  </i>
    <v name="SAXIS">      0.00000000      0.00000000      1.00000000</v>
    <i type="logical" name="LSPIRAL"> F  </i>
    <v name="QSPIRAL">      0.00000000      0.00000000      0.00000000</v>
    <i type="logical" name="LZEROZ"> F  </i>
   </separator>
   <separator name="electronic exchange-correlation" >
    <i type="logical" name="LASPH"> T  </i>
    <i type="logical" name="LMETAGGA"> F  </i>
   </separator>
   <separator name="electronic convergence" >
    <i type="int" name="NELM">   100</i>
    <i type="int" name="NELMDL">    -5</i>
    <i type="int" name="NELMIN">     2</i>
    <i name="ENINI">    500.00000000</i>
    <separator name="electronic convergence detail" >
     <i type="logical" name="LDIAG"> T  </i>
     <i type="logical" name="LSUBROT"> F  </i>
     <i name="WEIMIN">      0.00000000</i>
     <i name="EBREAK">      0.00000000</i>
     <i name="DEPER">      0.30000000</i>
     <i type="int" name="NRMM">     4</i>
     <i name="TIME">      0.40000000</i>
    </separator>
   </separator>
   <separator name="electronic mixer" >
    <i name="AMIX">      0.40000000</i>
    <i name="BMIX">      1.00000000</i>
    <i name="AMIN">      0.10000000</i>
    <i name="AMIX_MAG">      1.60000000</i>
    <i name="BMIX_MAG">      1.00000000</i>
    <separator name="electronic mixer details" >
     <i type="int" name="IMIX">     4</i>
     <i type="logical" name="MIXFIRST"> F  </i>
     <i type="int" name="MAXMIX">   -45</i>
     <i name="WC">    100.00000000</i>
     <i type="int" name="INIMIX">     1</i>
     <i type="int" name="MIXPRE">     1</i>
     <i type="int" name="MREMOVE">     5</i>
    </separator>
   </separator>
   <separator name="electronic dipolcorrection" >
    <i type="logical" name="LDIPOL"> F  </i>
    <i type="logical" name="LMONO"> F  </i>
    <i type="int" name="IDIPOL">     0</i>
    <i name="EPSILON">      1.00000000</i>
    <v name="DIPOL">   -100.00000000   -100.00000000   -100.00000000</v>
    <i name="EFIELD">      0.00000000</i>
   </separator>
  </separator>
  <separator name="grids" >
   <i type="int" name="NGX">   560</i>
   <i type="int" name="NGY">    40</i>
   <i type="int" name="NGZ">    64</i>
   <i type="int" name="NGXF">  1120</i>
   <i type="int" name="NGYF">    80</i>
   <i type="int" name="NGZF">   128</i>
   <i type="logical" name="ADDGRID"> F  </i>
  </separator>
  <separator name="ionic" >
   <i type="int" name="NSW">     0</i>
   <i type="int" name="IBRION">    -1</i>
   <i type="int" name="MDALGO">     0</i>
   <i type="int" name="ISIF">     2</i>
   <i name="PSTRESS">      0.00000000</i>
   <i name="EDIFFG">     -0.01000000</i>
   <i type="int" name="NFREE">     0</i>
   <i name="POTIM">      0.30000000</i>
   <i name="SMASS">     -3.00000000</i>
   <i name="SCALEE">      1.00000000</i>
  </separator>
  <separator name="ionic md" >
   <i name="TEBEG">      0.00010000</i>
   <i name="TEEND">      0.00010000</i>
   <i type="int" name="NBLOCK">     1</i>
   <i type="int" name="KBLOCK">     1</i>
   <i type="int" name="NPACO">   256</i>
   <i name="APACO">     16.00000000</i>
  </separator>
  <separator name="symmetry" >
   <i type="int" name="ISYM">     2</i>
   <i name="SYMPREC">      0.00001000</i>
  </separator>
  <separator name="dos" >
   <i type="int" name="LORBIT">     0</i>
   <v name="RWIGS">     -1.00000000     -1.00000000</v>
   <i type="int" name="NEDOS">   301</i>
   <i name="EMIN">     10.00000000</i>
   <i name="EMAX">    -10.00000000</i>
   <i name="EFERMI">      0.00000000</i>
  </separator>
  <separator name="writing" >
   <i type="int" name="NWRITE">     2</i>
   <i type="logical" name="LWAVE"> T  </i>
   <i type="logical" name="LDOWNSAMPLE"> F  </i>
   <i type="logical" name="LCHARG"> T  </i>
   <i type="logical" name="LPARD"> F  </i>
   <i type="logical" name="LVTOT"> F  </i>
   <i type="logical" name="LVHAR"> F  </i>
   <i type="logical" name="LELF"> F  </i>
   <i type="logical" name="LOPTICS"> F  </i>
   <v name="STM">      0.00000000      0.00000000      0.00000000      0.00000000      0.00000000      0.00000000      0.00000000</v>
  </separator>
  <separator name="performance" >
   <i type="int" name="NPAR">     8</i>
   <i type="int" name="NSIM">     4</i>
   <i type="int" name="NBLK">    -1</i>
   <i type="logical" name="LPLANE"> T  </i>
   <i type="logical" name="LSCALAPACK"> T  </i>
   <i type="logical" name="LSCAAWARE"> F  </i>
   <i type="logical" name="LSCALU"> F  </i>
   <i type="logical" name="LASYNC"> F  </i>
   <i type="logical" name="LORBITALREAL"> F  </i>
  </separator>
  <separator name="miscellaneous" >
   <i type="int" name="IDIOT">     3</i>
   <i type="int" name="ISPECIAL">     0</i>
   <i type="logical" name="LMUSIC"> F  </i>
   <v name="POMASS">    137.32700000     28.08500000</v>
   <v name="DARWINR">      0.00000000      0.00000000</v>
   <v name="DARWINV">      1.00000000      1.00000000</v>
   <i type="logical" name="LCORR"> T  </i>
  </separator>
  <i type="logical" name="GGA_COMPAT"> T  </i>
  <i type="logical" name="LBERRY"> F  </i>
  <i type="int" name="ICORELEVEL">     0</i>
  <i type="logical" name="LDAU"> F  </i>
  <i type="int" name="I_CONSTRAINED_M">     0</i>
  <separator name="electronic exchange-correlation" >
   <i type="string" name="GGA">MK</i>
   <i type="int" name="VOSKOWN">     0</i>
   <i type="logical" name="LHFCALC"> F  </i>
   <i type="string" name="PRECFOCK"></i>
   <i type="logical" name="LSYMGRAD"> F  </i>
   <i type="logical" name="LHFONE"> F  </i>
   <i type="logical" name="LRHFCALC"> F  </i>
   <i type="logical" name="LTHOMAS"> F  </i>
   <i type="logical" name="LMODELHF"> F  </i>
   <i name="ENCUT4O">     -1.00000000</i>
   <i type="int" name="EXXOEP">     0</i>
   <i type="int" name="FOURORBIT">     0</i>
   <i name="AEXX">      0.00000000</i>
   <i name="HFALPHA">      0.00000000</i>
   <i name="MCALPHA">      0.00000000</i>
   <i name="ALDAX">      1.00000000</i>
   <i name="AGGAX">      1.00000000</i>
   <i name="ALDAC">      1.00000000</i>
   <i name="AGGAC">      0.00000000</i>
   <i type="int" name="NKREDX">     1</i>
   <i type="int" name="NKREDY">     1</i>
   <i type="int" name="NKREDZ">     1</i>
   <i type="logical" name="SHIFTRED"> F  </i>
   <i type="logical" name="ODDONLY"> F  </i>
   <i type="logical" name="EVENONLY"> F  </i>
   <i type="int" name="LMAXFOCK">     0</i>
   <i type="int" name="NMAXFOCKAE">     0</i>
   <i type="logical" name="LFOCKAEDFT"> F  </i>
   <i name="HFSCREEN">      0.00000000</i>
   <i name="HFSCREENC">      0.00000000</i>
   <i type="int" name="NBANDSGWLOW">     0</i>
  </separator>
  <separator name="vdW DFT" >
   <i type="logical" name="LUSE_VDW"> T  </i>
   <i name="Zab_VDW">     -1.88670000</i>
   <i name="PARAM1">      0.12340000</i>
   <i name="PARAM2">      0.71135700</i>
   <i name="PARAM3">      0.00000000</i>
  </separator>
  <separator name="model GW" >
   <i type="int" name="MODEL_GW">     0</i>
   <i name="MODEL_EPS0">     20.18503879</i>
   <i name="MODEL_ALPHA">      1.00000000</i>
  </separator>
  <separator name="linear response parameters" >
   <i type="logical" name="LEPSILON"> F  </i>
   <i type="logical" name="LRPA"> F  </i>
   <i type="logical" name="LNABLA"> F  </i>
   <i type="logical" name="LVEL"> F  </i>
   <i type="int" name="KINTER">     0</i>
   <i name="CSHIFT">      0.10000000</i>
   <i name="OMEGAMAX">     -1.00000000</i>
   <i name="DEG_THRESHOLD">      0.00200000</i>
   <i name="RTIME">     -0.10000000</i>
   <i name="WPLASMAI">      0.00000000</i>
   <v name="DFIELD">      0.00000000      0.00000000      0.00000000</v>
   <v name="WPLASMA">      0.00000000      0.00000000      0.00000000      0.00000000      0.00000000      0.00000000      0.00000000      0.00000000      0.00000000</v>
  </separator>
  <separator name="orbital magnetization" >
   <i type="logical" name="NUCIND"> F  </i>
   <v name="MAGPOS">      0.00000000      0.00000000      0.00000000</v>
   <i type="logical" name="LNICSALL"> T  </i>
   <i type="logical" name="ORBITALMAG"> F  </i>
   <i type="logical" name="LMAGBLOCH"> F  </i>
   <i type="logical" name="LCHIMAG"> F  </i>
   <i type="logical" name="LGAUGE"> T  </i>
   <i type="int" name="MAGATOM">     0</i>
   <v name="MAGDIPOL">      0.00000000      0.00000000      0.00000000</v>
   <v name="AVECCONST">      0.00000000      0.00000000      0.00000000</v>
  </separator>
  <separator name="response functions" >
   <i type="logical" name="LADDER"> F  </i>
   <i type="logical" name="LRPAFORCE"> F  </i>
   <i type="logical" name="LFXC"> F  </i>
   <i type="logical" name="LHARTREE"> T  </i>
   <i type="int" name="IBSE">     0</i>
   <v type="int" name="KPOINT">    -1     0     0     0</v>
   <i type="logical" name="LTCTE"> F  </i>
   <i type="logical" name="LTETE"> F  </i>
   <i type="logical" name="LTRIPLET"> F  </i>
   <i type="logical" name="LFXCEPS"> F  </i>
   <i type="logical" name="LFXHEG"> F  </i>
   <i type="int" name="NATURALO">     2</i>
   <i type="logical" name="L2ORDER"> F  </i>
   <i type="logical" name="LMP2LT"> F  </i>
   <i type="logical" name="LUSEW"> F  </i>
   <i name="ENCUTGW">     -2.00000000</i>
   <i name="ENCUTGWSOFT">     -2.00000000</i>
   <i name="ENCUTLF">     -1.00000000</i>
   <i type="int" name="LMAXMP2">    -1</i>
   <i name="SCISSOR">      0.00000000</i>
   <i type="int" name="NOMEGA">     0</i>
   <i type="int" name="NOMEGAR">     0</i>
   <i type="int" name="NBANDSGW">    -1</i>
   <i type="int" name="NBANDSO">    -1</i>
   <i type="int" name="NBANDSV">    -1</i>
   <i type="int" name="NELM">   100</i>
   <i type="int" name="NELMHF">     1</i>
   <i type="int" name="DIM">     3</i>
   <i type="int" name="ANTIRES">     0</i>
   <i name="OMEGAMAX">    -30.00000000</i>
   <i name="OMEGAMIN">    -30.00000000</i>
   <i name="OMEGATL">   -200.00000000</i>
   <i type="int" name="OMEGAGRID">   140</i>
   <i name="CSHIFT">     -0.10000000</i>
   <i type="logical" name="SELFENERGY"> F  </i>
   <i type="logical" name="LSPECTRAL"> F  </i>
   <i type="logical" name="LSPECTRALGW"> F  </i>
   <i type="logical" name="LSINGLES"> F  </i>
   <i type="logical" name="LFERMIGW"> F  </i>
   <i type="logical" name="ODDONLYGW"> F  </i>
   <i type="logical" name="EVENONLYGW"> F  </i>
   <i type="int" name="NKREDLFX">     1</i>
   <i type="int" name="NKREDLFY">     1</i>
   <i type="int" name="NKREDLFZ">     1</i>
   <i type="int" name="MAXMEM">  2800</i>
   <i type="int" name="TELESCOPE">     0</i>
   <i type="int" name="TAUPAR">     1</i>
   <i type="int" name="OMEGAPAR">    -1</i>
   <i name="LAMBDA">      1.00000000</i>
  </separator>
  <separator name="External order field" >
   <i name="OFIELD_KAPPA">      0.00000000</i>
   <v name="OFIELD_K">      0.00000000      0.00000000      0.00000000</v>
   <i name="OFIELD_Q6_NEAR">      0.00000000</i>
   <i name="OFIELD_Q6_FAR">      0.00000000</i>
   <i name="OFIELD_A">      0.00000000</i>
  </separator>
 </parameters>
 <atominfo>
  <atoms>     228 </atoms>
  <types>       2 </types>
  <array name="atoms" >
   <dimension dim="1">ion</dimension>
   <field type="string">element</field>
   <field type="int">atomtype</field>
   <set>
    <rc><c>Ba</c><c>   1</c></rc>
    <rc><c>Ba</c><c>   1</c></rc>
    <rc><c>Ba</c><c>   1</c></rc>
    <rc><c>Ba</c><c>   1</c></rc>
    <rc><c>Ba</c><c>   1</c></rc>
    <rc><c>Ba</c><c>   1</c></rc>
    <rc><c>Ba</c><c>   1</c></rc>
    <rc><c>Ba</c><c>   1</c></rc>
    <rc><c>Ba</c><c>   1</c></rc>
    <rc><c>Ba</c><c>   1</c></rc>
    <rc><c>Ba</c><c>   1</c></rc>
    <rc><c>Ba</c><c>   1</c></rc>
    <rc><c>Ba</c><c>   1</c></rc>
    <rc><c>Ba</c><c>   1</c></rc>
    <rc><c>Ba</c><c>   1</c></rc>
    <rc><c>Ba</c><c>   1</c></rc>
    <rc><c>Ba</c><c>   1</c></rc>
    <rc><c>Ba</c><c>   1</c></rc>
    <rc><c>Ba</c><c>   1</c></rc>
    <rc><c>Ba</c><c>   1</c></rc>
    <rc><c>Ba</c><c>   1</c></rc>
    <rc><c>Ba</c><c>   1</c></rc>
    <rc><c>Ba</c><c>   1</c></rc>
    <rc><c>Ba</c><c>   1</c></rc>
    <rc><c>Ba</c><c>   1</c></rc>
    <rc><c>Ba</c><c>   1</c></rc>
    <rc><c>Ba</c><c>   1</c></rc>
    <rc><c>Ba</c><c>   1</c></rc>
    <rc><c>Ba</c><c>   1</c></rc>
    <rc><c>Ba</c><c>   1</c></rc>
    <rc><c>Ba</c><c>   1</c></rc>
    <rc><c>Ba</c><c>   1</c></rc>
    <rc><c>Ba</c><c>   1</c></rc>
    <rc><c>Ba</c><c>   1</c></rc>
    <rc><c>Ba</c><c>   1</c></rc>
    <rc><c>Ba</c><c>   1</c></rc>
    <rc><c>Ba</c><c>   1</c></rc>
    <rc><c>Ba</c><c>   1</c></rc>
    <rc><c>Ba</c><c>   1</c></rc>
    <rc><c>Ba</c><c>   1</c></rc>
    <rc><c>Ba</c><c>   1</c></rc>
    <rc><c>Ba</c><c>   1</c></rc>
    <rc><c>Ba</c><c>   1</c></rc>
    <rc><c>Ba</c><c>   1</c></rc>
    <rc><c>Ba</c><c>   1</c></rc>
    <rc><c>Ba</c><c>   1</c></rc>
    <rc><c>Ba</c><c>   1</c></rc>
    <rc><c>Ba</c><c>   1</c></rc>
    <rc><c>Ba</c><c>   1</c></rc>
    <rc><c>Ba</c><c>   1</c></rc>
    <rc><c>Ba</c><c>   1</c></rc>
    <rc><c>Ba</c><c>   1</c></rc>
    <rc><c>Ba</c><c>   1</c></rc>
    <rc><c>Ba</c><c>   1</c></rc>
    <rc><c>Ba</c><c>   1</c></rc>
    <rc><c>Ba</c><c>   1</c></rc>
    <rc><c>Ba</c><c>   1</c></rc>
    <rc><c>Ba</c><c>   1</c></rc>
    <rc><c>Ba</c><c>   1</c></rc>
    <rc><c>Ba</c><c>   1</c></rc>
    <rc><c>Ba</c><c>   1</c></rc>
    <rc><c>Ba</c><c>   1</c></rc>
    <rc><c>Ba</c><c>   1</c></rc>
    <rc><c>Ba</c><c>   1</c></rc>
    <rc><c>Ba</c><c>   1</c></rc>
    <rc><c>Ba</c><c>   1</c></rc>
    <rc><c>Ba</c><c>   1</c></rc>
    <rc><c>Ba</c><c>   1</c></rc>
    <rc><c>Ba</c><c>   1</c></rc>
    <rc><c>Ba</c><c>   1</c></rc>
    <rc><c>Ba</c><c>   1</c></rc>
    <rc><c>Ba</c><c>   1</c></rc>
    <rc><c>Ba</c><c>   1</c></rc>
    <rc><c>Ba</c><c>   1</c></rc>
    <rc><c>Ba</c><c>   1</c></rc>
    <rc><c>Ba</c><c>   1</c></rc>
    <rc><c>Si</c><c>   2</c></rc>
    <rc><c>Si</c><c>   2</c></rc>
    <rc><c>Si</c><c>   2</c></rc>
    <rc><c>Si</c><c>   2</c></rc>
    <rc><c>Si</c><c>   2</c></rc>
    <rc><c>Si</c><c>   2</c></rc>
    <rc><c>Si</c><c>   2</c></rc>
    <rc><c>Si</c><c>   2</c></rc>
    <rc><c>Si</c><c>   2</c></rc>
    <rc><c>Si</c><c>   2</c></rc>
    <rc><c>Si</c><c>   2</c></rc>
    <rc><c>Si</c><c>   2</c></rc>
    <rc><c>Si</c><c>   2</c></rc>
    <rc><c>Si</c><c>   2</c></rc>
    <rc><c>Si</c><c>   2</c></rc>
    <rc><c>Si</c><c>   2</c></rc>
    <rc><c>Si</c><c>   2</c></rc>
    <rc><c>Si</c><c>   2</c></rc>
    <rc><c>Si</c><c>   2</c></rc>
    <rc><c>Si</c><c>   2</c></rc>
    <rc><c>Si</c><c>   2</c></rc>
    <rc><c>Si</c><c>   2</c></rc>
    <rc><c>Si</c><c>   2</c></rc>
    <rc><c>Si</c><c>   2</c></rc>
    <rc><c>Si</c><c>   2</c></rc>
    <rc><c>Si</c><c>   2</c></rc>
    <rc><c>Si</c><c>   2</c></rc>
    <rc><c>Si</c><c>   2</c></rc>
    <rc><c>Si</c><c>   2</c></rc>
    <rc><c>Si</c><c>   2</c></rc>
    <rc><c>Si</c><c>   2</c></rc>
    <rc><c>Si</c><c>   2</c></rc>
    <rc><c>Si</c><c>   2</c></rc>
    <rc><c>Si</c><c>   2</c></rc>
    <rc><c>Si</c><c>   2</c></rc>
    <rc><c>Si</c><c>   2</c></rc>
    <rc><c>Si</c><c>   2</c></rc>
    <rc><c>Si</c><c>   2</c></rc>
    <rc><c>Si</c><c>   2</c></rc>
    <rc><c>Si</c><c>   2</c></rc>
    <rc><c>Si</c><c>   2</c></rc>
    <rc><c>Si</c><c>   2</c></rc>
    <rc><c>Si</c><c>   2</c></rc>
    <rc><c>Si</c><c>   2</c></rc>
    <rc><c>Si</c><c>   2</c></rc>
    <rc><c>Si</c><c>   2</c></rc>
    <rc><c>Si</c><c>   2</c></rc>
    <rc><c>Si</c><c>   2</c></rc>
    <rc><c>Si</c><c>   2</c></rc>
    <rc><c>Si</c><c>   2</c></rc>
    <rc><c>Si</c><c>   2</c></rc>
    <rc><c>Si</c><c>   2</c></rc>
    <rc><c>Si</c><c>   2</c></rc>
    <rc><c>Si</c><c>   2</c></rc>
    <rc><c>Si</c><c>   2</c></rc>
    <rc><c>Si</c><c>   2</c></rc>
    <rc><c>Si</c><c>   2</c></rc>
    <rc><c>Si</c><c>   2</c></rc>
    <rc><c>Si</c><c>   2</c></rc>
    <rc><c>Si</c><c>   2</c></rc>
    <rc><c>Si</c><c>   2</c></rc>
    <rc><c>Si</c><c>   2</c></rc>
    <rc><c>Si</c><c>   2</c></rc>
    <rc><c>Si</c><c>   2</c></rc>
    <rc><c>Si</c><c>   2</c></rc>
    <rc><c>Si</c><c>   2</c></rc>
    <rc><c>Si</c><c>   2</c></rc>
    <rc><c>Si</c><c>   2</c></rc>
    <rc><c>Si</c><c>   2</c></rc>
    <rc><c>Si</c><c>   2</c></rc>
    <rc><c>Si</c><c>   2</c></rc>
    <rc><c>Si</c><c>   2</c></rc>
    <rc><c>Si</c><c>   2</c></rc>
    <rc><c>Si</c><c>   2</c></rc>
    <rc><c>Si</c><c>   2</c></rc>
    <rc><c>Si</c><c>   2</c></rc>
    <rc><c>Si</c><c>   2</c></rc>
    <rc><c>Si</c><c>   2</c></rc>
    <rc><c>Si</c><c>   2</c></rc>
    <rc><c>Si</c><c>   2</c></rc>
    <rc><c>Si</c><c>   2</c></rc>
    <rc><c>Si</c><c>   2</c></rc>
    <rc><c>Si</c><c>   2</c></rc>
    <rc><c>Si</c><c>   2</c></rc>
    <rc><c>Si</c><c>   2</c></rc>
    <rc><c>Si</c><c>   2</c></rc>
    <rc><c>Si</c><c>   2</c></rc>
    <rc><c>Si</c><c>   2</c></rc>
    <rc><c>Si</c><c>   2</c></rc>
    <rc><c>Si</c><c>   2</c></rc>
    <rc><c>Si</c><c>   2</c></rc>
    <rc><c>Si</c><c>   2</c></rc>
    <rc><c>Si</c><c>   2</c></rc>
    <rc><c>Si</c><c>   2</c></rc>
    <rc><c>Si</c><c>   2</c></rc>
    <rc><c>Si</c><c>   2</c></rc>
    <rc><c>Si</c><c>   2</c></rc>
    <rc><c>Si</c><c>   2</c></rc>
    <rc><c>Si</c><c>   2</c></rc>
    <rc><c>Si</c><c>   2</c></rc>
    <rc><c>Si</c><c>   2</c></rc>
    <rc><c>Si</c><c>   2</c></rc>
    <rc><c>Si</c><c>   2</c></rc>
    <rc><c>Si</c><c>   2</c></rc>
    <rc><c>Si</c><c>   2</c></rc>
    <rc><c>Si</c><c>   2</c></rc>
    <rc><c>Si</c><c>   2</c></rc>
    <rc><c>Si</c><c>   2</c></rc>
    <rc><c>Si</c><c>   2</c></rc>
    <rc><c>Si</c><c>   2</c></rc>
    <rc><c>Si</c><c>   2</c></rc>
    <rc><c>Si</c><c>   2</c></rc>
    <rc><c>Si</c><c>   2</c></rc>
    <rc><c>Si</c><c>   2</c></rc>
    <rc><c>Si</c><c>   2</c></rc>
    <rc><c>Si</c><c>   2</c></rc>
    <rc><c>Si</c><c>   2</c></rc>
    <rc><c>Si</c><c>   2</c></rc>
    <rc><c>Si</c><c>   2</c></rc>
    <rc><c>Si</c><c>   2</c></rc>
    <rc><c>Si</c><c>   2</c></rc>
    <rc><c>Si</c><c>   2</c></rc>
    <rc><c>Si</c><c>   2</c></rc>
    <rc><c>Si</c><c>   2</c></rc>
    <rc><c>Si</c><c>   2</c></rc>
    <rc><c>Si</c><c>   2</c></rc>
    <rc><c>Si</c><c>   2</c></rc>
    <rc><c>Si</c><c>   2</c></rc>
    <rc><c>Si</c><c>   2</c></rc>
    <rc><c>Si</c><c>   2</c></rc>
    <rc><c>Si</c><c>   2</c></rc>
    <rc><c>Si</c><c>   2</c></rc>
    <rc><c>Si</c><c>   2</c></rc>
    <rc><c>Si</c><c>   2</c></rc>
    <rc><c>Si</c><c>   2</c></rc>
    <rc><c>Si</c><c>   2</c></rc>
    <rc><c>Si</c><c>   2</c></rc>
    <rc><c>Si</c><c>   2</c></rc>
    <rc><c>Si</c><c>   2</c></rc>
    <rc><c>Si</c><c>   2</c></rc>
    <rc><c>Si</c><c>   2</c></rc>
    <rc><c>Si</c><c>   2</c></rc>
    <rc><c>Si</c><c>   2</c></rc>
    <rc><c>Si</c><c>   2</c></rc>
    <rc><c>Si</c><c>   2</c></rc>
    <rc><c>Si</c><c>   2</c></rc>
    <rc><c>Si</c><c>   2</c></rc>
    <rc><c>Si</c><c>   2</c></rc>
    <rc><c>Si</c><c>   2</c></rc>
    <rc><c>Si</c><c>   2</c></rc>
    <rc><c>Si</c><c>   2</c></rc>
    <rc><c>Si</c><c>   2</c></rc>
   </set>
  </array>
  <array name="atomtypes" >
   <dimension dim="1">type</dimension>
   <field type="int">atomspertype</field>
   <field type="string">element</field>
   <field>mass</field>
   <field>valence</field>
   <field type="string">pseudopotential</field>
   <set>
    <rc><c>  76</c><c>Ba</c><c>    137.32700000</c><c>     10.00000000</c><c> PAW_PBE Ba_sv 06Sep2000                </c></rc>
    <rc><c> 152</c><c>Si</c><c>     28.08500000</c><c>      4.00000000</c><c> PAW_PBE Si 05Jan2001                   </c></rc>
   </set>
  </array>
 </atominfo>
 <structure name="initialpos" >
  <crystal>
   <varray name="basis" >
    <v>      99.65704433       0.00000000       0.00000000 </v>
    <v>       0.00000000       6.70500348       0.00000000 </v>
    <v>       0.00000000       0.00000000      11.47905600 </v>
   </varray>
   <i name="volume">   7670.31474209 </i>
   <varray name="rec_basis" >
    <v>       0.01003441       0.00000000       0.00000000 </v>
    <v>       0.00000000       0.14914235       0.00000000 </v>
    <v>       0.00000000       0.00000000       0.08711518 </v>
   </varray>
  </crystal>
  <varray name="positions" >
   <v>       0.00327536       0.25000000       0.70120562 </v>
   <v>       0.09109855       0.25000000       0.69074058 </v>
   <v>       0.18056086       0.25000000       0.69159630 </v>
   <v>       0.27011554       0.25000000       0.69153830 </v>
   <v>       0.35969236       0.25000000       0.69144858 </v>
   <v>       0.44925482       0.25000000       0.69145553 </v>
   <v>       0.53880518       0.25000000       0.69146140 </v>
   <v>       0.62839373       0.25000000       0.69161709 </v>
   <v>       0.71797154       0.25000000       0.69143482 </v>
   <v>       0.80854606       0.25000000       0.69286993 </v>
   <v>       0.08813144       0.75000002       0.30812392 </v>
   <v>       0.17770896       0.75000002       0.30844764 </v>
   <v>       0.26727809       0.75000002       0.30830302 </v>
   <v>       0.35683441       0.75000002       0.30843751 </v>
   <v>       0.44641161       0.75000002       0.30839016 </v>
   <v>       0.53596974       0.75000002       0.30832294 </v>
   <v>       0.62554230       0.75000002       0.30853573 </v>
   <v>       0.71513620       0.75000002       0.30861646 </v>
   <v>       0.80443642       0.75000002       0.30824775 </v>
   <v>       0.04233362       0.75000002       0.19286987 </v>
   <v>       0.13290822       0.75000002       0.19143476 </v>
   <v>       0.22248600       0.75000002       0.19161703 </v>
   <v>       0.31207461       0.75000002       0.19146134 </v>
   <v>       0.40162491       0.75000002       0.19145547 </v>
   <v>       0.49118737       0.75000002       0.19144852 </v>
   <v>       0.58076425       0.75000002       0.19153823 </v>
   <v>       0.67031887       0.75000002       0.19159623 </v>
   <v>       0.75978119       0.75000002       0.19074052 </v>
   <v>       0.84760438       0.75000002       0.20120556 </v>
   <v>       0.04644328       0.25000000       0.80824779 </v>
   <v>       0.13574350       0.25000000       0.80861650 </v>
   <v>       0.22533747       0.25000000       0.80853577 </v>
   <v>       0.31491001       0.25000000       0.80832299 </v>
   <v>       0.40446816       0.25000000       0.80839020 </v>
   <v>       0.49404532       0.25000000       0.80843755 </v>
   <v>       0.58360167       0.25000000       0.80830306 </v>
   <v>       0.67317075       0.25000000       0.80844768 </v>
   <v>       0.76274828       0.25000000       0.80812396 </v>
   <v>       0.01910250       0.75000002       0.91214762 </v>
   <v>       0.10417380       0.75000002       0.90613040 </v>
   <v>       0.19353823       0.75000002       0.90606007 </v>
   <v>       0.28310364       0.75000002       0.90577112 </v>
   <v>       0.37269594       0.75000002       0.90598810 </v>
   <v>       0.46223231       0.75000002       0.90592193 </v>
   <v>       0.55181517       0.75000002       0.90586807 </v>
   <v>       0.64138288       0.75000002       0.90605086 </v>
   <v>       0.73089741       0.75000002       0.90522500 </v>
   <v>       0.81994325       0.75000002       0.89549411 </v>
   <v>       0.07477905       0.25000000       0.09298583 </v>
   <v>       0.16471437       0.25000000       0.09407511 </v>
   <v>       0.25430556       0.25000000       0.09407012 </v>
   <v>       0.34385871       0.25000000       0.09398273 </v>
   <v>       0.43343363       0.25000000       0.09399307 </v>
   <v>       0.52299673       0.25000000       0.09396603 </v>
   <v>       0.61254464       0.25000000       0.09402122 </v>
   <v>       0.70210161       0.25000000       0.09387120 </v>
   <v>       0.79149085       0.25000000       0.09522714 </v>
   <v>       0.03093646       0.25000000       0.39549419 </v>
   <v>       0.11998230       0.25000000       0.40522508 </v>
   <v>       0.20949683       0.25000000       0.40605094 </v>
   <v>       0.29906458       0.25000000       0.40586815 </v>
   <v>       0.38864738       0.25000000       0.40592201 </v>
   <v>       0.47818379       0.25000000       0.40598818 </v>
   <v>       0.56777615       0.25000000       0.40577121 </v>
   <v>       0.65734148       0.25000000       0.40606015 </v>
   <v>       0.74670599       0.25000000       0.40613048 </v>
   <v>       0.83177721       0.25000000       0.41214771 </v>
   <v>       0.05938890       0.75000002       0.59522712 </v>
   <v>       0.14877806       0.75000002       0.59387118 </v>
   <v>       0.23833508       0.75000002       0.59402120 </v>
   <v>       0.32788300       0.75000002       0.59396601 </v>
   <v>       0.41744614       0.75000002       0.59399305 </v>
   <v>       0.50702105       0.75000002       0.59398271 </v>
   <v>       0.59657419       0.75000002       0.59407010 </v>
   <v>       0.68616538       0.75000002       0.59407509 </v>
   <v>       0.77610070       0.75000002       0.59298581 </v>
   <v>       0.01624169       0.07160364       0.14508311 </v>
   <v>       0.10667357       0.07042038       0.14610098 </v>
   <v>       0.19634684       0.07036691       0.14623966 </v>
   <v>       0.28593612       0.07030474       0.14590796 </v>
   <v>       0.37547523       0.07036728       0.14620957 </v>
   <v>       0.46506254       0.07036262       0.14607749 </v>
   <v>       0.55462688       0.07033238       0.14592179 </v>
   <v>       0.64417677       0.07036664       0.14628252 </v>
   <v>       0.73371034       0.07032831       0.14540884 </v>
   <v>       0.82308078       0.07157456       0.14241432 </v>
   <v>       0.07282025       0.92997063       0.85422041 </v>
   <v>       0.16191322       0.92968928       0.85383755 </v>
   <v>       0.25147228       0.92965187       0.85395959 </v>
   <v>       0.34106299       0.92964282       0.85368408 </v>
   <v>       0.43062201       0.92967751       0.85380731 </v>
   <v>       0.52018002       0.92960921       0.85378331 </v>
   <v>       0.60975433       0.92964227       0.85381256 </v>
   <v>       0.69930401       0.92965635       0.85390059 </v>
   <v>       0.78894766       0.93029956       0.85321955 </v>
   <v>       0.02779893       0.92842543       0.64241434 </v>
   <v>       0.11716937       0.92967168       0.64540886 </v>
   <v>       0.20670294       0.92963336       0.64628254 </v>
   <v>       0.29625289       0.92966761       0.64592181 </v>
   <v>       0.38581723       0.92963737       0.64607751 </v>
   <v>       0.47540453       0.92963271       0.64620959 </v>
   <v>       0.56494365       0.92969525       0.64590798 </v>
   <v>       0.65453287       0.92963309       0.64623968 </v>
   <v>       0.74420615       0.92957961       0.64610100 </v>
   <v>       0.83463803       0.92839635       0.64508313 </v>
   <v>       0.06193209       0.06970043       0.35321955 </v>
   <v>       0.15157575       0.07034364       0.35390059 </v>
   <v>       0.24112542       0.07035772       0.35381256 </v>
   <v>       0.33069975       0.07039078       0.35378331 </v>
   <v>       0.42025768       0.07032248       0.35380731 </v>
   <v>       0.50981674       0.07035717       0.35368408 </v>
   <v>       0.59940747       0.07034812       0.35395959 </v>
   <v>       0.68896653       0.07031071       0.35383755 </v>
   <v>       0.77805949       0.07002936       0.35422041 </v>
   <v>       0.07282025       0.57002937       0.85422041 </v>
   <v>       0.16191322       0.57031072       0.85383755 </v>
   <v>       0.25147228       0.57034813       0.85395959 </v>
   <v>       0.34106299       0.57035718       0.85368408 </v>
   <v>       0.43062201       0.57032249       0.85380731 </v>
   <v>       0.52018002       0.57039079       0.85378331 </v>
   <v>       0.60975433       0.57035773       0.85381256 </v>
   <v>       0.69930401       0.57034365       0.85390059 </v>
   <v>       0.78894766       0.56970044       0.85321955 </v>
   <v>       0.01624169       0.42839635       0.14508311 </v>
   <v>       0.10667357       0.42957961       0.14610098 </v>
   <v>       0.19634684       0.42963309       0.14623966 </v>
   <v>       0.28593612       0.42969525       0.14590796 </v>
   <v>       0.37547523       0.42963271       0.14620957 </v>
   <v>       0.46506254       0.42963737       0.14607749 </v>
   <v>       0.55462688       0.42966761       0.14592179 </v>
   <v>       0.64417677       0.42963336       0.14628252 </v>
   <v>       0.73371034       0.42967168       0.14540884 </v>
   <v>       0.82308078       0.42842543       0.14241432 </v>
   <v>       0.06193209       0.43029956       0.35321955 </v>
   <v>       0.15157575       0.42965635       0.35390059 </v>
   <v>       0.24112542       0.42964227       0.35381256 </v>
   <v>       0.33069975       0.42960921       0.35378331 </v>
   <v>       0.42025768       0.42967751       0.35380731 </v>
   <v>       0.50981674       0.42964282       0.35368408 </v>
   <v>       0.59940747       0.42965187       0.35395959 </v>
   <v>       0.68896653       0.42968928       0.35383755 </v>
   <v>       0.77805949       0.42997063       0.35422041 </v>
   <v>       0.02779893       0.57157457       0.64241434 </v>
   <v>       0.11716937       0.57032832       0.64540886 </v>
   <v>       0.20670294       0.57036664       0.64628254 </v>
   <v>       0.29625289       0.57033239       0.64592181 </v>
   <v>       0.38581723       0.57036263       0.64607751 </v>
   <v>       0.47540453       0.57036729       0.64620959 </v>
   <v>       0.56494365       0.57030475       0.64590798 </v>
   <v>       0.65453287       0.57036691       0.64623968 </v>
   <v>       0.74420615       0.57042039       0.64610100 </v>
   <v>       0.83463803       0.57160365       0.64508313 </v>
   <v>       0.00658989       0.75000002       0.61829307 </v>
   <v>       0.09702315       0.75000002       0.59114398 </v>
   <v>       0.18655909       0.75000002       0.59149611 </v>
   <v>       0.27610190       0.75000002       0.59127222 </v>
   <v>       0.36567188       0.75000002       0.59138919 </v>
   <v>       0.45526056       0.75000002       0.59145246 </v>
   <v>       0.54479001       0.75000002       0.59134885 </v>
   <v>       0.63439249       0.75000002       0.59143590 </v>
   <v>       0.72403448       0.75000002       0.59161629 </v>
   <v>       0.81409773       0.75000002       0.58252573 </v>
   <v>       0.08201734       0.25000000       0.40806476 </v>
   <v>       0.17171944       0.25000000       0.40863166 </v>
   <v>       0.26126904       0.25000000       0.40857209 </v>
   <v>       0.35085119       0.25000000       0.40847461 </v>
   <v>       0.44040149       0.25000000       0.40844970 </v>
   <v>       0.52995504       0.25000000       0.40855494 </v>
   <v>       0.61956347       0.25000000       0.40850799 </v>
   <v>       0.70910242       0.25000000       0.40856631 </v>
   <v>       0.79805783       0.25000000       0.40906246 </v>
   <v>       0.03678203       0.25000000       0.08252567 </v>
   <v>       0.12684529       0.25000000       0.09161623 </v>
   <v>       0.21648728       0.25000000       0.09143584 </v>
   <v>       0.30608978       0.25000000       0.09134879 </v>
   <v>       0.39561920       0.25000000       0.09145240 </v>
   <v>       0.48520782       0.25000000       0.09138913 </v>
   <v>       0.57477785       0.25000000       0.09127216 </v>
   <v>       0.66432066       0.25000000       0.09149605 </v>
   <v>       0.75385659       0.25000000       0.09114392 </v>
   <v>       0.84428977       0.25000000       0.11829301 </v>
   <v>       0.05282187       0.75000002       0.90906250 </v>
   <v>       0.14177728       0.75000002       0.90856635 </v>
   <v>       0.23131626       0.75000002       0.90850804 </v>
   <v>       0.32092473       0.75000002       0.90855498 </v>
   <v>       0.41047828       0.75000002       0.90844974 </v>
   <v>       0.50002854       0.75000002       0.90847466 </v>
   <v>       0.58961069       0.75000002       0.90857213 </v>
   <v>       0.67916029       0.75000002       0.90863170 </v>
   <v>       0.76886239       0.75000002       0.90806480 </v>
   <v>       0.01641096       0.25000000       0.96257202 </v>
   <v>       0.10704060       0.25000000       0.96445325 </v>
   <v>       0.19666202       0.25000000       0.96449571 </v>
   <v>       0.28628280       0.25000000       0.96423426 </v>
   <v>       0.37581438       0.25000000       0.96447856 </v>
   <v>       0.46538595       0.25000000       0.96435457 </v>
   <v>       0.55496415       0.25000000       0.96424415 </v>
   <v>       0.64450680       0.25000000       0.96454844 </v>
   <v>       0.73406270       0.25000000       0.96373244 </v>
   <v>       0.82766228       0.25000000       0.96227167 </v>
   <v>       0.07215754       0.75000002       0.03672292 </v>
   <v>       0.16158261       0.75000002       0.03553528 </v>
   <v>       0.25111908       0.75000002       0.03567286 </v>
   <v>       0.34074952       0.75000002       0.03543739 </v>
   <v>       0.43028949       0.75000002       0.03548640 </v>
   <v>       0.51984016       0.75000002       0.03551819 </v>
   <v>       0.60943316       0.75000002       0.03555073 </v>
   <v>       0.69897338       0.75000002       0.03562987 </v>
   <v>       0.78861542       0.75000002       0.03520614 </v>
   <v>       0.02321748       0.75000002       0.46227159 </v>
   <v>       0.11681698       0.75000002       0.46373236 </v>
   <v>       0.20637288       0.75000002       0.46454836 </v>
   <v>       0.29591566       0.75000002       0.46424407 </v>
   <v>       0.38549382       0.75000002       0.46435449 </v>
   <v>       0.47506531       0.75000002       0.46447848 </v>
   <v>       0.56459695       0.75000002       0.46423418 </v>
   <v>       0.65421765       0.75000002       0.46449563 </v>
   <v>       0.74383915       0.75000002       0.46445316 </v>
   <v>       0.83446871       0.75000002       0.46257194 </v>
   <v>       0.06226428       0.25000000       0.53520612 </v>
   <v>       0.15190634       0.25000000       0.53562985 </v>
   <v>       0.24144659       0.25000000       0.53555071 </v>
   <v>       0.33103957       0.25000000       0.53551818 </v>
   <v>       0.42059028       0.25000000       0.53548638 </v>
   <v>       0.51013021       0.25000000       0.53543738 </v>
   <v>       0.59976065       0.25000000       0.53567285 </v>
   <v>       0.68929710       0.25000000       0.53553526 </v>
   <v>       0.77872217       0.25000000       0.53672290 </v>
  </varray>
 </structure>
 <calculation>
  <scstep>
   <time name="dav">  493.61  495.11</time>
   <time name="total">  500.16  502.00</time>
   <energy>
    <i name="alphaZ">   3786.71701538 </i>
    <i name="ewald"> 346860.66608855 </i>
    <i name="hartreedc">-414535.73058837 </i>
    <i name="XCdc">    465.60116766 </i>
    <i name="pawpsdc">  36727.41893447 </i>
    <i name="pawaedc"> -33930.89602297 </i>
    <i name="eentropy">     -0.00378856 </i>
    <i name="bandstr">    491.45285686 </i>
    <i name="atom">  69056.93881434 </i>
    <i name="e_fr_energy">   8922.16447736 </i>
    <i name="e_wo_entrp">   8922.16826592 </i>
    <i name="e_0_energy">   8922.16637164 </i>
   </energy>
  </scstep>
  <scstep>
   <time name="dav">  618.37  620.00</time>
   <time name="total">  618.39  620.02</time>
   <energy>
    <i name="e_fr_energy">    151.61051026 </i>
    <i name="e_wo_entrp">    151.61231211 </i>
    <i name="e_0_energy">    151.61141118 </i>
   </energy>
  </scstep>
  <scstep>
   <time name="dav">  583.13  584.55</time>
   <time name="total">  583.14  584.56</time>
   <energy>
    <i name="e_fr_energy">   -860.65589939 </i>
    <i name="e_wo_entrp">   -860.65589939 </i>
    <i name="e_0_energy">   -860.65589939 </i>
   </energy>
  </scstep>
  <scstep>
   <time name="dav">  678.66  680.91</time>
   <time name="total">  678.67  680.92</time>
   <energy>
    <i name="e_fr_energy">   -916.75769752 </i>
    <i name="e_wo_entrp">   -916.75769752 </i>
    <i name="e_0_energy">   -916.75769752 </i>
   </energy>
  </scstep>
  <scstep>
   <time name="dav">  705.48  707.80</time>
   <time name="total">  705.49  707.82</time>
   <energy>
    <i name="e_fr_energy">   -919.12766743 </i>
    <i name="e_wo_entrp">   -919.12766743 </i>
    <i name="e_0_energy">   -919.12766743 </i>
   </energy>
  </scstep>
  <scstep>
   <time name="dav">  667.57  669.43</time>
   <time name="total">  667.59  669.45</time>
   <energy>
    <i name="e_fr_energy">   -919.20185211 </i>
    <i name="e_wo_entrp">   -919.20185211 </i>
    <i name="e_0_energy">   -919.20185211 </i>
   </energy>
  </scstep>
  <scstep>
   <time name="dav">  703.98  705.85</time>
   <time name="total">  703.99  705.86</time>
   <energy>
    <i name="e_fr_energy">   -919.20460995 </i>
    <i name="e_wo_entrp">   -919.20460995 </i>
    <i name="e_0_energy">   -919.20460995 </i>
   </energy>
  </scstep>
  <scstep>
   <time name="dav">  662.15  664.02</time>
   <time name="total">  662.16  664.03</time>
   <energy>
    <i name="e_fr_energy">   -919.20473045 </i>
    <i name="e_wo_entrp">   -919.20473045 </i>
    <i name="e_0_energy">   -919.20473045 </i>
   </energy>
  </scstep>
  <scstep>
   <time name="dav">  608.85  610.33</time>
   <time name="total">  608.86  610.34</time>
   <energy>
    <i name="e_fr_energy">   -919.20473656 </i>
    <i name="e_wo_entrp">   -919.20473656 </i>
    <i name="e_0_energy">   -919.20473656 </i>
   </energy>
  </scstep>
  <scstep>
   <time name="dav">  442.47  443.64</time>
   <time name="total">  442.48  443.65</time>
   <energy>
    <i name="alphaZ">   3786.71701538 </i>
    <i name="ewald"> 346860.66608855 </i>
    <i name="hartreedc">-414535.73058837 </i>
    <i name="XCdc">    465.60116766 </i>
    <i name="pawpsdc">  36727.41893447 </i>
    <i name="pawaedc"> -33930.89602297 </i>
    <i name="eentropy">     -0.00000000 </i>
    <i name="bandstr">  -9349.92014593 </i>
    <i name="atom">  69056.93881434 </i>
    <i name="e_fr_energy">   -919.20473686 </i>
    <i name="e_wo_entrp">   -919.20473686 </i>
    <i name="e_0_energy">   -919.20473686 </i>
   </energy>
  </scstep>
  <structure>
   <crystal>
    <varray name="basis" >
     <v>      99.65704433       0.00000000       0.00000000 </v>
     <v>       0.00000000       6.70500348       0.00000000 </v>
     <v>       0.00000000       0.00000000      11.47905600 </v>
    </varray>
    <i name="volume">   7670.31474209 </i>
    <varray name="rec_basis" >
     <v>       0.01003441       0.00000000       0.00000000 </v>
     <v>       0.00000000       0.14914235       0.00000000 </v>
     <v>       0.00000000       0.00000000       0.08711518 </v>
    </varray>
   </crystal>
   <varray name="positions" >
    <v>       0.00327536       0.25000000       0.70120562 </v>
    <v>       0.09109855       0.25000000       0.69074058 </v>
    <v>       0.18056086       0.25000000       0.69159630 </v>
    <v>       0.27011554       0.25000000       0.69153830 </v>
    <v>       0.35969236       0.25000000       0.69144858 </v>
    <v>       0.44925482       0.25000000       0.69145553 </v>
    <v>       0.53880518       0.25000000       0.69146140 </v>
    <v>       0.62839373       0.25000000       0.69161709 </v>
    <v>       0.71797154       0.25000000       0.69143482 </v>
    <v>       0.80854606       0.25000000       0.69286993 </v>
    <v>       0.08813144       0.75000002       0.30812392 </v>
    <v>       0.17770896       0.75000002       0.30844764 </v>
    <v>       0.26727809       0.75000002       0.30830302 </v>
    <v>       0.35683441       0.75000002       0.30843751 </v>
    <v>       0.44641161       0.75000002       0.30839016 </v>
    <v>       0.53596974       0.75000002       0.30832294 </v>
    <v>       0.62554230       0.75000002       0.30853573 </v>
    <v>       0.71513620       0.75000002       0.30861646 </v>
    <v>       0.80443642       0.75000002       0.30824775 </v>
    <v>       0.04233362       0.75000002       0.19286987 </v>
    <v>       0.13290822       0.75000002       0.19143476 </v>
    <v>       0.22248600       0.75000002       0.19161703 </v>
    <v>       0.31207461       0.75000002       0.19146134 </v>
    <v>       0.40162491       0.75000002       0.19145547 </v>
    <v>       0.49118737       0.75000002       0.19144852 </v>
    <v>       0.58076425       0.75000002       0.19153823 </v>
    <v>       0.67031887       0.75000002       0.19159623 </v>
    <v>       0.75978119       0.75000002       0.19074052 </v>
    <v>       0.84760438       0.75000002       0.20120556 </v>
    <v>       0.04644328       0.25000000       0.80824779 </v>
    <v>       0.13574350       0.25000000       0.80861650 </v>
    <v>       0.22533747       0.25000000       0.80853577 </v>
    <v>       0.31491001       0.25000000       0.80832299 </v>
    <v>       0.40446816       0.25000000       0.80839020 </v>
    <v>       0.49404532       0.25000000       0.80843755 </v>
    <v>       0.58360167       0.25000000       0.80830306 </v>
    <v>       0.67317075       0.25000000       0.80844768 </v>
    <v>       0.76274828       0.25000000       0.80812396 </v>
    <v>       0.01910250       0.75000002       0.91214762 </v>
    <v>       0.10417380       0.75000002       0.90613040 </v>
    <v>       0.19353823       0.75000002       0.90606007 </v>
    <v>       0.28310364       0.75000002       0.90577112 </v>
    <v>       0.37269594       0.75000002       0.90598810 </v>
    <v>       0.46223231       0.75000002       0.90592193 </v>
    <v>       0.55181517       0.75000002       0.90586807 </v>
    <v>       0.64138288       0.75000002       0.90605086 </v>
    <v>       0.73089741       0.75000002       0.90522500 </v>
    <v>       0.81994325       0.75000002       0.89549411 </v>
    <v>       0.07477905       0.25000000       0.09298583 </v>
    <v>       0.16471437       0.25000000       0.09407511 </v>
    <v>       0.25430556       0.25000000       0.09407012 </v>
    <v>       0.34385871       0.25000000       0.09398273 </v>
    <v>       0.43343363       0.25000000       0.09399307 </v>
    <v>       0.52299673       0.25000000       0.09396603 </v>
    <v>       0.61254464       0.25000000       0.09402122 </v>
    <v>       0.70210161       0.25000000       0.09387120 </v>
    <v>       0.79149085       0.25000000       0.09522714 </v>
    <v>       0.03093646       0.25000000       0.39549419 </v>
    <v>       0.11998230       0.25000000       0.40522508 </v>
    <v>       0.20949683       0.25000000       0.40605094 </v>
    <v>       0.29906458       0.25000000       0.40586815 </v>
    <v>       0.38864738       0.25000000       0.40592201 </v>
    <v>       0.47818379       0.25000000       0.40598818 </v>
    <v>       0.56777615       0.25000000       0.40577121 </v>
    <v>       0.65734148       0.25000000       0.40606015 </v>
    <v>       0.74670599       0.25000000       0.40613048 </v>
    <v>       0.83177721       0.25000000       0.41214771 </v>
    <v>       0.05938890       0.75000002       0.59522712 </v>
    <v>       0.14877806       0.75000002       0.59387118 </v>
[...]
       <r>    -4.3302     0.0000   684.0000 </r>
       <r>    -4.2143     0.0000   684.0000 </r>
       <r>    -4.0985     0.0000   684.0000 </r>
       <r>    -3.9826     0.0000   684.0000 </r>
       <r>    -3.8667     0.0000   684.0000 </r>
       <r>    -3.7508     0.0000   684.0000 </r>
       <r>    -3.6349     9.2693   685.0741 </r>
       <r>    -3.5191   190.3177   713.6044 </r>
       <r>    -3.4032   120.5766   736.6726 </r>
       <r>    -3.2873    97.7364   752.2259 </r>
       <r>    -3.1714   295.3962   793.4311 </r>
       <r>    -3.0555   307.1836   849.9970 </r>
       <r>    -2.9396   166.1736   887.3315 </r>
       <r>    -2.8238    57.6399   901.6044 </r>
       <r>    -2.7079    48.8903   908.1155 </r>
       <r>    -2.5920     5.9806   910.4430 </r>
       <r>    -2.4761     3.6675   912.0000 </r>
       <r>    -2.3602     0.0000   912.0000 </r>
       <r>    -2.2444     0.0000   912.0000 </r>
       <r>    -2.1285     0.0000   912.0000 </r>
       <r>    -2.0126     0.0000   912.0000 </r>
       <r>    -1.8967     0.0000   912.0000 </r>
       <r>    -1.7808     0.0000   912.0000 </r>
       <r>    -1.6649     0.0000   912.0000 </r>
       <r>    -1.5491     0.0000   912.0000 </r>
       <r>    -1.4332     0.0000   912.0000 </r>
       <r>    -1.3173     0.0000   912.0000 </r>
       <r>    -1.2014     0.0000   912.0000 </r>
       <r>    -1.0855     0.0000   912.0000 </r>
       <r>    -0.9697     3.2280   912.3741 </r>
       <r>    -0.8538     5.1279   913.1692 </r>
       <r>    -0.7379     5.4033   914.0261 </r>
       <r>    -0.6220     5.9116   915.0351 </r>
       <r>    -0.5061     7.3156   916.3228 </r>
       <r>    -0.3902    13.3599   918.3232 </r>
       <r>    -0.2744    19.3372   921.3658 </r>
       <r>    -0.1585    24.1180   925.1198 </r>
       <r>    -0.0426    26.1738   929.3831 </r>
       <r>     0.0733    97.0110   942.9668 </r>
       <r>     0.1892   110.9200   961.2786 </r>
       <r>     0.3050   111.1222   979.8521 </r>
       <r>     0.4209    92.4019   996.1827 </r>
       <r>     0.5368   108.2538  1013.5947 </r>
       <r>     0.6527   103.5411  1029.8735 </r>
       <r>     0.7686   123.8845  1049.5310 </r>
       <r>     0.8845   157.9077  1072.6987 </r>
       <r>     1.0003   196.5020  1104.7710 </r>
       <r>     1.1162   193.6772  1136.6187 </r>
       <r>     1.2321   175.7476  1165.7910 </r>
       <r>     1.3480   182.1338  1195.3060 </r>
       <r>     1.4639   123.2349  1216.0307 </r>
       <r>     1.5798   207.5844  1246.8303 </r>
       <r>     1.6956   140.2700  1276.1798 </r>
       <r>     1.8115    81.4514  1288.9637 </r>
       <r>     1.9274   127.5505  1307.3808 </r>
       <r>     2.0433    96.2625  1324.1551 </r>
       <r>     2.1592   104.7892  1341.9182 </r>
       <r>     2.2750    93.0538  1357.7083 </r>
       <r>     2.3909    33.8297  1367.1702 </r>
       <r>     2.5068     3.6372  1367.9215 </r>
       <r>     2.6227     0.0000  1368.0000 </r>
       <r>     2.7386     0.0000  1368.0000 </r>
       <r>     2.8545     0.0000  1368.0000 </r>
       <r>     2.9703     0.0000  1368.0000 </r>
       <r>     3.0862     0.0000  1368.0000 </r>
       <r>     3.2021     0.0839  1368.0097 </r>
       <r>     3.3180    32.8983  1372.3123 </r>
       <r>     3.4339    70.0868  1383.6218 </r>
       <r>     3.5497    89.5059  1397.5221 </r>
       <r>     3.6656    75.0075  1411.0670 </r>
       <r>     3.7815   116.1128  1428.4554 </r>
       <r>     3.8974   101.4204  1445.3278 </r>
       <r>     4.0133    98.4112  1461.3541 </r>
       <r>     4.1292    97.7447  1477.8019 </r>
       <r>     4.2450   112.4425  1496.5301 </r>
       <r>     4.3609    82.3611  1510.7942 </r>
       <r>     4.4768   101.3680  1527.3217 </r>
       <r>     4.5927   112.2354  1545.7561 </r>
       <r>     4.7086    95.4411  1563.4599 </r>
       <r>     4.8244    85.6402  1577.4491 </r>
       <r>     4.9403   117.7691  1597.5223 </r>
       <r>     5.0562   117.7968  1617.0755 </r>
       <r>     5.1721    97.5821  1634.3830 </r>
       <r>     5.2880    44.2809  1642.6814 </r>
       <r>     5.4039    18.2730  1646.2425 </r>
       <r>     5.5197     8.0062  1647.7278 </r>
       <r>     5.6356     0.6472  1648.0000 </r>
       <r>     5.7515     0.0000  1648.0000 </r>
       <r>     5.8674     0.0000  1648.0000 </r>
       <r>     5.9833     0.0000  1648.0000 </r>
       <r>     6.0991     0.0000  1648.0000 </r>
       <r>     6.2150     0.0000  1648.0000 </r>
       <r>     6.3309     0.0000  1648.0000 </r>
       <r>     6.4468     0.0000  1648.0000 </r>
       <r>     6.5627     0.0000  1648.0000 </r>
       <r>     6.6786     0.0000  1648.0000 </r>
       <r>     6.7944     0.0000  1648.0000 </r>
       <r>     6.9103     0.0000  1648.0000 </r>
       <r>     7.0262     0.0000  1648.0000 </r>
       <r>     7.1421     0.0000  1648.0000 </r>
      </set>
     </set>
    </array>
   </total>
  </dos>
 </calculation>
 <structure name="finalpos" >
  <crystal>
   <varray name="basis" >
    <v>      99.65704433       0.00000000       0.00000000 </v>
    <v>       0.00000000       6.70500348       0.00000000 </v>
    <v>       0.00000000       0.00000000      11.47905600 </v>
   </varray>
   <i name="volume">   7670.31474209 </i>
   <varray name="rec_basis" >
    <v>       0.01003441       0.00000000       0.00000000 </v>
    <v>       0.00000000       0.14914235       0.00000000 </v>
    <v>       0.00000000       0.00000000       0.08711518 </v>
   </varray>
  </crystal>
  <varray name="positions" >
   <v>       0.00327536       0.25000000       0.70120562 </v>
   <v>       0.09109855       0.25000000       0.69074058 </v>
   <v>       0.18056086       0.25000000       0.69159630 </v>
   <v>       0.27011554       0.25000000       0.69153830 </v>
   <v>       0.35969236       0.25000000       0.69144858 </v>
   <v>       0.44925482       0.25000000       0.69145553 </v>
   <v>       0.53880518       0.25000000       0.69146140 </v>
   <v>       0.62839373       0.25000000       0.69161709 </v>
   <v>       0.71797154       0.25000000       0.69143482 </v>
   <v>       0.80854606       0.25000000       0.69286993 </v>
   <v>       0.08813144       0.75000002       0.30812392 </v>
   <v>       0.17770896       0.75000002       0.30844764 </v>
   <v>       0.26727809       0.75000002       0.30830302 </v>
   <v>       0.35683441       0.75000002       0.30843751 </v>
   <v>       0.44641161       0.75000002       0.30839016 </v>
   <v>       0.53596974       0.75000002       0.30832294 </v>
   <v>       0.62554230       0.75000002       0.30853573 </v>
   <v>       0.71513620       0.75000002       0.30861646 </v>
   <v>       0.80443642       0.75000002       0.30824775 </v>
   <v>       0.04233362       0.75000002       0.19286987 </v>
   <v>       0.13290822       0.75000002       0.19143476 </v>
   <v>       0.22248600       0.75000002       0.19161703 </v>
   <v>       0.31207461       0.75000002       0.19146134 </v>
   <v>       0.40162491       0.75000002       0.19145547 </v>
   <v>       0.49118737       0.75000002       0.19144852 </v>
   <v>       0.58076425       0.75000002       0.19153823 </v>
   <v>       0.67031887       0.75000002       0.19159623 </v>
   <v>       0.75978119       0.75000002       0.19074052 </v>
   <v>       0.84760438       0.75000002       0.20120556 </v>
   <v>       0.04644328       0.25000000       0.80824779 </v>
   <v>       0.13574350       0.25000000       0.80861650 </v>
   <v>       0.22533747       0.25000000       0.80853577 </v>
   <v>       0.31491001       0.25000000       0.80832299 </v>
   <v>       0.40446816       0.25000000       0.80839020 </v>
   <v>       0.49404532       0.25000000       0.80843755 </v>
   <v>       0.58360167       0.25000000       0.80830306 </v>
   <v>       0.67317075       0.25000000       0.80844768 </v>
   <v>       0.76274828       0.25000000       0.80812396 </v>
   <v>       0.01910250       0.75000002       0.91214762 </v>
   <v>       0.10417380       0.75000002       0.90613040 </v>
   <v>       0.19353823       0.75000002       0.90606007 </v>
   <v>       0.28310364       0.75000002       0.90577112 </v>
   <v>       0.37269594       0.75000002       0.90598810 </v>
   <v>       0.46223231       0.75000002       0.90592193 </v>
   <v>       0.55181517       0.75000002       0.90586807 </v>
   <v>       0.64138288       0.75000002       0.90605086 </v>
   <v>       0.73089741       0.75000002       0.90522500 </v>
   <v>       0.81994325       0.75000002       0.89549411 </v>
   <v>       0.07477905       0.25000000       0.09298583 </v>
   <v>       0.16471437       0.25000000       0.09407511 </v>
   <v>       0.25430556       0.25000000       0.09407012 </v>
   <v>       0.34385871       0.25000000       0.09398273 </v>
   <v>       0.43343363       0.25000000       0.09399307 </v>
   <v>       0.52299673       0.25000000       0.09396603 </v>
   <v>       0.61254464       0.25000000       0.09402122 </v>
   <v>       0.70210161       0.25000000       0.09387120 </v>
   <v>       0.79149085       0.25000000       0.09522714 </v>
   <v>       0.03093646       0.25000000       0.39549419 </v>
   <v>       0.11998230       0.25000000       0.40522508 </v>
   <v>       0.20949683       0.25000000       0.40605094 </v>
   <v>       0.29906458       0.25000000       0.40586815 </v>
   <v>       0.38864738       0.25000000       0.40592201 </v>
   <v>       0.47818379       0.25000000       0.40598818 </v>
   <v>       0.56777615       0.25000000       0.40577121 </v>
   <v>       0.65734148       0.25000000       0.40606015 </v>
   <v>       0.74670599       0.25000000       0.40613048 </v>
   <v>       0.83177721       0.25000000       0.41214771 </v>
   <v>       0.05938890       0.75000002       0.59522712 </v>
   <v>       0.14877806       0.75000002       0.59387118 </v>
   <v>       0.23833508       0.75000002       0.59402120 </v>
   <v>       0.32788300       0.75000002       0.59396601 </v>
   <v>       0.41744614       0.75000002       0.59399305 </v>
   <v>       0.50702105       0.75000002       0.59398271 </v>
   <v>       0.59657419       0.75000002       0.59407010 </v>
   <v>       0.68616538       0.75000002       0.59407509 </v>
   <v>       0.77610070       0.75000002       0.59298581 </v>
   <v>       0.01624169       0.07160364       0.14508311 </v>
   <v>       0.10667357       0.07042038       0.14610098 </v>
   <v>       0.19634684       0.07036691       0.14623966 </v>
   <v>       0.28593612       0.07030474       0.14590796 </v>
   <v>       0.37547523       0.07036728       0.14620957 </v>
   <v>       0.46506254       0.07036262       0.14607749 </v>
   <v>       0.55462688       0.07033238       0.14592179 </v>
   <v>       0.64417677       0.07036664       0.14628252 </v>
   <v>       0.73371034       0.07032831       0.14540884 </v>
   <v>       0.82308078       0.07157456       0.14241432 </v>
   <v>       0.07282025       0.92997063       0.85422041 </v>
   <v>       0.16191322       0.92968928       0.85383755 </v>
   <v>       0.25147228       0.92965187       0.85395959 </v>
   <v>       0.34106299       0.92964282       0.85368408 </v>
   <v>       0.43062201       0.92967751       0.85380731 </v>
   <v>       0.52018002       0.92960921       0.85378331 </v>
   <v>       0.60975433       0.92964227       0.85381256 </v>
   <v>       0.69930401       0.92965635       0.85390059 </v>
   <v>       0.78894766       0.93029956       0.85321955 </v>
   <v>       0.02779893       0.92842543       0.64241434 </v>
   <v>       0.11716937       0.92967168       0.64540886 </v>
   <v>       0.20670294       0.92963336       0.64628254 </v>
   <v>       0.29625289       0.92966761       0.64592181 </v>
   <v>       0.38581723       0.92963737       0.64607751 </v>
   <v>       0.47540453       0.92963271       0.64620959 </v>
   <v>       0.56494365       0.92969525       0.64590798 </v>
   <v>       0.65453287       0.92963309       0.64623968 </v>
   <v>       0.74420615       0.92957961       0.64610100 </v>
   <v>       0.83463803       0.92839635       0.64508313 </v>
   <v>       0.06193209       0.06970043       0.35321955 </v>
   <v>       0.15157575       0.07034364       0.35390059 </v>
   <v>       0.24112542       0.07035772       0.35381256 </v>
   <v>       0.33069975       0.07039078       0.35378331 </v>
   <v>       0.42025768       0.07032248       0.35380731 </v>
   <v>       0.50981674       0.07035717       0.35368408 </v>
   <v>       0.59940747       0.07034812       0.35395959 </v>
   <v>       0.68896653       0.07031071       0.35383755 </v>
   <v>       0.77805949       0.07002936       0.35422041 </v>
   <v>       0.07282025       0.57002937       0.85422041 </v>
   <v>       0.16191322       0.57031072       0.85383755 </v>
   <v>       0.25147228       0.57034813       0.85395959 </v>
   <v>       0.34106299       0.57035718       0.85368408 </v>
   <v>       0.43062201       0.57032249       0.85380731 </v>
   <v>       0.52018002       0.57039079       0.85378331 </v>
   <v>       0.60975433       0.57035773       0.85381256 </v>
   <v>       0.69930401       0.57034365       0.85390059 </v>
   <v>       0.78894766       0.56970044       0.85321955 </v>
   <v>       0.01624169       0.42839635       0.14508311 </v>
   <v>       0.10667357       0.42957961       0.14610098 </v>
   <v>       0.19634684       0.42963309       0.14623966 </v>
   <v>       0.28593612       0.42969525       0.14590796 </v>
   <v>       0.37547523       0.42963271       0.14620957 </v>
   <v>       0.46506254       0.42963737       0.14607749 </v>
   <v>       0.55462688       0.42966761       0.14592179 </v>
   <v>       0.64417677       0.42963336       0.14628252 </v>
   <v>       0.73371034       0.42967168       0.14540884 </v>
   <v>       0.82308078       0.42842543       0.14241432 </v>
   <v>       0.06193209       0.43029956       0.35321955 </v>
   <v>       0.15157575       0.42965635       0.35390059 </v>
   <v>       0.24112542       0.42964227       0.35381256 </v>
   <v>       0.33069975       0.42960921       0.35378331 </v>
   <v>       0.42025768       0.42967751       0.35380731 </v>
   <v>       0.50981674       0.42964282       0.35368408 </v>
   <v>       0.59940747       0.42965187       0.35395959 </v>
   <v>       0.68896653       0.42968928       0.35383755 </v>
   <v>       0.77805949       0.42997063       0.35422041 </v>
   <v>       0.02779893       0.57157457       0.64241434 </v>
   <v>       0.11716937       0.57032832       0.64540886 </v>
   <v>       0.20670294       0.57036664       0.64628254 </v>
   <v>       0.29625289       0.57033239       0.64592181 </v>
   <v>       0.38581723       0.57036263       0.64607751 </v>
   <v>       0.47540453       0.57036729       0.64620959 </v>
   <v>       0.56494365       0.57030475       0.64590798 </v>
   <v>       0.65453287       0.57036691       0.64623968 </v>
   <v>       0.74420615       0.57042039       0.64610100 </v>
   <v>       0.83463803       0.57160365       0.64508313 </v>
   <v>       0.00658989       0.75000002       0.61829307 </v>
   <v>       0.09702315       0.75000002       0.59114398 </v>
   <v>       0.18655909       0.75000002       0.59149611 </v>
   <v>       0.27610190       0.75000002       0.59127222 </v>
   <v>       0.36567188       0.75000002       0.59138919 </v>
   <v>       0.45526056       0.75000002       0.59145246 </v>
   <v>       0.54479001       0.75000002       0.59134885 </v>
   <v>       0.63439249       0.75000002       0.59143590 </v>
   <v>       0.72403448       0.75000002       0.59161629 </v>
   <v>       0.81409773       0.75000002       0.58252573 </v>
   <v>       0.08201734       0.25000000       0.40806476 </v>
   <v>       0.17171944       0.25000000       0.40863166 </v>
   <v>       0.26126904       0.25000000       0.40857209 </v>
   <v>       0.35085119       0.25000000       0.40847461 </v>
   <v>       0.44040149       0.25000000       0.40844970 </v>
   <v>       0.52995504       0.25000000       0.40855494 </v>
   <v>       0.61956347       0.25000000       0.40850799 </v>
   <v>       0.70910242       0.25000000       0.40856631 </v>
   <v>       0.79805783       0.25000000       0.40906246 </v>
   <v>       0.03678203       0.25000000       0.08252567 </v>
   <v>       0.12684529       0.25000000       0.09161623 </v>
   <v>       0.21648728       0.25000000       0.09143584 </v>
   <v>       0.30608978       0.25000000       0.09134879 </v>
   <v>       0.39561920       0.25000000       0.09145240 </v>
   <v>       0.48520782       0.25000000       0.09138913 </v>
   <v>       0.57477785       0.25000000       0.09127216 </v>
   <v>       0.66432066       0.25000000       0.09149605 </v>
   <v>       0.75385659       0.25000000       0.09114392 </v>
   <v>       0.84428977       0.25000000       0.11829301 </v>
   <v>       0.05282187       0.75000002       0.90906250 </v>
   <v>       0.14177728       0.75000002       0.90856635 </v>
   <v>       0.23131626       0.75000002       0.90850804 </v>
   <v>       0.32092473       0.75000002       0.90855498 </v>
   <v>       0.41047828       0.75000002       0.90844974 </v>
   <v>       0.50002854       0.75000002       0.90847466 </v>
   <v>       0.58961069       0.75000002       0.90857213 </v>
   <v>       0.67916029       0.75000002       0.90863170 </v>
   <v>       0.76886239       0.75000002       0.90806480 </v>
   <v>       0.01641096       0.25000000       0.96257202 </v>
   <v>       0.10704060       0.25000000       0.96445325 </v>
   <v>       0.19666202       0.25000000       0.96449571 </v>
   <v>       0.28628280       0.25000000       0.96423426 </v>
   <v>       0.37581438       0.25000000       0.96447856 </v>
   <v>       0.46538595       0.25000000       0.96435457 </v>
   <v>       0.55496415       0.25000000       0.96424415 </v>
   <v>       0.64450680       0.25000000       0.96454844 </v>
   <v>       0.73406270       0.25000000       0.96373244 </v>
   <v>       0.82766228       0.25000000       0.96227167 </v>
   <v>       0.07215754       0.75000002       0.03672292 </v>
   <v>       0.16158261       0.75000002       0.03553528 </v>
   <v>       0.25111908       0.75000002       0.03567286 </v>
   <v>       0.34074952       0.75000002       0.03543739 </v>
   <v>       0.43028949       0.75000002       0.03548640 </v>
   <v>       0.51984016       0.75000002       0.03551819 </v>
   <v>       0.60943316       0.75000002       0.03555073 </v>
   <v>       0.69897338       0.75000002       0.03562987 </v>
   <v>       0.78861542       0.75000002       0.03520614 </v>
   <v>       0.02321748       0.75000002       0.46227159 </v>
   <v>       0.11681698       0.75000002       0.46373236 </v>
   <v>       0.20637288       0.75000002       0.46454836 </v>
   <v>       0.29591566       0.75000002       0.46424407 </v>
   <v>       0.38549382       0.75000002       0.46435449 </v>
   <v>       0.47506531       0.75000002       0.46447848 </v>
   <v>       0.56459695       0.75000002       0.46423418 </v>
   <v>       0.65421765       0.75000002       0.46449563 </v>
   <v>       0.74383915       0.75000002       0.46445316 </v>
   <v>       0.83446871       0.75000002       0.46257194 </v>
   <v>       0.06226428       0.25000000       0.53520612 </v>
   <v>       0.15190634       0.25000000       0.53562985 </v>
   <v>       0.24144659       0.25000000       0.53555071 </v>
   <v>       0.33103957       0.25000000       0.53551818 </v>
   <v>       0.42059028       0.25000000       0.53548638 </v>
   <v>       0.51013021       0.25000000       0.53543738 </v>
   <v>       0.59976065       0.25000000       0.53567285 </v>
   <v>       0.68929710       0.25000000       0.53553526 </v>
   <v>       0.77872217       0.25000000       0.53672290 </v>
  </varray>
 </structure>
</modeling>
