<?xml version="1.0" encoding="ISO-8859-1"?>
<modeling>
 <generator>
  <i name="program" type="string">vasp </i>
  <i name="version" type="string">5.4.4.18Apr17-6-g9f103f2a35  </i>
  <i name="subversion" type="string">(build Nov 21 2017 15:30:27) complex            parallel </i>
  <i name="platform" type="string">LinuxIFC </i>
  <i name="date" type="string">2021 03 17 </i>
  <i name="time" type="string">12:19:38 </i>
 </generator>
 <incar>
  <i type="string" name="PREC">normal</i>
  <i type="int" name="ICHARG">    11</i>
  <i type="int" name="NELM">   100</i>
  <i name="EDIFF">      0.00000100</i>
  <i name="EDIFFG">     -0.01000000</i>
  <i name="ENCUT">    500.00000000</i>
  <i name="POTIM">      0.30000000</i>
  <i type="string" name="LREAL"> Auto       ! Projection in reciprocal s</i>
  <i type="int" name="ISMEAR">     0</i>
  <i name="SIGMA">      0.01000000</i>
  <i type="logical" name="LWAVE"> T  </i>
  <i type="logical" name="LCHARG"> T  </i>
  <i type="logical" name="LASPH"> T  </i>
  <v type="int" name="KPOINT_BSE">    -1     0     0     0</v>
  <i type="int" name="NELM">   100</i>
  <i type="string" name="GGA"> MK</i>
  <i name="PARAM1">      0.12340000</i>
  <i name="PARAM2">      0.71135700</i>
  <i type="logical" name="LUSE_VDW"> T  </i>
  <i name="Zab_VDW">     -1.88670000</i>
  <i name="AGGAC">      0.00000000</i>
  <i type="logical" name="LASPH"> T  </i>
 </incar>
 <structure name="primitive_cell" >
  <crystal>
   <varray name="basis" >
    <v>      52.31672188       0.00000000       0.05820743 </v>
    <v>       0.00000000       6.69151903       0.00000000 </v>
    <v>       0.01303019       0.00000000      11.46457676 </v>
   </varray>
   <i name="volume">   4013.49492551 </i>
   <varray name="rec_basis" >
    <v>       0.01911437       0.00000000      -0.00002172 </v>
    <v>       0.00000000       0.14944290       0.00000000 </v>
    <v>      -0.00009705       0.00000000       0.08722531 </v>
   </varray>
  </crystal>
  <varray name="positions" >
   <v>       0.01645945       0.25000000      -0.29586298 </v>
   <v>       0.04147393       0.25000000      -0.03480006 </v>
   <v>       0.06327806      -0.42886810      -0.35563532 </v>
   <v>       0.06327806      -0.07113190      -0.35563532 </v>
   <v>       0.02284750      -0.24999998      -0.37855933 </v>
   <v>       0.04696589      -0.24999998      -0.08554156 </v>
   <v>       0.06928526       0.25000000       0.39753886 </v>
   <v>       0.09890556       0.25000000      -0.18920478 </v>
   <v>       0.05435043      -0.24999998       0.46437577 </v>
   <v>       0.04106712       0.42880855       0.14783193 </v>
   <v>       0.04106712       0.07119144       0.14783193 </v>
   <v>       0.08022724       0.25000000       0.08501960 </v>
   <v>       0.12907766       0.25000000      -0.46203888 </v>
   <v>       0.11129596      -0.24999998      -0.08831613 </v>
   <v>       0.12355546      -0.24999998      -0.40211159 </v>
   <v>       0.12844993       0.43084736       0.35580445 </v>
   <v>       0.12844993       0.06915263       0.35580445 </v>
   <v>       0.14939228      -0.43051424      -0.14320208 </v>
   <v>       0.14939228      -0.06948576      -0.14320208 </v>
   <v>       0.09097575      -0.24999998       0.19523830 </v>
   <v>       0.15328322       0.25000000       0.09599206 </v>
   <v>       0.16669067       0.25000000       0.41060829 </v>
   <v>       0.14804547      -0.24999998       0.03941346 </v>
   <v>       0.18428162       0.25000000      -0.30737040 </v>
   <v>       0.19573837      -0.24999998      -0.40670180 </v>
   <v>       0.17864372      -0.24999998       0.31058412 </v>
   <v>       0.21490516       0.25000000      -0.03394112 </v>
   <v>       0.20923701      -0.24999998      -0.09179920 </v>
   <v>       0.21410742       0.42989484       0.14794593 </v>
   <v>       0.21410742       0.07010515       0.14794593 </v>
   <v>       0.23411955      -0.42997459      -0.35246461 </v>
   <v>       0.23411955      -0.07002542      -0.35246461 </v>
   <v>       0.23347164      -0.24999998       0.46552510 </v>
   <v>       0.23980251       0.25000000       0.40689953 </v>
   <v>       0.25256264       0.25000000       0.09326873 </v>
   <v>       0.26984758       0.25000000      -0.18995632 </v>
   <v>       0.28161510      -0.24999998      -0.09066407 </v>
   <v>       0.26437007      -0.24999998       0.19233766 </v>
   <v>       0.29452247      -0.24999998      -0.40540443 </v>
   <v>       0.30085899       0.25000000      -0.46371859 </v>
   <v>       0.30018967       0.43002723       0.35421564 </v>
   <v>       0.30018967       0.06997276       0.35421564 </v>
   <v>       0.31999647      -0.43008301      -0.14602128 </v>
   <v>       0.31999647      -0.06991699      -0.14602128 </v>
   <v>       0.31930538      -0.24999998       0.03602770 </v>
   <v>       0.32564239       0.25000000       0.09434300 </v>
   <v>       0.33857997       0.25000000       0.40881101 </v>
   <v>       0.35578705       0.25000000      -0.30890069 </v>
   <v>      -0.31674689       0.25000000       0.37855933 </v>
   <v>      -0.31035883      -0.24999998       0.29586298 </v>
   <v>       0.35031355      -0.24999998       0.30890069 </v>
   <v>      -0.33496655      -0.42880855      -0.14783195 </v>
   <v>      -0.33496655      -0.07119145      -0.14783195 </v>
   <v>       0.36752063      -0.24999998      -0.40881101 </v>
   <v>      -0.33537330      -0.24999998       0.03480007 </v>
   <v>      -0.34824985       0.25000000      -0.46437585 </v>
   <v>      -0.34086525       0.25000000       0.08554154 </v>
   <v>       0.38045821      -0.24999998      -0.09434302 </v>
   <v>       0.38679522       0.25000000      -0.03602768 </v>
   <v>      -0.35717744       0.42886810       0.35563532 </v>
   <v>      -0.35717744       0.07113189       0.35563532 </v>
   <v>       0.38610413       0.43008301       0.14602126 </v>
   <v>       0.38610413       0.06991698       0.14602126 </v>
   <v>      -0.36318470      -0.24999998      -0.39753882 </v>
   <v>       0.40591091      -0.43002723      -0.35421564 </v>
   <v>       0.40591091      -0.06997277      -0.35421564 </v>
   <v>       0.40524161      -0.24999998       0.46371851 </v>
   <v>      -0.37412665      -0.24999998      -0.08501962 </v>
   <v>       0.41157814       0.25000000       0.40540447 </v>
   <v>      -0.38487517       0.25000000      -0.19523832 </v>
   <v>       0.42448549       0.25000000       0.09066405 </v>
   <v>       0.44173051       0.25000000      -0.19233768 </v>
   <v>      -0.39280494      -0.24999998       0.18920476 </v>
   <v>      -0.40519538       0.25000000       0.08831611 </v>
   <v>       0.43625304      -0.24999998       0.18995630 </v>
   <v>      -0.41745486       0.25000000       0.40211163 </v>
   <v>      -0.42234936      -0.43084736      -0.35580445 </v>
   <v>      -0.42234936      -0.06915264      -0.35580445 </v>
   <v>       0.45353798      -0.24999998      -0.09326875 </v>
   <v>      -0.42297706      -0.24999998       0.46203880 </v>
   <v>       0.46629809      -0.24999998      -0.40689949 </v>
   <v>       0.47262896       0.25000000      -0.46552519 </v>
   <v>      -0.44194486       0.25000000      -0.03941345 </v>
   <v>       0.47198107       0.42997458       0.35246461 </v>
   <v>       0.47198107       0.07002541       0.35246461 </v>
   <v>      -0.44718262      -0.24999998      -0.09599208 </v>
   <v>      -0.44329169       0.43051424       0.14320206 </v>
   <v>      -0.44329169       0.06948575       0.14320206 </v>
   <v>       0.49199316      -0.42989484      -0.14794595 </v>
   <v>       0.49199316      -0.07010516      -0.14794595 </v>
   <v>      -0.46059005      -0.24999998      -0.41060829 </v>
   <v>       0.49119544      -0.24999998       0.03394113 </v>
   <v>       0.49686359       0.25000000       0.09179918 </v>
   <v>      -0.47254314       0.25000000      -0.31058412 </v>
   <v>      -0.48963779       0.25000000       0.40670180 </v>
   <v>      -0.47818100      -0.24999998       0.30737040 </v>
  </varray>
 </structure>
 <varray name="primitive_index" >
  <v type="int" >        1 </v>
  <v type="int" >       81 </v>
  <v type="int" >       61 </v>
  <v type="int" >       41 </v>
  <v type="int" >       65 </v>
  <v type="int" >       17 </v>
  <v type="int" >       25 </v>
  <v type="int" >       13 </v>
  <v type="int" >       89 </v>
  <v type="int" >       53 </v>
  <v type="int" >       33 </v>
  <v type="int" >       73 </v>
  <v type="int" >       93 </v>
  <v type="int" >       77 </v>
  <v type="int" >       29 </v>
  <v type="int" >       57 </v>
  <v type="int" >       45 </v>
  <v type="int" >       49 </v>
  <v type="int" >       37 </v>
  <v type="int" >        9 </v>
  <v type="int" >       21 </v>
  <v type="int" >       69 </v>
  <v type="int" >       85 </v>
  <v type="int" >        2 </v>
  <v type="int" >       66 </v>
  <v type="int" >        5 </v>
  <v type="int" >       82 </v>
  <v type="int" >       18 </v>
  <v type="int" >       54 </v>
  <v type="int" >       34 </v>
  <v type="int" >       62 </v>
  <v type="int" >       42 </v>
  <v type="int" >       90 </v>
  <v type="int" >       26 </v>
  <v type="int" >       74 </v>
  <v type="int" >       14 </v>
  <v type="int" >       78 </v>
  <v type="int" >       10 </v>
  <v type="int" >       30 </v>
  <v type="int" >       94 </v>
  <v type="int" >       58 </v>
  <v type="int" >       46 </v>
  <v type="int" >       50 </v>
  <v type="int" >       38 </v>
  <v type="int" >       86 </v>
  <v type="int" >       22 </v>
  <v type="int" >       70 </v>
  <v type="int" >        3 </v>
  <v type="int" >       72 </v>
  <v type="int" >        8 </v>
  <v type="int" >        6 </v>
  <v type="int" >       52 </v>
  <v type="int" >       40 </v>
  <v type="int" >       67 </v>
  <v type="int" >       88 </v>
  <v type="int" >       96 </v>
  <v type="int" >       24 </v>
  <v type="int" >       19 </v>
  <v type="int" >       83 </v>
  <v type="int" >       60 </v>
  <v type="int" >       48 </v>
  <v type="int" >       55 </v>
  <v type="int" >       35 </v>
  <v type="int" >       32 </v>
  <v type="int" >       63 </v>
  <v type="int" >       43 </v>
  <v type="int" >       91 </v>
  <v type="int" >       80 </v>
  <v type="int" >       27 </v>
  <v type="int" >       16 </v>
  <v type="int" >       75 </v>
  <v type="int" >       15 </v>
  <v type="int" >       12 </v>
  <v type="int" >       76 </v>
  <v type="int" >       11 </v>
  <v type="int" >       28 </v>
  <v type="int" >       64 </v>
  <v type="int" >       44 </v>
  <v type="int" >       79 </v>
  <v type="int" >       92 </v>
  <v type="int" >       31 </v>
  <v type="int" >       95 </v>
  <v type="int" >       84 </v>
  <v type="int" >       59 </v>
  <v type="int" >       47 </v>
  <v type="int" >       20 </v>
  <v type="int" >       56 </v>
  <v type="int" >       36 </v>
  <v type="int" >       51 </v>
  <v type="int" >       39 </v>
  <v type="int" >       68 </v>
  <v type="int" >       87 </v>
  <v type="int" >       23 </v>
  <v type="int" >        4 </v>
  <v type="int" >       71 </v>
  <v type="int" >        7 </v>
 </varray>
 <kpoints>
  <generation param="listgenerated">
   <i name="divisions" type="int">      20 </i>
   <v>       0.00000000       0.00000000       0.00000000 </v>
   <v>       0.00000000       0.50000000       0.00000000 </v>
   <v>       0.00000000       0.50000000       0.50000000 </v>
   <v>       0.00000000       0.00000000       0.50000000 </v>
   <v>       0.00000000       0.00000000       0.00000000 </v>
  </generation>
  <varray name="kpointlist" >
   <v>       0.00000000       0.00000000       0.00000000 </v>
   <v>       0.00000000       0.02631579       0.00000000 </v>
   <v>       0.00000000       0.05263158       0.00000000 </v>
   <v>       0.00000000       0.07894737       0.00000000 </v>
   <v>       0.00000000       0.10526316       0.00000000 </v>
   <v>       0.00000000       0.13157895       0.00000000 </v>
   <v>       0.00000000       0.15789474       0.00000000 </v>
   <v>       0.00000000       0.18421053       0.00000000 </v>
   <v>       0.00000000       0.21052632       0.00000000 </v>
   <v>       0.00000000       0.23684211       0.00000000 </v>
   <v>       0.00000000       0.26315789       0.00000000 </v>
   <v>       0.00000000       0.28947368       0.00000000 </v>
   <v>       0.00000000       0.31578947       0.00000000 </v>
   <v>       0.00000000       0.34210526       0.00000000 </v>
   <v>       0.00000000       0.36842105       0.00000000 </v>
   <v>       0.00000000       0.39473684       0.00000000 </v>
   <v>       0.00000000       0.42105263       0.00000000 </v>
   <v>       0.00000000       0.44736842       0.00000000 </v>
   <v>       0.00000000       0.47368421       0.00000000 </v>
   <v>       0.00000000       0.50000000       0.00000000 </v>
   <v>       0.00000000       0.50000000       0.00000000 </v>
   <v>       0.00000000       0.50000000       0.02631579 </v>
   <v>       0.00000000       0.50000000       0.05263158 </v>
   <v>       0.00000000       0.50000000       0.07894737 </v>
   <v>       0.00000000       0.50000000       0.10526316 </v>
   <v>       0.00000000       0.50000000       0.13157895 </v>
   <v>       0.00000000       0.50000000       0.15789474 </v>
   <v>       0.00000000       0.50000000       0.18421053 </v>
   <v>       0.00000000       0.50000000       0.21052632 </v>
   <v>       0.00000000       0.50000000       0.23684211 </v>
   <v>       0.00000000       0.50000000       0.26315789 </v>
   <v>       0.00000000       0.50000000       0.28947368 </v>
   <v>       0.00000000       0.50000000       0.31578947 </v>
   <v>       0.00000000       0.50000000       0.34210526 </v>
   <v>       0.00000000       0.50000000       0.36842105 </v>
   <v>       0.00000000       0.50000000       0.39473684 </v>
   <v>       0.00000000       0.50000000       0.42105263 </v>
   <v>       0.00000000       0.50000000       0.44736842 </v>
   <v>       0.00000000       0.50000000       0.47368421 </v>
   <v>       0.00000000       0.50000000       0.50000000 </v>
   <v>       0.00000000       0.50000000       0.50000000 </v>
   <v>       0.00000000       0.47368421       0.50000000 </v>
   <v>       0.00000000       0.44736842       0.50000000 </v>
   <v>       0.00000000       0.42105263       0.50000000 </v>
   <v>       0.00000000       0.39473684       0.50000000 </v>
   <v>       0.00000000       0.36842105       0.50000000 </v>
   <v>       0.00000000       0.34210526       0.50000000 </v>
   <v>       0.00000000       0.31578947       0.50000000 </v>
   <v>       0.00000000       0.28947368       0.50000000 </v>
   <v>       0.00000000       0.26315789       0.50000000 </v>
   <v>       0.00000000       0.23684211       0.50000000 </v>
   <v>       0.00000000       0.21052632       0.50000000 </v>
   <v>       0.00000000       0.18421053       0.50000000 </v>
   <v>       0.00000000       0.15789474       0.50000000 </v>
   <v>       0.00000000       0.13157895       0.50000000 </v>
   <v>       0.00000000       0.10526316       0.50000000 </v>
   <v>       0.00000000       0.07894737       0.50000000 </v>
   <v>       0.00000000       0.05263158       0.50000000 </v>
   <v>       0.00000000       0.02631579       0.50000000 </v>
   <v>       0.00000000       0.00000000       0.50000000 </v>
   <v>       0.00000000       0.00000000       0.50000000 </v>
   <v>       0.00000000       0.00000000       0.47368421 </v>
   <v>       0.00000000       0.00000000       0.44736842 </v>
   <v>       0.00000000       0.00000000       0.42105263 </v>
   <v>       0.00000000       0.00000000       0.39473684 </v>
   <v>       0.00000000       0.00000000       0.36842105 </v>
   <v>       0.00000000       0.00000000       0.34210526 </v>
   <v>       0.00000000       0.00000000       0.31578947 </v>
   <v>       0.00000000       0.00000000       0.28947368 </v>
   <v>       0.00000000       0.00000000       0.26315789 </v>
   <v>       0.00000000       0.00000000       0.23684211 </v>
   <v>       0.00000000       0.00000000       0.21052632 </v>
   <v>       0.00000000       0.00000000       0.18421053 </v>
   <v>       0.00000000       0.00000000       0.15789474 </v>
   <v>       0.00000000       0.00000000       0.13157895 </v>
   <v>       0.00000000       0.00000000       0.10526316 </v>
   <v>       0.00000000       0.00000000       0.07894737 </v>
   <v>       0.00000000       0.00000000       0.05263158 </v>
   <v>       0.00000000       0.00000000       0.02631579 </v>
   <v>       0.00000000       0.00000000       0.00000000 </v>
  </varray>
  <varray name="weights" >
   <v>       0.01250000 </v>
   <v>       0.01250000 </v>
   <v>       0.01250000 </v>
   <v>       0.01250000 </v>
   <v>       0.01250000 </v>
   <v>       0.01250000 </v>
   <v>       0.01250000 </v>
   <v>       0.01250000 </v>
   <v>       0.01250000 </v>
   <v>       0.01250000 </v>
   <v>       0.01250000 </v>
   <v>       0.01250000 </v>
   <v>       0.01250000 </v>
   <v>       0.01250000 </v>
   <v>       0.01250000 </v>
   <v>       0.01250000 </v>
   <v>       0.01250000 </v>
   <v>       0.01250000 </v>
   <v>       0.01250000 </v>
   <v>       0.01250000 </v>
   <v>       0.01250000 </v>
   <v>       0.01250000 </v>
   <v>       0.01250000 </v>
   <v>       0.01250000 </v>
   <v>       0.01250000 </v>
   <v>       0.01250000 </v>
   <v>       0.01250000 </v>
   <v>       0.01250000 </v>
   <v>       0.01250000 </v>
   <v>       0.01250000 </v>
   <v>       0.01250000 </v>
   <v>       0.01250000 </v>
   <v>       0.01250000 </v>
   <v>       0.01250000 </v>
   <v>       0.01250000 </v>
   <v>       0.01250000 </v>
   <v>       0.01250000 </v>
   <v>       0.01250000 </v>
   <v>       0.01250000 </v>
   <v>       0.01250000 </v>
   <v>       0.01250000 </v>
   <v>       0.01250000 </v>
   <v>       0.01250000 </v>
   <v>       0.01250000 </v>
   <v>       0.01250000 </v>
   <v>       0.01250000 </v>
   <v>       0.01250000 </v>
   <v>       0.01250000 </v>
   <v>       0.01250000 </v>
   <v>       0.01250000 </v>
   <v>       0.01250000 </v>
   <v>       0.01250000 </v>
   <v>       0.01250000 </v>
   <v>       0.01250000 </v>
   <v>       0.01250000 </v>
   <v>       0.01250000 </v>
   <v>       0.01250000 </v>
   <v>       0.01250000 </v>
   <v>       0.01250000 </v>
   <v>       0.01250000 </v>
   <v>       0.01250000 </v>
   <v>       0.01250000 </v>
   <v>       0.01250000 </v>
   <v>       0.01250000 </v>
   <v>       0.01250000 </v>
   <v>       0.01250000 </v>
   <v>       0.01250000 </v>
   <v>       0.01250000 </v>
   <v>       0.01250000 </v>
   <v>       0.01250000 </v>
   <v>       0.01250000 </v>
   <v>       0.01250000 </v>
   <v>       0.01250000 </v>
   <v>       0.01250000 </v>
   <v>       0.01250000 </v>
   <v>       0.01250000 </v>
   <v>       0.01250000 </v>
   <v>       0.01250000 </v>
   <v>       0.01250000 </v>
   <v>       0.01250000 </v>
  </varray>
 </kpoints>
 <parameters>
  <separator name="general" >
   <i type="string" name="SYSTEM">unknown system</i>
   <i type="logical" name="LCOMPAT"> F  </i>
  </separator>
  <separator name="electronic" >
   <i type="string" name="PREC">normal</i>
   <i name="ENMAX">    500.00000000</i>
   <i name="ENAUG">    351.16500000</i>
   <i name="EDIFF">      0.00000100</i>
   <i type="int" name="IALGO">    38</i>
   <i type="int" name="IWAVPR">    10</i>
   <i type="int" name="NBANDS">   352</i>
   <i name="NELECT">    576.00000000</i>
   <i type="int" name="TURBO">     0</i>
   <i type="int" name="IRESTART">     0</i>
   <i type="int" name="NREBOOT">     0</i>
   <i type="int" name="NMIN">     0</i>
   <i name="EREF">      0.00000000</i>
   <separator name="electronic smearing" >
    <i type="int" name="ISMEAR">     0</i>
    <i name="SIGMA">      0.01000000</i>
    <i name="KSPACING">      0.50000000</i>
    <i type="logical" name="KGAMMA"> T  </i>
   </separator>
   <separator name="electronic projectors" >
    <i type="logical" name="LREAL"> T  </i>
    <v name="ROPT">     -0.00050000     -0.00050000</v>
    <i type="int" name="LMAXPAW">  -100</i>
    <i type="int" name="LMAXMIX">     2</i>
    <i type="logical" name="NLSPLINE"> F  </i>
   </separator>
   <separator name="electronic startup" >
    <i type="int" name="ISTART">     0</i>
    <i type="int" name="ICHARG">    11</i>
    <i type="int" name="INIWAV">     1</i>
   </separator>
   <separator name="electronic spin" >
    <i type="int" name="ISPIN">     1</i>
    <i type="logical" name="LNONCOLLINEAR"> F  </i>
    <v name="MAGMOM">      1.00000000      1.00000000      1.00000000      1.00000000      1.00000000      1.00000000      1.00000000      1.00000000      1.00000000      1.00000000      1.00000000      1.00000000      1.00000000      1.00000000      1.00000000      1.00000000      1.00000000      1.00000000      1.00000000      1.00000000
      1.00000000      1.00000000      1.00000000      1.00000000      1.00000000      1.00000000      1.00000000      1.00000000      1.00000000      1.00000000      1.00000000      1.00000000      1.00000000      1.00000000      1.00000000      1.00000000      1.00000000      1.00000000      1.00000000      1.00000000
      1.00000000      1.00000000      1.00000000      1.00000000      1.00000000      1.00000000      1.00000000      1.00000000      1.00000000      1.00000000      1.00000000      1.00000000      1.00000000      1.00000000      1.00000000      1.00000000      1.00000000      1.00000000      1.00000000      1.00000000
      1.00000000      1.00000000      1.00000000      1.00000000      1.00000000      1.00000000      1.00000000      1.00000000      1.00000000      1.00000000      1.00000000      1.00000000      1.00000000      1.00000000      1.00000000      1.00000000      1.00000000      1.00000000      1.00000000      1.00000000
      1.00000000      1.00000000      1.00000000      1.00000000      1.00000000      1.00000000      1.00000000      1.00000000      1.00000000      1.00000000      1.00000000      1.00000000      1.00000000      1.00000000      1.00000000      1.00000000</v>
    <i name="NUPDOWN">     -1.00000000</i>
    <i type="logical" name="LSORBIT"> F  </i>
    <v name="SAXIS">      0.00000000      0.00000000      1.00000000</v>
    <i type="logical" name="LSPIRAL"> F  </i>
    <v name="QSPIRAL">      0.00000000      0.00000000      0.00000000</v>
    <i type="logical" name="LZEROZ"> F  </i>
   </separator>
   <separator name="electronic exchange-correlation" >
    <i type="logical" name="LASPH"> T  </i>
    <i type="logical" name="LMETAGGA"> F  </i>
   </separator>
   <separator name="electronic convergence" >
    <i type="int" name="NELM">   100</i>
    <i type="int" name="NELMDL">    -5</i>
    <i type="int" name="NELMIN">     2</i>
    <i name="ENINI">    500.00000000</i>
    <separator name="electronic convergence detail" >
     <i type="logical" name="LDIAG"> T  </i>
     <i type="logical" name="LSUBROT"> F  </i>
     <i name="WEIMIN">      0.00000000</i>
     <i name="EBREAK">      0.00000000</i>
     <i name="DEPER">      0.30000000</i>
     <i type="int" name="NRMM">     4</i>
     <i name="TIME">      0.40000000</i>
    </separator>
   </separator>
   <separator name="electronic mixer" >
    <i name="AMIX">      0.40000000</i>
    <i name="BMIX">      1.00000000</i>
    <i name="AMIN">      0.10000000</i>
    <i name="AMIX_MAG">      1.60000000</i>
    <i name="BMIX_MAG">      1.00000000</i>
    <separator name="electronic mixer details" >
     <i type="int" name="IMIX">     4</i>
     <i type="logical" name="MIXFIRST"> F  </i>
     <i type="int" name="MAXMIX">   -45</i>
     <i name="WC">    100.00000000</i>
     <i type="int" name="INIMIX">     1</i>
     <i type="int" name="MIXPRE">     1</i>
     <i type="int" name="MREMOVE">     5</i>
    </separator>
   </separator>
   <separator name="electronic dipolcorrection" >
    <i type="logical" name="LDIPOL"> F  </i>
    <i type="logical" name="LMONO"> F  </i>
    <i type="int" name="IDIPOL">     0</i>
    <i name="EPSILON">      1.00000000</i>
    <v name="DIPOL">   -100.00000000   -100.00000000   -100.00000000</v>
    <i name="EFIELD">      0.00000000</i>
   </separator>
  </separator>
  <separator name="grids" >
   <i type="int" name="NGX">   288</i>
   <i type="int" name="NGY">    40</i>
   <i type="int" name="NGZ">    64</i>
   <i type="int" name="NGXF">   576</i>
   <i type="int" name="NGYF">    80</i>
   <i type="int" name="NGZF">   128</i>
   <i type="logical" name="ADDGRID"> F  </i>
  </separator>
  <separator name="ionic" >
   <i type="int" name="NSW">     0</i>
   <i type="int" name="IBRION">    -1</i>
   <i type="int" name="MDALGO">     0</i>
   <i type="int" name="ISIF">     2</i>
   <i name="PSTRESS">      0.00000000</i>
   <i name="EDIFFG">     -0.01000000</i>
   <i type="int" name="NFREE">     0</i>
   <i name="POTIM">      0.30000000</i>
   <i name="SMASS">     -3.00000000</i>
   <i name="SCALEE">      1.00000000</i>
  </separator>
  <separator name="ionic md" >
   <i name="TEBEG">      0.00010000</i>
   <i name="TEEND">      0.00010000</i>
   <i type="int" name="NBLOCK">     1</i>
   <i type="int" name="KBLOCK">     1</i>
   <i type="int" name="NPACO">   256</i>
   <i name="APACO">     16.00000000</i>
  </separator>
  <separator name="symmetry" >
   <i type="int" name="ISYM">     2</i>
   <i name="SYMPREC">      0.00001000</i>
  </separator>
  <separator name="dos" >
   <i type="int" name="LORBIT">     0</i>
   <v name="RWIGS">     -1.00000000     -1.00000000</v>
   <i type="int" name="NEDOS">   301</i>
   <i name="EMIN">     10.00000000</i>
   <i name="EMAX">    -10.00000000</i>
   <i name="EFERMI">      0.00000000</i>
  </separator>
  <separator name="writing" >
   <i type="int" name="NWRITE">     2</i>
   <i type="logical" name="LWAVE"> T  </i>
   <i type="logical" name="LDOWNSAMPLE"> F  </i>
   <i type="logical" name="LCHARG"> T  </i>
   <i type="logical" name="LPARD"> F  </i>
   <i type="logical" name="LVTOT"> F  </i>
   <i type="logical" name="LVHAR"> F  </i>
   <i type="logical" name="LELF"> F  </i>
   <i type="logical" name="LOPTICS"> F  </i>
   <v name="STM">      0.00000000      0.00000000      0.00000000      0.00000000      0.00000000      0.00000000      0.00000000</v>
  </separator>
  <separator name="performance" >
   <i type="int" name="NPAR">     8</i>
   <i type="int" name="NSIM">     4</i>
   <i type="int" name="NBLK">    -1</i>
   <i type="logical" name="LPLANE"> T  </i>
   <i type="logical" name="LSCALAPACK"> T  </i>
   <i type="logical" name="LSCAAWARE"> F  </i>
   <i type="logical" name="LSCALU"> F  </i>
   <i type="logical" name="LASYNC"> F  </i>
   <i type="logical" name="LORBITALREAL"> F  </i>
  </separator>
  <separator name="miscellaneous" >
   <i type="int" name="IDIOT">     3</i>
   <i type="int" name="ISPECIAL">     0</i>
   <i type="logical" name="LMUSIC"> F  </i>
   <v name="POMASS">    137.32700000     28.08500000</v>
   <v name="DARWINR">      0.00000000      0.00000000</v>
   <v name="DARWINV">      1.00000000      1.00000000</v>
   <i type="logical" name="LCORR"> T  </i>
  </separator>
  <i type="logical" name="GGA_COMPAT"> T  </i>
  <i type="logical" name="LBERRY"> F  </i>
  <i type="int" name="ICORELEVEL">     0</i>
  <i type="logical" name="LDAU"> F  </i>
  <i type="int" name="I_CONSTRAINED_M">     0</i>
  <separator name="electronic exchange-correlation" >
   <i type="string" name="GGA">MK</i>
   <i type="int" name="VOSKOWN">     0</i>
   <i type="logical" name="LHFCALC"> F  </i>
   <i type="string" name="PRECFOCK"></i>
   <i type="logical" name="LSYMGRAD"> F  </i>
   <i type="logical" name="LHFONE"> F  </i>
   <i type="logical" name="LRHFCALC"> F  </i>
   <i type="logical" name="LTHOMAS"> F  </i>
   <i type="logical" name="LMODELHF"> F  </i>
   <i name="ENCUT4O">     -1.00000000</i>
   <i type="int" name="EXXOEP">     0</i>
   <i type="int" name="FOURORBIT">     0</i>
   <i name="AEXX">      0.00000000</i>
   <i name="HFALPHA">      0.00000000</i>
   <i name="MCALPHA">      0.00000000</i>
   <i name="ALDAX">      1.00000000</i>
   <i name="AGGAX">      1.00000000</i>
   <i name="ALDAC">      1.00000000</i>
   <i name="AGGAC">      0.00000000</i>
   <i type="int" name="NKREDX">     1</i>
   <i type="int" name="NKREDY">     1</i>
   <i type="int" name="NKREDZ">     1</i>
   <i type="logical" name="SHIFTRED"> F  </i>
   <i type="logical" name="ODDONLY"> F  </i>
   <i type="logical" name="EVENONLY"> F  </i>
   <i type="int" name="LMAXFOCK">     0</i>
   <i type="int" name="NMAXFOCKAE">     0</i>
   <i type="logical" name="LFOCKAEDFT"> F  </i>
   <i name="HFSCREEN">      0.00000000</i>
   <i name="HFSCREENC">      0.00000000</i>
   <i type="int" name="NBANDSGWLOW">     0</i>
  </separator>
  <separator name="vdW DFT" >
   <i type="logical" name="LUSE_VDW"> T  </i>
   <i name="Zab_VDW">     -1.88670000</i>
   <i name="PARAM1">      0.12340000</i>
   <i name="PARAM2">      0.71135700</i>
   <i name="PARAM3">      0.00000000</i>
  </separator>
  <separator name="model GW" >
   <i type="int" name="MODEL_GW">     0</i>
   <i name="MODEL_EPS0">     25.08434328</i>
   <i name="MODEL_ALPHA">      1.00000000</i>
  </separator>
  <separator name="linear response parameters" >
   <i type="logical" name="LEPSILON"> F  </i>
   <i type="logical" name="LRPA"> F  </i>
   <i type="logical" name="LNABLA"> F  </i>
   <i type="logical" name="LVEL"> F  </i>
   <i type="int" name="KINTER">     0</i>
   <i name="CSHIFT">      0.10000000</i>
   <i name="OMEGAMAX">     -1.00000000</i>
   <i name="DEG_THRESHOLD">      0.00200000</i>
   <i name="RTIME">     -0.10000000</i>
   <i name="WPLASMAI">      0.00000000</i>
   <v name="DFIELD">      0.00000000      0.00000000      0.00000000</v>
   <v name="WPLASMA">      0.00000000      0.00000000      0.00000000      0.00000000      0.00000000      0.00000000      0.00000000      0.00000000      0.00000000</v>
  </separator>
  <separator name="orbital magnetization" >
   <i type="logical" name="NUCIND"> F  </i>
   <v name="MAGPOS">      0.00000000      0.00000000      0.00000000</v>
   <i type="logical" name="LNICSALL"> T  </i>
   <i type="logical" name="ORBITALMAG"> F  </i>
   <i type="logical" name="LMAGBLOCH"> F  </i>
   <i type="logical" name="LCHIMAG"> F  </i>
   <i type="logical" name="LGAUGE"> T  </i>
   <i type="int" name="MAGATOM">     0</i>
   <v name="MAGDIPOL">      0.00000000      0.00000000      0.00000000</v>
   <v name="AVECCONST">      0.00000000      0.00000000      0.00000000</v>
  </separator>
  <separator name="response functions" >
   <i type="logical" name="LADDER"> F  </i>
   <i type="logical" name="LRPAFORCE"> F  </i>
   <i type="logical" name="LFXC"> F  </i>
   <i type="logical" name="LHARTREE"> T  </i>
   <i type="int" name="IBSE">     0</i>
   <v type="int" name="KPOINT">    -1     0     0     0</v>
   <i type="logical" name="LTCTE"> F  </i>
   <i type="logical" name="LTETE"> F  </i>
   <i type="logical" name="LTRIPLET"> F  </i>
   <i type="logical" name="LFXCEPS"> F  </i>
   <i type="logical" name="LFXHEG"> F  </i>
   <i type="int" name="NATURALO">     2</i>
   <i type="logical" name="L2ORDER"> F  </i>
   <i type="logical" name="LMP2LT"> F  </i>
   <i type="logical" name="LUSEW"> F  </i>
   <i name="ENCUTGW">     -2.00000000</i>
   <i name="ENCUTGWSOFT">     -2.00000000</i>
   <i name="ENCUTLF">     -1.00000000</i>
   <i type="int" name="LMAXMP2">    -1</i>
   <i name="SCISSOR">      0.00000000</i>
   <i type="int" name="NOMEGA">     0</i>
   <i type="int" name="NOMEGAR">     0</i>
   <i type="int" name="NBANDSGW">    -1</i>
   <i type="int" name="NBANDSO">    -1</i>
   <i type="int" name="NBANDSV">    -1</i>
   <i type="int" name="NELM">   100</i>
   <i type="int" name="NELMHF">     1</i>
   <i type="int" name="DIM">     3</i>
   <i type="int" name="ANTIRES">     0</i>
   <i name="OMEGAMAX">    -30.00000000</i>
   <i name="OMEGAMIN">    -30.00000000</i>
   <i name="OMEGATL">   -200.00000000</i>
   <i type="int" name="OMEGAGRID">   140</i>
   <i name="CSHIFT">     -0.10000000</i>
   <i type="logical" name="SELFENERGY"> F  </i>
   <i type="logical" name="LSPECTRAL"> F  </i>
   <i type="logical" name="LSPECTRALGW"> F  </i>
   <i type="logical" name="LSINGLES"> F  </i>
   <i type="logical" name="LFERMIGW"> F  </i>
   <i type="logical" name="ODDONLYGW"> F  </i>
   <i type="logical" name="EVENONLYGW"> F  </i>
   <i type="int" name="NKREDLFX">     1</i>
   <i type="int" name="NKREDLFY">     1</i>
   <i type="int" name="NKREDLFZ">     1</i>
   <i type="int" name="MAXMEM">  2800</i>
   <i type="int" name="TELESCOPE">     0</i>
   <i type="int" name="TAUPAR">     1</i>
   <i type="int" name="OMEGAPAR">    -1</i>
   <i name="LAMBDA">      1.00000000</i>
  </separator>
  <separator name="External order field" >
   <i name="OFIELD_KAPPA">      0.00000000</i>
   <v name="OFIELD_K">      0.00000000      0.00000000      0.00000000</v>
   <i name="OFIELD_Q6_NEAR">      0.00000000</i>
   <i name="OFIELD_Q6_FAR">      0.00000000</i>
   <i name="OFIELD_A">      0.00000000</i>
  </separator>
 </parameters>
 <atominfo>
  <atoms>      96 </atoms>
  <types>       2 </types>
  <array name="atoms" >
   <dimension dim="1">ion</dimension>
   <field type="string">element</field>
   <field type="int">atomtype</field>
   <set>
    <rc><c>Ba</c><c>   1</c></rc>
    <rc><c>Ba</c><c>   1</c></rc>
    <rc><c>Ba</c><c>   1</c></rc>
    <rc><c>Ba</c><c>   1</c></rc>
    <rc><c>Ba</c><c>   1</c></rc>
    <rc><c>Ba</c><c>   1</c></rc>
    <rc><c>Ba</c><c>   1</c></rc>
    <rc><c>Ba</c><c>   1</c></rc>
    <rc><c>Ba</c><c>   1</c></rc>
    <rc><c>Ba</c><c>   1</c></rc>
    <rc><c>Ba</c><c>   1</c></rc>
    <rc><c>Ba</c><c>   1</c></rc>
    <rc><c>Ba</c><c>   1</c></rc>
    <rc><c>Ba</c><c>   1</c></rc>
    <rc><c>Ba</c><c>   1</c></rc>
    <rc><c>Ba</c><c>   1</c></rc>
    <rc><c>Ba</c><c>   1</c></rc>
    <rc><c>Ba</c><c>   1</c></rc>
    <rc><c>Ba</c><c>   1</c></rc>
    <rc><c>Ba</c><c>   1</c></rc>
    <rc><c>Ba</c><c>   1</c></rc>
    <rc><c>Ba</c><c>   1</c></rc>
    <rc><c>Ba</c><c>   1</c></rc>
    <rc><c>Ba</c><c>   1</c></rc>
    <rc><c>Ba</c><c>   1</c></rc>
    <rc><c>Ba</c><c>   1</c></rc>
    <rc><c>Ba</c><c>   1</c></rc>
    <rc><c>Ba</c><c>   1</c></rc>
    <rc><c>Ba</c><c>   1</c></rc>
    <rc><c>Ba</c><c>   1</c></rc>
    <rc><c>Ba</c><c>   1</c></rc>
    <rc><c>Ba</c><c>   1</c></rc>
    <rc><c>Si</c><c>   2</c></rc>
    <rc><c>Si</c><c>   2</c></rc>
    <rc><c>Si</c><c>   2</c></rc>
    <rc><c>Si</c><c>   2</c></rc>
    <rc><c>Si</c><c>   2</c></rc>
    <rc><c>Si</c><c>   2</c></rc>
    <rc><c>Si</c><c>   2</c></rc>
    <rc><c>Si</c><c>   2</c></rc>
    <rc><c>Si</c><c>   2</c></rc>
    <rc><c>Si</c><c>   2</c></rc>
    <rc><c>Si</c><c>   2</c></rc>
    <rc><c>Si</c><c>   2</c></rc>
    <rc><c>Si</c><c>   2</c></rc>
    <rc><c>Si</c><c>   2</c></rc>
    <rc><c>Si</c><c>   2</c></rc>
    <rc><c>Si</c><c>   2</c></rc>
    <rc><c>Si</c><c>   2</c></rc>
    <rc><c>Si</c><c>   2</c></rc>
    <rc><c>Si</c><c>   2</c></rc>
    <rc><c>Si</c><c>   2</c></rc>
    <rc><c>Si</c><c>   2</c></rc>
    <rc><c>Si</c><c>   2</c></rc>
    <rc><c>Si</c><c>   2</c></rc>
    <rc><c>Si</c><c>   2</c></rc>
    <rc><c>Si</c><c>   2</c></rc>
    <rc><c>Si</c><c>   2</c></rc>
    <rc><c>Si</c><c>   2</c></rc>
    <rc><c>Si</c><c>   2</c></rc>
    <rc><c>Si</c><c>   2</c></rc>
    <rc><c>Si</c><c>   2</c></rc>
    <rc><c>Si</c><c>   2</c></rc>
    <rc><c>Si</c><c>   2</c></rc>
    <rc><c>Si</c><c>   2</c></rc>
    <rc><c>Si</c><c>   2</c></rc>
    <rc><c>Si</c><c>   2</c></rc>
    <rc><c>Si</c><c>   2</c></rc>
    <rc><c>Si</c><c>   2</c></rc>
    <rc><c>Si</c><c>   2</c></rc>
    <rc><c>Si</c><c>   2</c></rc>
    <rc><c>Si</c><c>   2</c></rc>
    <rc><c>Si</c><c>   2</c></rc>
    <rc><c>Si</c><c>   2</c></rc>
    <rc><c>Si</c><c>   2</c></rc>
    <rc><c>Si</c><c>   2</c></rc>
    <rc><c>Si</c><c>   2</c></rc>
    <rc><c>Si</c><c>   2</c></rc>
    <rc><c>Si</c><c>   2</c></rc>
    <rc><c>Si</c><c>   2</c></rc>
    <rc><c>Si</c><c>   2</c></rc>
    <rc><c>Si</c><c>   2</c></rc>
    <rc><c>Si</c><c>   2</c></rc>
    <rc><c>Si</c><c>   2</c></rc>
    <rc><c>Si</c><c>   2</c></rc>
    <rc><c>Si</c><c>   2</c></rc>
    <rc><c>Si</c><c>   2</c></rc>
    <rc><c>Si</c><c>   2</c></rc>
    <rc><c>Si</c><c>   2</c></rc>
    <rc><c>Si</c><c>   2</c></rc>
    <rc><c>Si</c><c>   2</c></rc>
    <rc><c>Si</c><c>   2</c></rc>
    <rc><c>Si</c><c>   2</c></rc>
    <rc><c>Si</c><c>   2</c></rc>
    <rc><c>Si</c><c>   2</c></rc>
    <rc><c>Si</c><c>   2</c></rc>
   </set>
  </array>
  <array name="atomtypes" >
   <dimension dim="1">type</dimension>
   <field type="int">atomspertype</field>
   <field type="string">element</field>
   <field>mass</field>
   <field>valence</field>
   <field type="string">pseudopotential</field>
   <set>
    <rc><c>  32</c><c>Ba</c><c>    137.32700000</c><c>     10.00000000</c><c> PAW_PBE Ba_sv 06Sep2000                </c></rc>
    <rc><c>  64</c><c>Si</c><c>     28.08500000</c><c>      4.00000000</c><c> PAW_PBE Si 05Jan2001                   </c></rc>
   </set>
  </array>
 </atominfo>
 <structure name="initialpos" >
  <crystal>
   <varray name="basis" >
    <v>      52.31672188       0.00000000       0.05820743 </v>
    <v>       0.00000000       6.69151903       0.00000000 </v>
    <v>       0.01303019       0.00000000      11.46457676 </v>
   </varray>
   <i name="volume">   4013.49492551 </i>
   <varray name="rec_basis" >
    <v>       0.01911437       0.00000000      -0.00002172 </v>
    <v>       0.00000000       0.14944290       0.00000000 </v>
    <v>      -0.00009705       0.00000000       0.08722531 </v>
   </varray>
  </crystal>
  <varray name="positions" >
   <v>       0.01645945       0.25000000       0.70413702 </v>
   <v>       0.18428162       0.25000000       0.69262960 </v>
   <v>       0.35578705       0.25000000       0.69109931 </v>
   <v>       0.52745686       0.25000000       0.68941588 </v>
   <v>       0.17864372       0.75000002       0.31058412 </v>
   <v>       0.35031355       0.75000002       0.30890069 </v>
   <v>       0.52181900       0.75000002       0.30737040 </v>
   <v>       0.68964117       0.75000002       0.29586298 </v>
   <v>       0.09097575       0.75000002       0.19523830 </v>
   <v>       0.26437007       0.75000002       0.19233766 </v>
   <v>       0.43625304       0.75000002       0.18995630 </v>
   <v>       0.60719506       0.75000002       0.18920476 </v>
   <v>       0.09890556       0.25000000       0.81079522 </v>
   <v>       0.26984758       0.25000000       0.81004368 </v>
   <v>       0.44173051       0.25000000       0.80766232 </v>
   <v>       0.61512483       0.25000000       0.80476168 </v>
   <v>       0.04696589       0.75000002       0.91445844 </v>
   <v>       0.20923701       0.75000002       0.90820080 </v>
   <v>       0.38045821       0.75000002       0.90565698 </v>
   <v>       0.55281738       0.75000002       0.90400792 </v>
   <v>       0.15328322       0.25000000       0.09599206 </v>
   <v>       0.32564239       0.25000000       0.09434300 </v>
   <v>       0.49686359       0.25000000       0.09179918 </v>
   <v>       0.65913475       0.25000000       0.08554154 </v>
   <v>       0.06928526       0.25000000       0.39753886 </v>
   <v>       0.23980251       0.25000000       0.40689953 </v>
   <v>       0.41157814       0.25000000       0.40540447 </v>
   <v>       0.58254514       0.25000000       0.40211163 </v>
   <v>       0.12355546       0.75000002       0.59788841 </v>
   <v>       0.29452247       0.75000002       0.59459557 </v>
   <v>       0.46629809       0.75000002       0.59310051 </v>
   <v>       0.63681530       0.75000002       0.60246118 </v>
   <v>       0.04106712       0.07119144       0.14783193 </v>
   <v>       0.21410742       0.07010515       0.14794593 </v>
   <v>       0.38610413       0.06991698       0.14602126 </v>
   <v>       0.55670831       0.06948575       0.14320206 </v>
   <v>       0.14939228       0.93051424       0.85679792 </v>
   <v>       0.31999647       0.93008301       0.85397872 </v>
   <v>       0.49199316       0.92989484       0.85205405 </v>
   <v>       0.66503345       0.92880855       0.85216805 </v>
   <v>       0.06327806       0.92886810       0.64436468 </v>
   <v>       0.23411955       0.92997458       0.64753539 </v>
   <v>       0.40591091       0.93002723       0.64578436 </v>
   <v>       0.57765064       0.93084736       0.64419555 </v>
   <v>       0.12844993       0.06915263       0.35580445 </v>
   <v>       0.30018967       0.06997276       0.35421564 </v>
   <v>       0.47198107       0.07002541       0.35246461 </v>
   <v>       0.64282256       0.07113189       0.35563532 </v>
   <v>       0.14939228       0.56948576       0.85679792 </v>
   <v>       0.31999647       0.56991699       0.85397872 </v>
   <v>       0.49199316       0.57010516       0.85205405 </v>
   <v>       0.66503345       0.57119145       0.85216805 </v>
   <v>       0.04106712       0.42880855       0.14783193 </v>
   <v>       0.21410742       0.42989484       0.14794593 </v>
   <v>       0.38610413       0.43008301       0.14602126 </v>
   <v>       0.55670831       0.43051424       0.14320206 </v>
   <v>       0.12844993       0.43084736       0.35580445 </v>
   <v>       0.30018967       0.43002723       0.35421564 </v>
   <v>       0.47198107       0.42997458       0.35246461 </v>
   <v>       0.64282256       0.42886810       0.35563532 </v>
   <v>       0.06327806       0.57113190       0.64436468 </v>
   <v>       0.23411955       0.57002541       0.64753539 </v>
   <v>       0.40591091       0.56997277       0.64578436 </v>
   <v>       0.57765064       0.56915264       0.64419555 </v>
   <v>       0.02284750       0.75000002       0.62144067 </v>
   <v>       0.19573837       0.75000002       0.59329820 </v>
   <v>       0.36752063       0.75000002       0.59118899 </v>
   <v>       0.53940995       0.75000002       0.58939171 </v>
   <v>       0.16669067       0.25000000       0.41060829 </v>
   <v>       0.33857997       0.25000000       0.40881101 </v>
   <v>       0.51036221       0.25000000       0.40670180 </v>
   <v>       0.68325311       0.25000000       0.37855933 </v>
   <v>       0.08022724       0.25000000       0.08501960 </v>
   <v>       0.25256264       0.25000000       0.09326873 </v>
   <v>       0.42448549       0.25000000       0.09066405 </v>
   <v>       0.59480462       0.25000000       0.08831611 </v>
   <v>       0.11129596       0.75000002       0.91168387 </v>
   <v>       0.28161510       0.75000002       0.90933593 </v>
   <v>       0.45353798       0.75000002       0.90673125 </v>
   <v>       0.62587335       0.75000002       0.91498038 </v>
   <v>       0.04147393       0.25000000       0.96519994 </v>
   <v>       0.21490516       0.25000000       0.96605888 </v>
   <v>       0.38679522       0.25000000       0.96397232 </v>
   <v>       0.55805514       0.25000000       0.96058655 </v>
   <v>       0.14804547       0.75000002       0.03941346 </v>
   <v>       0.31930538       0.75000002       0.03602770 </v>
   <v>       0.49119544       0.75000002       0.03394113 </v>
   <v>       0.66462670       0.75000002       0.03480007 </v>
   <v>       0.05435043       0.75000002       0.46437577 </v>
   <v>       0.23347164       0.75000002       0.46552510 </v>
   <v>       0.40524161       0.75000002       0.46371851 </v>
   <v>       0.57702294       0.75000002       0.46203880 </v>
   <v>       0.12907766       0.25000000       0.53796112 </v>
   <v>       0.30085899       0.25000000       0.53628141 </v>
   <v>       0.47262896       0.25000000       0.53447481 </v>
   <v>       0.65175015       0.25000000       0.53562415 </v>
  </varray>
 </structure>
 <calculation>
  <scstep>
   <time name="dav">   82.85   83.05</time>
   <time name="total">   86.13   86.41</time>
   <energy>
    <i name="alphaZ">   1282.99832700 </i>
    <i name="ewald"> 143872.91588045 </i>
    <i name="hartreedc">-171368.51338168 </i>
    <i name="XCdc">    194.48422222 </i>
    <i name="pawpsdc">  15456.30723534 </i>
    <i name="pawaedc"> -14278.62662604 </i>
    <i name="eentropy">     -0.00172915 </i>
    <i name="bandstr">   -227.96980758 </i>
    <i name="atom">  29076.60581656 </i>
    <i name="e_fr_energy">   4008.19993712 </i>
    <i name="e_wo_entrp">   4008.20166627 </i>
    <i name="e_0_energy">   4008.20080169 </i>
   </energy>
  </scstep>
  <scstep>
   <time name="dav">  103.96  104.23</time>
   <time name="total">  103.97  104.24</time>
   <energy>
    <i name="e_fr_energy">    136.70805655 </i>
    <i name="e_wo_entrp">    136.70848679 </i>
    <i name="e_0_energy">    136.70827167 </i>
   </energy>
  </scstep>
  <scstep>
   <time name="dav">   97.72   97.96</time>
   <time name="total">   97.73   97.97</time>
   <energy>
    <i name="e_fr_energy">   -359.44889651 </i>
    <i name="e_wo_entrp">   -359.44889651 </i>
    <i name="e_0_energy">   -359.44889651 </i>
   </energy>
  </scstep>
  <scstep>
   <time name="dav">  109.14  109.41</time>
   <time name="total">  109.15  109.41</time>
   <energy>
    <i name="e_fr_energy">   -382.30042320 </i>
    <i name="e_wo_entrp">   -382.30042320 </i>
    <i name="e_0_energy">   -382.30042320 </i>
   </energy>
  </scstep>
  <scstep>
   <time name="dav">  117.47  117.76</time>
   <time name="total">  117.48  117.76</time>
   <energy>
    <i name="e_fr_energy">   -383.33188751 </i>
    <i name="e_wo_entrp">   -383.33188751 </i>
    <i name="e_0_energy">   -383.33188751 </i>
   </energy>
  </scstep>
  <scstep>
   <time name="dav">  107.43  107.69</time>
   <time name="total">  107.44  107.70</time>
   <energy>
    <i name="e_fr_energy">   -383.35787239 </i>
    <i name="e_wo_entrp">   -383.35787239 </i>
    <i name="e_0_energy">   -383.35787239 </i>
   </energy>
  </scstep>
  <scstep>
   <time name="dav">  116.33  116.61</time>
   <time name="total">  116.33  116.62</time>
   <energy>
    <i name="e_fr_energy">   -383.35906915 </i>
    <i name="e_wo_entrp">   -383.35906915 </i>
    <i name="e_0_energy">   -383.35906915 </i>
   </energy>
  </scstep>
  <scstep>
   <time name="dav">  105.51  105.77</time>
   <time name="total">  105.52  105.77</time>
   <energy>
    <i name="e_fr_energy">   -383.35911592 </i>
    <i name="e_wo_entrp">   -383.35911592 </i>
    <i name="e_0_energy">   -383.35911592 </i>
   </energy>
  </scstep>
  <scstep>
   <time name="dav">   95.44   95.70</time>
   <time name="total">   95.44   95.70</time>
   <energy>
    <i name="e_fr_energy">   -383.35911843 </i>
    <i name="e_wo_entrp">   -383.35911843 </i>
    <i name="e_0_energy">   -383.35911843 </i>
   </energy>
  </scstep>
  <scstep>
   <time name="dav">   69.08   69.25</time>
   <time name="total">   69.09   69.25</time>
   <energy>
    <i name="alphaZ">   1282.99832700 </i>
    <i name="ewald"> 143872.91588045 </i>
    <i name="hartreedc">-171368.51338168 </i>
    <i name="XCdc">    194.48422222 </i>
    <i name="pawpsdc">  15456.30723534 </i>
    <i name="pawaedc"> -14278.62662604 </i>
    <i name="eentropy">     -0.00000000 </i>
    <i name="bandstr">  -4619.53059240 </i>
    <i name="atom">  29076.60581656 </i>
    <i name="e_fr_energy">   -383.35911855 </i>
    <i name="e_wo_entrp">   -383.35911855 </i>
    <i name="e_0_energy">   -383.35911855 </i>
   </energy>
  </scstep>
  <structure>
   <crystal>
    <varray name="basis" >
     <v>      52.31672188       0.00000000       0.05820743 </v>
     <v>       0.00000000       6.69151903       0.00000000 </v>
     <v>       0.01303019       0.00000000      11.46457676 </v>
    </varray>
    <i name="volume">   4013.49492551 </i>
    <varray name="rec_basis" >
     <v>       0.01911437       0.00000000      -0.00002172 </v>
     <v>       0.00000000       0.14944290       0.00000000 </v>
     <v>      -0.00009705       0.00000000       0.08722531 </v>
    </varray>
   </crystal>
   <varray name="positions" >
    <v>       0.01645945       0.25000000       0.70413702 </v>
    <v>       0.18428162       0.25000000       0.69262960 </v>
    <v>       0.35578705       0.25000000       0.69109931 </v>
    <v>       0.52745686       0.25000000       0.68941588 </v>
    <v>       0.17864372       0.75000002       0.31058412 </v>
    <v>       0.35031355       0.75000002       0.30890069 </v>
    <v>       0.52181900       0.75000002       0.30737040 </v>
    <v>       0.68964117       0.75000002       0.29586298 </v>
    <v>       0.09097575       0.75000002       0.19523830 </v>
    <v>       0.26437007       0.75000002       0.19233766 </v>
    <v>       0.43625304       0.75000002       0.18995630 </v>
    <v>       0.60719506       0.75000002       0.18920476 </v>
    <v>       0.09890556       0.25000000       0.81079522 </v>
    <v>       0.26984758       0.25000000       0.81004368 </v>
    <v>       0.44173051       0.25000000       0.80766232 </v>
    <v>       0.61512483       0.25000000       0.80476168 </v>
    <v>       0.04696589       0.75000002       0.91445844 </v>
    <v>       0.20923701       0.75000002       0.90820080 </v>
    <v>       0.38045821       0.75000002       0.90565698 </v>
    <v>       0.55281738       0.75000002       0.90400792 </v>
    <v>       0.15328322       0.25000000       0.09599206 </v>
    <v>       0.32564239       0.25000000       0.09434300 </v>
    <v>       0.49686359       0.25000000       0.09179918 </v>
    <v>       0.65913475       0.25000000       0.08554154 </v>
    <v>       0.06928526       0.25000000       0.39753886 </v>
    <v>       0.23980251       0.25000000       0.40689953 </v>
    <v>       0.41157814       0.25000000       0.40540447 </v>
    <v>       0.58254514       0.25000000       0.40211163 </v>
    <v>       0.12355546       0.75000002       0.59788841 </v>
    <v>       0.29452247       0.75000002       0.59459557 </v>
    <v>       0.46629809       0.75000002       0.59310051 </v>
    <v>       0.63681530       0.75000002       0.60246118 </v>
    <v>       0.04106712       0.07119144       0.14783193 </v>
    <v>       0.21410742       0.07010515       0.14794593 </v>
    <v>       0.38610413       0.06991698       0.14602126 </v>
    <v>       0.55670831       0.06948575       0.14320206 </v>
    <v>       0.14939228       0.93051424       0.85679792 </v>
    <v>       0.31999647       0.93008301       0.85397872 </v>
    <v>       0.49199316       0.92989484       0.85205405 </v>
    <v>       0.66503345       0.92880855       0.85216805 </v>
    <v>       0.06327806       0.92886810       0.64436468 </v>
    <v>       0.23411955       0.92997458       0.64753539 </v>
    <v>       0.40591091       0.93002723       0.64578436 </v>
    <v>       0.57765064       0.93084736       0.64419555 </v>
    <v>       0.12844993       0.06915263       0.35580445 </v>
    <v>       0.30018967       0.06997276       0.35421564 </v>
    <v>       0.47198107       0.07002541       0.35246461 </v>
    <v>       0.64282256       0.07113189       0.35563532 </v>
    <v>       0.14939228       0.56948576       0.85679792 </v>
    <v>       0.31999647       0.56991699       0.85397872 </v>
    <v>       0.49199316       0.57010516       0.85205405 </v>
    <v>       0.66503345       0.57119145       0.85216805 </v>
    <v>       0.04106712       0.42880855       0.14783193 </v>
    <v>       0.21410742       0.42989484       0.14794593 </v>
    <v>       0.38610413       0.43008301       0.14602126 </v>
    <v>       0.55670831       0.43051424       0.14320206 </v>
    <v>       0.12844993       0.43084736       0.35580445 </v>
    <v>       0.30018967       0.43002723       0.35421564 </v>
    <v>       0.47198107       0.42997458       0.35246461 </v>
    <v>       0.64282256       0.42886810       0.35563532 </v>
    <v>       0.06327806       0.57113190       0.64436468 </v>
    <v>       0.23411955       0.57002541       0.64753539 </v>
    <v>       0.40591091       0.56997277       0.64578436 </v>
    <v>       0.57765064       0.56915264       0.64419555 </v>
    <v>       0.02284750       0.75000002       0.62144067 </v>
    <v>       0.19573837       0.75000002       0.59329820 </v>
    <v>       0.36752063       0.75000002       0.59118899 </v>
    <v>       0.53940995       0.75000002       0.58939171 </v>
    <v>       0.16669067       0.25000000       0.41060829 </v>
    <v>       0.33857997       0.25000000       0.40881101 </v>
    <v>       0.51036221       0.25000000       0.40670180 </v>
    <v>       0.68325311       0.25000000       0.37855933 </v>
    <v>       0.08022724       0.25000000       0.08501960 </v>
    <v>       0.25256264       0.25000000       0.09326873 </v>
    <v>       0.42448549       0.25000000       0.09066405 </v>
    <v>       0.59480462       0.25000000       0.08831611 </v>
    <v>       0.11129596       0.75000002       0.91168387 </v>
    <v>       0.28161510       0.75000002       0.90933593 </v>
    <v>       0.45353798       0.75000002       0.90673125 </v>
    <v>       0.62587335       0.75000002       0.91498038 </v>
    <v>       0.04147393       0.25000000       0.96519994 </v>
    <v>       0.21490516       0.25000000       0.96605888 </v>
    <v>       0.38679522       0.25000000       0.96397232 </v>
    <v>       0.55805514       0.25000000       0.96058655 </v>
    <v>       0.14804547       0.75000002       0.03941346 </v>
    <v>       0.31930538       0.75000002       0.03602770 </v>
    <v>       0.49119544       0.75000002       0.03394113 </v>
    <v>       0.66462670       0.75000002       0.03480007 </v>
    <v>       0.05435043       0.75000002       0.46437577 </v>
    <v>       0.23347164       0.75000002       0.46552510 </v>
    <v>       0.40524161       0.75000002       0.46371851 </v>
    <v>       0.57702294       0.75000002       0.46203880 </v>
    <v>       0.12907766       0.25000000       0.53796112 </v>
    <v>       0.30085899       0.25000000       0.53628141 </v>
    <v>       0.47262896       0.25000000       0.53447481 </v>
    <v>       0.65175015       0.25000000       0.53562415 </v>
   </varray>
  </structure>
  <varray name="forces" >
   <v>       0.02245888      -0.00000000      -0.03624618 </v>
   <v>       0.03042638      -0.00000000      -0.02020718 </v>
   <v>       0.03344201      -0.00000000      -0.01862130 </v>
   <v>       0.03966811      -0.00000000      -0.02248221 </v>
   <v>      -0.03966811      -0.00000000       0.02248221 </v>
   <v>      -0.03344201      -0.00000000       0.01862130 </v>
   <v>      -0.03042638      -0.00000000       0.02020718 </v>
   <v>      -0.02245888      -0.00000000       0.03624618 </v>
   <v>      -0.04796230      -0.00000000      -0.01987910 </v>
   <v>      -0.02762671      -0.00000000      -0.02826798 </v>
   <v>      -0.03373684      -0.00000000      -0.02404282 </v>
   <v>      -0.03793513      -0.00000000      -0.02504414 </v>
   <v>       0.03793513      -0.00000000       0.02504414 </v>
   <v>       0.03373684      -0.00000000       0.02404282 </v>
   <v>       0.02762671      -0.00000000       0.02826798 </v>
   <v>       0.04796230      -0.00000000       0.01987910 </v>
   <v>       0.01114317      -0.00000000      -0.00069420 </v>
   <v>       0.00711444      -0.00000000       0.02478563 </v>
   <v>       0.01012646      -0.00000000       0.02115617 </v>
   <v>       0.01743158      -0.00000000       0.03373945 </v>
   <v>      -0.01743158      -0.00000000      -0.03373945 </v>
   <v>      -0.01012646      -0.00000000      -0.02115617 </v>
   <v>      -0.00711444      -0.00000000      -0.02478563 </v>
   <v>      -0.01114317      -0.00000000       0.00069420 </v>
   <v>      -0.01245884      -0.00000000       0.03226049 </v>
   <v>      -0.00766903      -0.00000000       0.02030925 </v>
   <v>      -0.02410994      -0.00000000       0.02318215 </v>
   <v>      -0.01332016      -0.00000000       0.01962851 </v>
   <v>       0.01332016      -0.00000000      -0.01962851 </v>
   <v>       0.02410994      -0.00000000      -0.02318215 </v>
   <v>       0.00766903      -0.00000000      -0.02030925 </v>
   <v>       0.01245884      -0.00000000      -0.03226049 </v>
   <v>       0.02497385       0.01053606       0.00831351 </v>
   <v>       0.02642830       0.02655444      -0.00511788 </v>
   <v>       0.01905999       0.02988968      -0.00860198 </v>
   <v>       0.02227977       0.02586497      -0.00713729 </v>
   <v>      -0.02227977      -0.02586497       0.00713729 </v>
   <v>      -0.01905999      -0.02988968       0.00860198 </v>
   <v>      -0.02642830      -0.02655444       0.00511788 </v>
   <v>      -0.02497385      -0.01053606      -0.00831351 </v>
   <v>      -0.00948053      -0.03251914      -0.00465878 </v>
   <v>      -0.00761262      -0.02542976      -0.01138895 </v>
   <v>      -0.02070279      -0.02401853      -0.01380603 </v>
   <v>      -0.02319715      -0.02988575      -0.01276429 </v>
   <v>       0.02319715       0.02988575       0.01276429 </v>
   <v>       0.02070279       0.02401853       0.01380603 </v>
   <v>       0.00761262       0.02542976       0.01138895 </v>
   <v>       0.00948053       0.03251914       0.00465878 </v>
   <v>      -0.02227977       0.02586497       0.00713729 </v>
   <v>      -0.01905999       0.02988968       0.00860198 </v>
   <v>      -0.02642830       0.02655444       0.00511788 </v>
   <v>      -0.02497385       0.01053606      -0.00831351 </v>
   <v>       0.02497385      -0.01053606       0.00831351 </v>
   <v>       0.02642830      -0.02655444      -0.00511788 </v>
   <v>       0.01905999      -0.02988968      -0.00860198 </v>
   <v>       0.02227977      -0.02586497      -0.00713729 </v>
   <v>       0.02319715      -0.02988575       0.01276429 </v>
   <v>       0.02070279      -0.02401853       0.01380603 </v>
   <v>       0.00761262      -0.02542976       0.01138895 </v>
   <v>       0.00948053      -0.03251914       0.00465878 </v>
   <v>      -0.00948053       0.03251914      -0.00465878 </v>
   <v>      -0.00761262       0.02542976      -0.01138895 </v>
   <v>      -0.02070279       0.02401853      -0.01380603 </v>
   <v>      -0.02319715       0.02988575      -0.01276429 </v>
   <v>       0.03002165      -0.00000000       0.02013901 </v>
   <v>       0.01832905      -0.00000000       0.01587540 </v>
   <v>      -0.00392426      -0.00000000       0.01459645 </v>
   <v>      -0.00970532      -0.00000000       0.01896620 </v>
   <v>       0.00970532      -0.00000000      -0.01896620 </v>
   <v>       0.00392426      -0.00000000      -0.01459645 </v>
   <v>      -0.01832905      -0.00000000      -0.01587540 </v>
   <v>      -0.03002165      -0.00000000      -0.02013901 </v>
   <v>       0.02630781      -0.00000000      -0.00001671 </v>
   <v>       0.02213468      -0.00000000       0.01188157 </v>
   <v>       0.00187830      -0.00000000       0.01323091 </v>
   <v>       0.01910183      -0.00000000       0.00713537 </v>
   <v>      -0.01910183      -0.00000000      -0.00713537 </v>
   <v>      -0.00187830      -0.00000000      -0.01323091 </v>
   <v>      -0.02213468      -0.00000000      -0.01188157 </v>
   <v>      -0.02630781      -0.00000000       0.00001671 </v>
   <v>       0.00003369      -0.00000000       0.00596428 </v>
   <v>      -0.02396082      -0.00000000      -0.00325216 </v>
   <v>      -0.00936469      -0.00000000      -0.00811354 </v>
   <v>      -0.01741277      -0.00000000       0.00356565 </v>
   <v>       0.01741277      -0.00000000      -0.00356565 </v>
   <v>       0.00936469      -0.00000000       0.00811354 </v>
   <v>       0.02396082      -0.00000000       0.00325216 </v>
   <v>      -0.00003369      -0.00000000      -0.00596428 </v>
   <v>       0.00441520      -0.00000000      -0.00485889 </v>
   <v>       0.01348773      -0.00000000      -0.00072414 </v>
   <v>       0.01713276      -0.00000000      -0.00384995 </v>
   <v>       0.01952915      -0.00000000       0.00062890 </v>
   <v>      -0.01952915      -0.00000000      -0.00062890 </v>
   <v>      -0.01713276      -0.00000000       0.00384995 </v>
   <v>      -0.01348773      -0.00000000       0.00072414 </v>
   <v>      -0.00441520      -0.00000000       0.00485889 </v>
  </varray>
  <varray name="stress" >
   <v>      -1.44720232       0.00000000      -0.00832896 </v>
   <v>       0.00000000      -1.57256445       0.00000000 </v>
   <v>      -0.00832888       0.00000000      -1.73610506 </v>
  </varray>
  <energy>
   <i name="e_fr_energy">   -383.35911855 </i>
   <i name="e_wo_entrp">   -383.35911855 </i>
   <i name="e_0_energy">     -0.00000000 </i>
  </energy>
  <time name="totalsc"> 1252.90 1272.68</time>
  <eigenvalues>
   <array>
    <dimension dim="1">band</dimension>
    <dimension dim="2">kpoint</dimension>
    <dimension dim="3">spin</dimension>
    <field>eigene</field>
    <field>occ</field>
    <set>
     <set comment="spin 1">
      <set comment="kpoint 1">
       <r>  -27.2153    1.0000 </r>
       <r>  -27.2150    1.0000 </r>
       <r>  -26.2533    1.0000 </r>
       <r>  -26.2529    1.0000 </r>
       <r>  -26.2471    1.0000 </r>
       <r>  -26.2466    1.0000 </r>
       <r>  -26.2384    1.0000 </r>
       <r>  -26.2376    1.0000 </r>
       <r>  -26.1927    1.0000 </r>
       <r>  -26.1883    1.0000 </r>
       <r>  -26.1874    1.0000 </r>
       <r>  -26.1856    1.0000 </r>
       <r>  -26.1823    1.0000 </r>
       <r>  -26.1820    1.0000 </r>
       <r>  -26.1654    1.0000 </r>
       <r>  -26.1650    1.0000 </r>
       <r>  -26.1556    1.0000 </r>
       <r>  -26.1549    1.0000 </r>
       <r>  -26.1077    1.0000 </r>
       <r>  -26.1066    1.0000 </r>
       <r>  -26.1060    1.0000 </r>
       <r>  -26.1058    1.0000 </r>
       <r>  -26.1030    1.0000 </r>
       <r>  -26.1027    1.0000 </r>
       <r>  -26.1021    1.0000 </r>
       <r>  -26.1017    1.0000 </r>
       <r>  -26.0997    1.0000 </r>
       <r>  -26.0992    1.0000 </r>
       <r>  -26.0791    1.0000 </r>
       <r>  -26.0783    1.0000 </r>
       <r>  -26.0384    1.0000 </r>
       <r>  -26.0382    1.0000 </r>
       <r>  -12.5891    1.0000 </r>
       <r>  -12.5887    1.0000 </r>
       <r>  -12.5175    1.0000 </r>
       <r>  -12.5171    1.0000 </r>
       <r>  -12.4241    1.0000 </r>
       <r>  -12.4237    1.0000 </r>
       <r>  -11.8370    1.0000 </r>
       <r>  -11.8365    1.0000 </r>
       <r>  -11.7775    1.0000 </r>
       <r>  -11.7754    1.0000 </r>
       <r>  -11.7704    1.0000 </r>
       <r>  -11.7579    1.0000 </r>
       <r>  -11.7375    1.0000 </r>
       <r>  -11.7326    1.0000 </r>
       <r>  -11.7113    1.0000 </r>
       <r>  -11.7101    1.0000 </r>
       <r>  -11.7074    1.0000 </r>
       <r>  -11.7036    1.0000 </r>
       <r>  -11.6909    1.0000 </r>
       <r>  -11.6827    1.0000 </r>
       <r>  -11.6648    1.0000 </r>
       <r>  -11.6639    1.0000 </r>
       <r>  -11.6578    1.0000 </r>
       <r>  -11.6515    1.0000 </r>
       <r>  -11.6341    1.0000 </r>
       <r>  -11.6332    1.0000 </r>
       <r>  -11.6252    1.0000 </r>
       <r>  -11.6239    1.0000 </r>
       <r>  -11.6214    1.0000 </r>
       <r>  -11.6093    1.0000 </r>
       <r>  -11.6063    1.0000 </r>
       <r>  -11.6050    1.0000 </r>
       <r>  -11.6020    1.0000 </r>
       <r>  -11.5992    1.0000 </r>
       <r>  -11.5935    1.0000 </r>
       <r>  -11.5914    1.0000 </r>
       <r>  -11.5866    1.0000 </r>
       <r>  -11.5848    1.0000 </r>
       <r>  -11.5844    1.0000 </r>
       <r>  -11.5788    1.0000 </r>
       <r>  -11.5780    1.0000 </r>
       <r>  -11.5735    1.0000 </r>
       <r>  -11.5723    1.0000 </r>
       <r>  -11.5714    1.0000 </r>
       <r>  -11.5658    1.0000 </r>
       <r>  -11.5641    1.0000 </r>
       <r>  -11.5617    1.0000 </r>
       <r>  -11.5526    1.0000 </r>
       <r>  -11.5523    1.0000 </r>
       <r>  -11.5518    1.0000 </r>
       <r>  -11.5488    1.0000 </r>
       <r>  -11.5474    1.0000 </r>
       <r>  -11.5445    1.0000 </r>
       <r>  -11.5398    1.0000 </r>
       <r>  -11.5248    1.0000 </r>
       <r>  -11.5061    1.0000 </r>
       <r>  -11.5036    1.0000 </r>
       <r>  -11.4894    1.0000 </r>
       <r>  -11.4602    1.0000 </r>
       <r>  -11.4485    1.0000 </r>
       <r>  -11.4370    1.0000 </r>
       <r>  -11.4335    1.0000 </r>
       <r>  -11.4258    1.0000 </r>
       <r>  -11.4238    1.0000 </r>
       <r>  -11.4211    1.0000 </r>
       <r>  -11.4181    1.0000 </r>
       <r>  -11.4171    1.0000 </r>
       <r>  -11.4081    1.0000 </r>
       <r>  -11.4050    1.0000 </r>
       <r>  -11.4010    1.0000 </r>
       <r>  -11.4000    1.0000 </r>
       <r>  -11.3990    1.0000 </r>
       <r>  -11.3962    1.0000 </r>
       <r>  -11.3939    1.0000 </r>
       <r>  -11.3932    1.0000 </r>
       <r>  -11.3929    1.0000 </r>
       <r>  -11.3833    1.0000 </r>
       <r>  -11.3803    1.0000 </r>
       <r>  -11.3794    1.0000 </r>
       <r>  -11.3776    1.0000 </r>
       <r>  -11.3727    1.0000 </r>
       <r>  -11.3681    1.0000 </r>
       <r>  -11.3661    1.0000 </r>
       <r>  -11.3640    1.0000 </r>
       <r>  -11.3616    1.0000 </r>
       <r>  -11.3580    1.0000 </r>
       <r>  -11.3529    1.0000 </r>
       <r>  -11.3518    1.0000 </r>
       <r>  -11.3510    1.0000 </r>
       <r>  -11.3504    1.0000 </r>
       <r>  -11.3375    1.0000 </r>
       <r>  -11.3371    1.0000 </r>
       <r>  -11.3355    1.0000 </r>
       <r>  -11.3327    1.0000 </r>
       <r>  -11.3267    1.0000 </r>
       <r>  -11.3262    1.0000 </r>
       <r>   -9.4305    1.0000 </r>
       <r>   -9.3878    1.0000 </r>
       <r>   -9.3225    1.0000 </r>
       <r>   -9.2530    1.0000 </r>
       <r>   -9.1955    1.0000 </r>
       <r>   -9.1745    1.0000 </r>
       <r>   -9.1648    1.0000 </r>
       <r>   -9.1569    1.0000 </r>
       <r>   -9.1462    1.0000 </r>
       <r>   -9.1357    1.0000 </r>
       <r>   -9.1336    1.0000 </r>
       <r>   -9.1260    1.0000 </r>
       <r>   -9.1140    1.0000 </r>
       <r>   -9.1113    1.0000 </r>
       <r>   -8.7649    1.0000 </r>
       <r>   -8.7646    1.0000 </r>
       <r>   -4.8166    1.0000 </r>
       <r>   -4.8113    1.0000 </r>
       <r>   -4.7885    1.0000 </r>
       <r>   -4.7627    1.0000 </r>
       <r>   -4.7427    1.0000 </r>
       <r>   -4.7376    1.0000 </r>
       <r>   -4.6577    1.0000 </r>
       <r>   -4.6315    1.0000 </r>
       <r>   -4.5623    1.0000 </r>
       <r>   -4.5435    1.0000 </r>
       <r>   -4.4781    1.0000 </r>
       <r>   -4.4779    1.0000 </r>
       <r>   -4.4609    1.0000 </r>
       <r>   -4.4604    1.0000 </r>
       <r>   -4.4417    1.0000 </r>
       <r>   -4.4342    1.0000 </r>
       <r>   -4.4222    1.0000 </r>
       <r>   -4.3936    1.0000 </r>
       <r>   -4.3741    1.0000 </r>
       <r>   -4.3671    1.0000 </r>
       <r>   -4.3667    1.0000 </r>
       <r>   -4.3538    1.0000 </r>
       <r>   -4.3462    1.0000 </r>
       <r>   -4.3350    1.0000 </r>
       <r>   -4.3307    1.0000 </r>
       <r>   -4.3242    1.0000 </r>
       <r>   -4.3220    1.0000 </r>
       <r>   -4.3218    1.0000 </r>
       <r>   -4.2804    1.0000 </r>
       <r>   -4.2777    1.0000 </r>
       <r>   -4.2700    1.0000 </r>
       <r>   -4.2635    1.0000 </r>
       <r>   -4.2499    1.0000 </r>
       <r>   -4.2495    1.0000 </r>
       <r>   -4.2492    1.0000 </r>
       <r>   -4.2337    1.0000 </r>
       <r>   -4.2330    1.0000 </r>
       <r>   -4.2297    1.0000 </r>
       <r>   -4.2059    1.0000 </r>
       <r>   -4.1920    1.0000 </r>
       <r>   -4.1620    1.0000 </r>
       <r>   -4.1165    1.0000 </r>
       <r>   -4.0583    1.0000 </r>
       <r>   -4.0481    1.0000 </r>
       <r>   -3.9586    1.0000 </r>
       <r>   -3.9442    1.0000 </r>
       <r>   -3.7345    1.0000 </r>
       <r>   -3.7341    1.0000 </r>
       <r>   -2.1630    1.0000 </r>
       <r>   -2.0102    1.0000 </r>
       <r>   -1.8032    1.0000 </r>
       <r>   -1.5821    1.0000 </r>
       <r>   -1.3865    1.0000 </r>
       <r>   -1.2263    1.0000 </r>
       <r>   -1.1455    1.0000 </r>
       <r>   -1.1132    1.0000 </r>
       <r>   -1.0992    1.0000 </r>
       <r>   -1.0898    1.0000 </r>
       <r>   -1.0843    1.0000 </r>
       <r>   -1.0702    1.0000 </r>
       <r>   -1.0311    1.0000 </r>
       <r>   -0.9731    1.0000 </r>
       <r>   -0.9634    1.0000 </r>
       <r>   -0.9177    1.0000 </r>
       <r>   -0.7828    1.0000 </r>
       <r>   -0.7266    1.0000 </r>
       <r>   -0.6839    1.0000 </r>
       <r>   -0.6366    1.0000 </r>
       <r>   -0.5841    1.0000 </r>
       <r>   -0.5226    1.0000 </r>
       <r>   -0.4715    1.0000 </r>
       <r>   -0.4612    1.0000 </r>
       <r>   -0.4234    1.0000 </r>
       <r>   -0.3632    1.0000 </r>
       <r>   -0.3471    1.0000 </r>
       <r>   -0.3348    1.0000 </r>
       <r>   -0.3186    1.0000 </r>
       <r>   -0.3033    1.0000 </r>
       <r>   -0.2687    1.0000 </r>
       <r>   -0.2660    1.0000 </r>
       <r>   -0.2482    1.0000 </r>
       <r>   -0.2337    1.0000 </r>
       <r>   -0.2258    1.0000 </r>
       <r>   -0.2196    1.0000 </r>
       <r>   -0.1885    1.0000 </r>
       <r>   -0.1638    1.0000 </r>
       <r>   -0.1529    1.0000 </r>
       <r>   -0.1370    1.0000 </r>
       <r>   -0.1221    1.0000 </r>
       <r>   -0.0914    1.0000 </r>
       <r>   -0.0578    1.0000 </r>
       <r>   -0.0478    1.0000 </r>
       <r>   -0.0432    1.0000 </r>
       <r>   -0.0402    1.0000 </r>
       <r>   -0.0349    1.0000 </r>
       <r>    0.0192    1.0000 </r>
       <r>    0.0273    1.0000 </r>
       <r>    0.0529    1.0000 </r>
       <r>    0.0650    1.0000 </r>
       <r>    0.0659    1.0000 </r>
       <r>    0.1011    1.0000 </r>
       <r>    0.1308    1.0000 </r>
       <r>    0.1414    1.0000 </r>
       <r>    0.1880    1.0000 </r>
       <r>    0.2125    1.0000 </r>
       <r>    0.2299    1.0000 </r>
       <r>    0.2558    1.0000 </r>
       <r>    0.2602    1.0000 </r>
       <r>    0.2716    1.0000 </r>
       <r>    0.2876    1.0000 </r>
       <r>    0.2895    1.0000 </r>
       <r>    0.3081    1.0000 </r>
       <r>    0.3105    1.0000 </r>
       <r>    0.3457    1.0000 </r>
       <r>    0.3571    1.0000 </r>
       <r>    0.3592    1.0000 </r>
       <r>    0.3600    1.0000 </r>
       <r>    0.3611    1.0000 </r>
       <r>    0.3655    1.0000 </r>
       <r>    0.4190    1.0000 </r>
       <r>    0.4255    1.0000 </r>
       <r>    0.4823    1.0000 </r>
       <r>    0.5237    1.0000 </r>
       <r>    0.6393    1.0000 </r>
       <r>    0.6439    1.0000 </r>
       <r>    0.6879    1.0000 </r>
       <r>    0.6909    1.0000 </r>
       <r>    0.7185    1.0000 </r>
       <r>    0.7306    1.0000 </r>
       <r>    0.7416    1.0000 </r>
       <r>    0.7633    1.0000 </r>
       <r>    0.7868    1.0000 </r>
       <r>    0.8069    1.0000 </r>
       <r>    0.8178    1.0000 </r>
       <r>    0.8894    1.0000 </r>
       <r>    0.9318    1.0000 </r>
       <r>    0.9499    1.0000 </r>
       <r>    0.9617    1.0000 </r>
       <r>    0.9899    1.0000 </r>
       <r>    1.0188    1.0000 </r>
       <r>    1.0966    1.0000 </r>
       <r>    1.0970    1.0000 </r>
       <r>    1.1174    1.0000 </r>
       <r>    1.1398    1.0000 </r>
       <r>    2.3057    0.0000 </r>
       <r>    2.3245    0.0000 </r>
       <r>    2.3757    0.0000 </r>
       <r>    2.4113    0.0000 </r>
       <r>    2.4404    0.0000 </r>
       <r>    2.4636    0.0000 </r>
       <r>    2.5367    0.0000 </r>
       <r>    2.5799    0.0000 </r>
       <r>    2.5893    0.0000 </r>
       <r>    2.5909    0.0000 </r>
       <r>    2.5937    0.0000 </r>
       <r>    2.6131    0.0000 </r>
       <r>    2.6222    0.0000 </r>
       <r>    2.6594    0.0000 </r>
       <r>    2.6803    0.0000 </r>
       <r>    2.7274    0.0000 </r>
       <r>    2.7641    0.0000 </r>
       <r>    2.7989    0.0000 </r>
       <r>    2.8105    0.0000 </r>
       <r>    2.8430    0.0000 </r>
       <r>    2.8714    0.0000 </r>
       <r>    2.8756    0.0000 </r>
       <r>    2.9121    0.0000 </r>
       <r>    2.9864    0.0000 </r>
       <r>    3.0037    0.0000 </r>
       <r>    3.0159    0.0000 </r>
       <r>    3.1010    0.0000 </r>
       <r>    3.1080    0.0000 </r>
       <r>    3.1939    0.0000 </r>
       <r>    3.1950    0.0000 </r>
       <r>    3.2028    0.0000 </r>
       <r>    3.2336    0.0000 </r>
       <r>    3.2571    0.0000 </r>
       <r>    3.2716    0.0000 </r>
       <r>    3.3012    0.0000 </r>
       <r>    3.3801    0.0000 </r>
       <r>    3.4348    0.0000 </r>
       <r>    3.4785    0.0000 </r>
       <r>    3.5899    0.0000 </r>
       <r>    3.5982    0.0000 </r>
       <r>    3.6036    0.0000 </r>
       <r>    3.6642    0.0000 </r>
       <r>    3.6956    0.0000 </r>
       <r>    3.7287    0.0000 </r>
       <r>    3.7451    0.0000 </r>
       <r>    3.7500    0.0000 </r>
       <r>    3.7867    0.0000 </r>
       <r>    3.8241    0.0000 </r>
       <r>    3.8561    0.0000 </r>
       <r>    3.8599    0.0000 </r>
       <r>    3.8922    0.0000 </r>
       <r>    3.9128    0.0000 </r>
       <r>    3.9847    0.0000 </r>
       <r>    3.9957    0.0000 </r>
       <r>    4.0062    0.0000 </r>
       <r>    4.0150    0.0000 </r>
       <r>    4.0889    0.0000 </r>
       <r>    4.1113    0.0000 </r>
       <r>    4.1231    0.0000 </r>
       <r>    4.1533    0.0000 </r>
       <r>    4.1993    0.0000 </r>
       <r>    4.2884    0.0000 </r>
       <r>    4.3256    0.0000 </r>
       <r>    4.3690    0.0000 </r>
      </set>
      <set comment="kpoint 2">
       <r>  -27.2153    1.0000 </r>
       <r>  -27.2150    1.0000 </r>
       <r>  -26.2533    1.0000 </r>
       <r>  -26.2529    1.0000 </r>
       <r>  -26.2471    1.0000 </r>
       <r>  -26.2466    1.0000 </r>
       <r>  -26.2384    1.0000 </r>
       <r>  -26.2376    1.0000 </r>
       <r>  -26.1927    1.0000 </r>
       <r>  -26.1883    1.0000 </r>
       <r>  -26.1874    1.0000 </r>
       <r>  -26.1856    1.0000 </r>
       <r>  -26.1823    1.0000 </r>
       <r>  -26.1820    1.0000 </r>
       <r>  -26.1654    1.0000 </r>
       <r>  -26.1650    1.0000 </r>
       <r>  -26.1556    1.0000 </r>
       <r>  -26.1549    1.0000 </r>
       <r>  -26.1077    1.0000 </r>
       <r>  -26.1066    1.0000 </r>
       <r>  -26.1060    1.0000 </r>
       <r>  -26.1058    1.0000 </r>
       <r>  -26.1030    1.0000 </r>
       <r>  -26.1027    1.0000 </r>
       <r>  -26.1021    1.0000 </r>
       <r>  -26.1017    1.0000 </r>
       <r>  -26.0997    1.0000 </r>
       <r>  -26.0992    1.0000 </r>
       <r>  -26.0791    1.0000 </r>
       <r>  -26.0783    1.0000 </r>
       <r>  -26.0384    1.0000 </r>
       <r>  -26.0382    1.0000 </r>
       <r>  -12.5890    1.0000 </r>
       <r>  -12.5887    1.0000 </r>
       <r>  -12.5175    1.0000 </r>
       <r>  -12.5172    1.0000 </r>
       <r>  -12.4243    1.0000 </r>
       <r>  -12.4240    1.0000 </r>
       <r>  -11.8370    1.0000 </r>
       <r>  -11.8365    1.0000 </r>
       <r>  -11.7776    1.0000 </r>
       <r>  -11.7755    1.0000 </r>
       <r>  -11.7706    1.0000 </r>
       <r>  -11.7587    1.0000 </r>
       <r>  -11.7378    1.0000 </r>
       <r>  -11.7345    1.0000 </r>
       <r>  -11.7165    1.0000 </r>
       <r>  -11.7115    1.0000 </r>
       <r>  -11.7019    1.0000 </r>
       <r>  -11.7012    1.0000 </r>
       <r>  -11.6902    1.0000 </r>
       <r>  -11.6824    1.0000 </r>
       <r>  -11.6654    1.0000 </r>
       <r>  -11.6640    1.0000 </r>
       <r>  -11.6584    1.0000 </r>
       <r>  -11.6515    1.0000 </r>
       <r>  -11.6346    1.0000 </r>
       <r>  -11.6338    1.0000 </r>
       <r>  -11.6263    1.0000 </r>
       <r>  -11.6242    1.0000 </r>
       <r>  -11.6215    1.0000 </r>
       <r>  -11.6096    1.0000 </r>
       <r>  -11.6074    1.0000 </r>
       <r>  -11.6060    1.0000 </r>
       <r>  -11.6058    1.0000 </r>
       <r>  -11.6012    1.0000 </r>
       <r>  -11.5928    1.0000 </r>
       <r>  -11.5914    1.0000 </r>
       <r>  -11.5869    1.0000 </r>
       <r>  -11.5855    1.0000 </r>
       <r>  -11.5824    1.0000 </r>
       <r>  -11.5788    1.0000 </r>
       <r>  -11.5776    1.0000 </r>
       <r>  -11.5755    1.0000 </r>
       <r>  -11.5739    1.0000 </r>
       <r>  -11.5713    1.0000 </r>
       <r>  -11.5644    1.0000 </r>
       <r>  -11.5637    1.0000 </r>
       <r>  -11.5615    1.0000 </r>
       <r>  -11.5569    1.0000 </r>
       <r>  -11.5566    1.0000 </r>
       <r>  -11.5510    1.0000 </r>
       <r>  -11.5502    1.0000 </r>
       <r>  -11.5423    1.0000 </r>
       <r>  -11.5382    1.0000 </r>
       <r>  -11.5365    1.0000 </r>
       <r>  -11.5231    1.0000 </r>
       <r>  -11.5059    1.0000 </r>
       <r>  -11.5040    1.0000 </r>
       <r>  -11.4891    1.0000 </r>
       <r>  -11.4601    1.0000 </r>
       <r>  -11.4491    1.0000 </r>
       <r>  -11.4373    1.0000 </r>
       <r>  -11.4338    1.0000 </r>
       <r>  -11.4259    1.0000 </r>
       <r>  -11.4240    1.0000 </r>
       <r>  -11.4205    1.0000 </r>
       <r>  -11.4182    1.0000 </r>
       <r>  -11.4170    1.0000 </r>
       <r>  -11.4080    1.0000 </r>
       <r>  -11.4049    1.0000 </r>
       <r>  -11.4009    1.0000 </r>
       <r>  -11.4000    1.0000 </r>
       <r>  -11.3992    1.0000 </r>
       <r>  -11.3958    1.0000 </r>
       <r>  -11.3941    1.0000 </r>
       <r>  -11.3938    1.0000 </r>
       <r>  -11.3915    1.0000 </r>
       <r>  -11.3831    1.0000 </r>
       <r>  -11.3805    1.0000 </r>
       <r>  -11.3789    1.0000 </r>
       <r>  -11.3779    1.0000 </r>
       <r>  -11.3726    1.0000 </r>
       <r>  -11.3694    1.0000 </r>
       <r>  -11.3657    1.0000 </r>
       <r>  -11.3639    1.0000 </r>
       <r>  -11.3606    1.0000 </r>
       <r>  -11.3578    1.0000 </r>
       <r>  -11.3529    1.0000 </r>
       <r>  -11.3519    1.0000 </r>
       <r>  -11.3508    1.0000 </r>
       <r>  -11.3501    1.0000 </r>
       <r>  -11.3377    1.0000 </r>
       <r>  -11.3373    1.0000 </r>
       <r>  -11.3354    1.0000 </r>
       <r>  -11.3325    1.0000 </r>
       <r>  -11.3266    1.0000 </r>
       <r>  -11.3262    1.0000 </r>
       <r>   -9.4290    1.0000 </r>
       <r>   -9.3865    1.0000 </r>
       <r>   -9.3215    1.0000 </r>
       <r>   -9.2523    1.0000 </r>
       <r>   -9.1950    1.0000 </r>
       <r>   -9.1742    1.0000 </r>
       <r>   -9.1645    1.0000 </r>
       <r>   -9.1567    1.0000 </r>
       <r>   -9.1460    1.0000 </r>
       <r>   -9.1355    1.0000 </r>
       <r>   -9.1334    1.0000 </r>
       <r>   -9.1259    1.0000 </r>
       <r>   -9.1140    1.0000 </r>
       <r>   -9.1113    1.0000 </r>
       <r>   -8.7645    1.0000 </r>
       <r>   -8.7642    1.0000 </r>
       <r>   -4.8148    1.0000 </r>
       <r>   -4.8095    1.0000 </r>
       <r>   -4.7867    1.0000 </r>
       <r>   -4.7615    1.0000 </r>
       <r>   -4.7419    1.0000 </r>
       <r>   -4.7361    1.0000 </r>
       <r>   -4.6581    1.0000 </r>
       <r>   -4.6309    1.0000 </r>
       <r>   -4.5633    1.0000 </r>
       <r>   -4.5430    1.0000 </r>
       <r>   -4.4791    1.0000 </r>
       <r>   -4.4784    1.0000 </r>
       <r>   -4.4608    1.0000 </r>
       <r>   -4.4591    1.0000 </r>
       <r>   -4.4401    1.0000 </r>
       <r>   -4.4351    1.0000 </r>
       <r>   -4.4196    1.0000 </r>
       <r>   -4.3963    1.0000 </r>
       <r>   -4.3721    1.0000 </r>
       <r>   -4.3709    1.0000 </r>
       <r>   -4.3663    1.0000 </r>
       <r>   -4.3546    1.0000 </r>
       <r>   -4.3432    1.0000 </r>
       <r>   -4.3405    1.0000 </r>
       <r>   -4.3292    1.0000 </r>
       <r>   -4.3241    1.0000 </r>
       <r>   -4.3218    1.0000 </r>
       <r>   -4.3170    1.0000 </r>
[...]
       <r>   -25.2016     0.0000    64.0000 </r>
       <r>   -25.0856     0.0000    64.0000 </r>
       <r>   -24.9696     0.0000    64.0000 </r>
       <r>   -24.8536     0.0000    64.0000 </r>
       <r>   -24.7376     0.0000    64.0000 </r>
       <r>   -24.6217     0.0000    64.0000 </r>
       <r>   -24.5057     0.0000    64.0000 </r>
       <r>   -24.3897     0.0000    64.0000 </r>
       <r>   -24.2737     0.0000    64.0000 </r>
       <r>   -24.1578     0.0000    64.0000 </r>
       <r>   -24.0418     0.0000    64.0000 </r>
       <r>   -23.9258     0.0000    64.0000 </r>
       <r>   -23.8098     0.0000    64.0000 </r>
       <r>   -23.6939     0.0000    64.0000 </r>
       <r>   -23.5779     0.0000    64.0000 </r>
       <r>   -23.4619     0.0000    64.0000 </r>
       <r>   -23.3459     0.0000    64.0000 </r>
       <r>   -23.2300     0.0000    64.0000 </r>
       <r>   -23.1140     0.0000    64.0000 </r>
       <r>   -22.9980     0.0000    64.0000 </r>
       <r>   -22.8820     0.0000    64.0000 </r>
       <r>   -22.7661     0.0000    64.0000 </r>
       <r>   -22.6501     0.0000    64.0000 </r>
       <r>   -22.5341     0.0000    64.0000 </r>
       <r>   -22.4181     0.0000    64.0000 </r>
       <r>   -22.3021     0.0000    64.0000 </r>
       <r>   -22.1862     0.0000    64.0000 </r>
       <r>   -22.0702     0.0000    64.0000 </r>
       <r>   -21.9542     0.0000    64.0000 </r>
       <r>   -21.8382     0.0000    64.0000 </r>
       <r>   -21.7223     0.0000    64.0000 </r>
       <r>   -21.6063     0.0000    64.0000 </r>
       <r>   -21.4903     0.0000    64.0000 </r>
       <r>   -21.3743     0.0000    64.0000 </r>
       <r>   -21.2584     0.0000    64.0000 </r>
       <r>   -21.1424     0.0000    64.0000 </r>
       <r>   -21.0264     0.0000    64.0000 </r>
       <r>   -20.9104     0.0000    64.0000 </r>
       <r>   -20.7945     0.0000    64.0000 </r>
       <r>   -20.6785     0.0000    64.0000 </r>
       <r>   -20.5625     0.0000    64.0000 </r>
       <r>   -20.4465     0.0000    64.0000 </r>
       <r>   -20.3305     0.0000    64.0000 </r>
       <r>   -20.2146     0.0000    64.0000 </r>
       <r>   -20.0986     0.0000    64.0000 </r>
       <r>   -19.9826     0.0000    64.0000 </r>
       <r>   -19.8666     0.0000    64.0000 </r>
       <r>   -19.7507     0.0000    64.0000 </r>
       <r>   -19.6347     0.0000    64.0000 </r>
       <r>   -19.5187     0.0000    64.0000 </r>
       <r>   -19.4027     0.0000    64.0000 </r>
       <r>   -19.2868     0.0000    64.0000 </r>
       <r>   -19.1708     0.0000    64.0000 </r>
       <r>   -19.0548     0.0000    64.0000 </r>
       <r>   -18.9388     0.0000    64.0000 </r>
       <r>   -18.8229     0.0000    64.0000 </r>
       <r>   -18.7069     0.0000    64.0000 </r>
       <r>   -18.5909     0.0000    64.0000 </r>
       <r>   -18.4749     0.0000    64.0000 </r>
       <r>   -18.3589     0.0000    64.0000 </r>
       <r>   -18.2430     0.0000    64.0000 </r>
       <r>   -18.1270     0.0000    64.0000 </r>
       <r>   -18.0110     0.0000    64.0000 </r>
       <r>   -17.8950     0.0000    64.0000 </r>
       <r>   -17.7791     0.0000    64.0000 </r>
       <r>   -17.6631     0.0000    64.0000 </r>
       <r>   -17.5471     0.0000    64.0000 </r>
       <r>   -17.4311     0.0000    64.0000 </r>
       <r>   -17.3152     0.0000    64.0000 </r>
       <r>   -17.1992     0.0000    64.0000 </r>
       <r>   -17.0832     0.0000    64.0000 </r>
       <r>   -16.9672     0.0000    64.0000 </r>
       <r>   -16.8513     0.0000    64.0000 </r>
       <r>   -16.7353     0.0000    64.0000 </r>
       <r>   -16.6193     0.0000    64.0000 </r>
       <r>   -16.5033     0.0000    64.0000 </r>
       <r>   -16.3874     0.0000    64.0000 </r>
       <r>   -16.2714     0.0000    64.0000 </r>
       <r>   -16.1554     0.0000    64.0000 </r>
       <r>   -16.0394     0.0000    64.0000 </r>
       <r>   -15.9234     0.0000    64.0000 </r>
       <r>   -15.8075     0.0000    64.0000 </r>
       <r>   -15.6915     0.0000    64.0000 </r>
       <r>   -15.5755     0.0000    64.0000 </r>
       <r>   -15.4595     0.0000    64.0000 </r>
       <r>   -15.3436     0.0000    64.0000 </r>
       <r>   -15.2276     0.0000    64.0000 </r>
       <r>   -15.1116     0.0000    64.0000 </r>
       <r>   -14.9956     0.0000    64.0000 </r>
       <r>   -14.8797     0.0000    64.0000 </r>
       <r>   -14.7637     0.0000    64.0000 </r>
       <r>   -14.6477     0.0000    64.0000 </r>
       <r>   -14.5317     0.0000    64.0000 </r>
       <r>   -14.4158     0.0000    64.0000 </r>
       <r>   -14.2998     0.0000    64.0000 </r>
       <r>   -14.1838     0.0000    64.0000 </r>
       <r>   -14.0678     0.0000    64.0000 </r>
       <r>   -13.9518     0.0000    64.0000 </r>
       <r>   -13.8359     0.0000    64.0000 </r>
       <r>   -13.7199     0.0000    64.0000 </r>
       <r>   -13.6039     0.0000    64.0000 </r>
       <r>   -13.4879     0.0000    64.0000 </r>
       <r>   -13.3720     0.0000    64.0000 </r>
       <r>   -13.2560     0.0000    64.0000 </r>
       <r>   -13.1400     0.0000    64.0000 </r>
       <r>   -13.0240     0.0000    64.0000 </r>
       <r>   -12.9081     0.0000    64.0000 </r>
       <r>   -12.7921     0.0000    64.0000 </r>
       <r>   -12.6761     0.0000    64.0000 </r>
       <r>   -12.5601    34.4722    67.9980 </r>
       <r>   -12.4442    49.4267    73.7323 </r>
       <r>   -12.3282     0.0000    76.0000 </r>
       <r>   -12.2122     0.0000    76.0000 </r>
       <r>   -12.0962     0.0000    76.0000 </r>
       <r>   -11.9803     0.0000    76.0000 </r>
       <r>   -11.8643     0.0003    76.0000 </r>
       <r>   -11.7483   129.0586    92.9927 </r>
       <r>   -11.6323   235.4212   127.7033 </r>
       <r>   -11.5163   230.8637   167.5747 </r>
       <r>   -11.4004   230.7982   202.9421 </r>
       <r>   -11.2844   281.0903   255.9998 </r>
       <r>   -11.1684     0.0000   256.0000 </r>
       <r>   -11.0524     0.0000   256.0000 </r>
       <r>   -10.9365     0.0000   256.0000 </r>
       <r>   -10.8205     0.0000   256.0000 </r>
       <r>   -10.7045     0.0000   256.0000 </r>
       <r>   -10.5885     0.0000   256.0000 </r>
       <r>   -10.4726     0.0000   256.0000 </r>
       <r>   -10.3566     0.0000   256.0000 </r>
       <r>   -10.2406     0.0000   256.0000 </r>
       <r>   -10.1246     0.0000   256.0000 </r>
       <r>   -10.0087     0.0000   256.0000 </r>
       <r>    -9.8927     0.0000   256.0000 </r>
       <r>    -9.7767     0.0000   256.0000 </r>
       <r>    -9.6607     0.0000   256.0000 </r>
       <r>    -9.5447     0.0000   256.0000 </r>
       <r>    -9.4288     0.7926   256.0919 </r>
       <r>    -9.3128     9.5224   257.4794 </r>
       <r>    -9.1968    30.0746   261.7879 </r>
       <r>    -9.0808   147.1772   283.7191 </r>
       <r>    -8.9649     0.0000   284.0000 </r>
       <r>    -8.8489     0.0000   284.0000 </r>
       <r>    -8.7329    17.7336   286.0567 </r>
       <r>    -8.6169     0.0000   288.0000 </r>
       <r>    -8.5010     0.0000   288.0000 </r>
       <r>    -8.3850     0.0000   288.0000 </r>
       <r>    -8.2690     0.0000   288.0000 </r>
       <r>    -8.1530     0.0000   288.0000 </r>
       <r>    -8.0371     0.0000   288.0000 </r>
       <r>    -7.9211     0.0000   288.0000 </r>
       <r>    -7.8051     0.0000   288.0000 </r>
       <r>    -7.6891     0.0000   288.0000 </r>
       <r>    -7.5732     0.0000   288.0000 </r>
       <r>    -7.4572     0.0000   288.0000 </r>
       <r>    -7.3412     0.0000   288.0000 </r>
       <r>    -7.2252     0.0000   288.0000 </r>
       <r>    -7.1092     0.0000   288.0000 </r>
       <r>    -6.9933     0.0000   288.0000 </r>
       <r>    -6.8773     0.0000   288.0000 </r>
       <r>    -6.7613     0.0000   288.0000 </r>
       <r>    -6.6453     0.0000   288.0000 </r>
       <r>    -6.5294     0.0000   288.0000 </r>
       <r>    -6.4134     0.0000   288.0000 </r>
       <r>    -6.2974     0.0000   288.0000 </r>
       <r>    -6.1814     0.0000   288.0000 </r>
       <r>    -6.0655     0.0000   288.0000 </r>
       <r>    -5.9495     0.0000   288.0000 </r>
       <r>    -5.8335     0.0000   288.0000 </r>
       <r>    -5.7175     0.0000   288.0000 </r>
       <r>    -5.6016     0.0000   288.0000 </r>
       <r>    -5.4856     0.0000   288.0000 </r>
       <r>    -5.3696     0.0000   288.0000 </r>
       <r>    -5.2536     0.0000   288.0000 </r>
       <r>    -5.1376     0.0000   288.0000 </r>
       <r>    -5.0217     0.0000   288.0000 </r>
       <r>    -4.9057     0.0000   288.0000 </r>
       <r>    -4.7897    16.4705   289.9102 </r>
       <r>    -4.6737    73.3712   301.1843 </r>
       <r>    -4.5578    42.4656   308.8000 </r>
       <r>    -4.4418    40.1859   316.5356 </r>
       <r>    -4.3258   141.0267   337.5808 </r>
       <r>    -4.2098   134.9442   359.9753 </r>
       <r>    -4.0939    55.3181   371.1406 </r>
       <r>    -3.9779    14.4892   374.3304 </r>
       <r>    -3.8619    47.0310   381.6545 </r>
       <r>    -3.7459     7.7156   382.8948 </r>
       <r>    -3.6300     0.0000   384.0000 </r>
       <r>    -3.5140     0.0000   384.0000 </r>
       <r>    -3.3980     0.0000   384.0000 </r>
       <r>    -3.2820     0.0000   384.0000 </r>
       <r>    -3.1661     0.0000   384.0000 </r>
       <r>    -3.0501     0.0000   384.0000 </r>
       <r>    -2.9341     0.0000   384.0000 </r>
       <r>    -2.8181     0.0000   384.0000 </r>
       <r>    -2.7021     0.0000   384.0000 </r>
       <r>    -2.5862     0.0000   384.0000 </r>
       <r>    -2.4702     0.0000   384.0000 </r>
       <r>    -2.3542     0.0000   384.0000 </r>
       <r>    -2.2382     0.0000   384.0000 </r>
       <r>    -2.1223     1.7063   384.1979 </r>
       <r>    -2.0063     1.4149   384.4391 </r>
       <r>    -1.8903     1.9415   384.8502 </r>
       <r>    -1.7743     2.9542   385.3176 </r>
       <r>    -1.6584     2.5885   385.7752 </r>
       <r>    -1.5424     7.0205   386.7142 </r>
       <r>    -1.4264     7.3470   387.9771 </r>
       <r>    -1.3104    10.9601   389.6711 </r>
       <r>    -1.1945    13.0790   391.5419 </r>
       <r>    -1.0785    33.4388   397.6031 </r>
       <r>    -0.9625    42.0770   404.8049 </r>
       <r>    -0.8465    43.0997   411.6735 </r>
       <r>    -0.7305    37.1273   418.3809 </r>
       <r>    -0.6146    43.6781   426.2656 </r>
       <r>    -0.4986    33.5343   432.4892 </r>
       <r>    -0.3826    50.6485   440.9740 </r>
       <r>    -0.2666    75.7918   451.9651 </r>
       <r>    -0.1507    67.4836   464.2765 </r>
       <r>    -0.0347    88.8359   479.0779 </r>
       <r>     0.0813    70.4436   491.1948 </r>
       <r>     0.1973    60.7848   501.5746 </r>
       <r>     0.3132    59.7355   511.4279 </r>
       <r>     0.4292    96.6067   525.7541 </r>
       <r>     0.5452    38.1075   534.1446 </r>
       <r>     0.6612    44.3993   540.7743 </r>
       <r>     0.7771    58.1003   550.5633 </r>
       <r>     0.8931    46.7947   558.2771 </r>
       <r>     1.0091    46.0573   566.1166 </r>
       <r>     1.1251    51.8932   573.9934 </r>
       <r>     1.2410     2.5050   575.8155 </r>
       <r>     1.3570     0.0000   576.0000 </r>
       <r>     1.4730     0.0000   576.0000 </r>
       <r>     1.5890     0.0000   576.0000 </r>
       <r>     1.7050     0.0000   576.0000 </r>
       <r>     1.8209     0.0000   576.0000 </r>
       <r>     1.9369     0.0000   576.0000 </r>
       <r>     2.0529     0.8721   576.1011 </r>
       <r>     2.1689    22.3830   579.1209 </r>
       <r>     2.2848    28.8452   583.6454 </r>
       <r>     2.4008    35.0332   589.2130 </r>
       <r>     2.5168    36.1353   594.8158 </r>
       <r>     2.6328    52.3993   603.0271 </r>
       <r>     2.7487    46.9116   610.7906 </r>
       <r>     2.8647    48.2041   618.5405 </r>
       <r>     2.9807    42.2351   625.4733 </r>
       <r>     3.0967    45.6738   633.5721 </r>
       <r>     3.2126    39.6634   640.6500 </r>
       <r>     3.3286    48.9515   648.8272 </r>
       <r>     3.4446    43.7017   656.9434 </r>
       <r>     3.5606    38.5987   663.8515 </r>
       <r>     3.6766    44.2416   671.3810 </r>
       <r>     3.7925    53.8406   680.5942 </r>
       <r>     3.9085    59.4134   689.7405 </r>
       <r>     4.0245    41.0651   697.0126 </r>
       <r>     4.1405    23.6142   701.2387 </r>
       <r>     4.2564     9.9009   703.0983 </r>
       <r>     4.3724     3.3309   703.7863 </r>
       <r>     4.4884     0.2156   704.0000 </r>
       <r>     4.6044     0.0000   704.0000 </r>
       <r>     4.7203     0.0000   704.0000 </r>
       <r>     4.8363     0.0000   704.0000 </r>
       <r>     4.9523     0.0000   704.0000 </r>
       <r>     5.0683     0.0000   704.0000 </r>
       <r>     5.1842     0.0000   704.0000 </r>
       <r>     5.3002     0.0000   704.0000 </r>
       <r>     5.4162     0.0000   704.0000 </r>
       <r>     5.5322     0.0000   704.0000 </r>
       <r>     5.6481     0.0000   704.0000 </r>
       <r>     5.7641     0.0000   704.0000 </r>
       <r>     5.8801     0.0000   704.0000 </r>
       <r>     5.9961     0.0000   704.0000 </r>
      </set>
     </set>
    </array>
   </total>
  </dos>
 </calculation>
 <structure name="finalpos" >
  <crystal>
   <varray name="basis" >
    <v>      52.31672188       0.00000000       0.05820743 </v>
    <v>       0.00000000       6.69151903       0.00000000 </v>
    <v>       0.01303019       0.00000000      11.46457676 </v>
   </varray>
   <i name="volume">   4013.49492551 </i>
   <varray name="rec_basis" >
    <v>       0.01911437       0.00000000      -0.00002172 </v>
    <v>       0.00000000       0.14944290       0.00000000 </v>
    <v>      -0.00009705       0.00000000       0.08722531 </v>
   </varray>
  </crystal>
  <varray name="positions" >
   <v>       0.01645945       0.25000000       0.70413702 </v>
   <v>       0.18428162       0.25000000       0.69262960 </v>
   <v>       0.35578705       0.25000000       0.69109931 </v>
   <v>       0.52745686       0.25000000       0.68941588 </v>
   <v>       0.17864372       0.75000002       0.31058412 </v>
   <v>       0.35031355       0.75000002       0.30890069 </v>
   <v>       0.52181900       0.75000002       0.30737040 </v>
   <v>       0.68964117       0.75000002       0.29586298 </v>
   <v>       0.09097575       0.75000002       0.19523830 </v>
   <v>       0.26437007       0.75000002       0.19233766 </v>
   <v>       0.43625304       0.75000002       0.18995630 </v>
   <v>       0.60719506       0.75000002       0.18920476 </v>
   <v>       0.09890556       0.25000000       0.81079522 </v>
   <v>       0.26984758       0.25000000       0.81004368 </v>
   <v>       0.44173051       0.25000000       0.80766232 </v>
   <v>       0.61512483       0.25000000       0.80476168 </v>
   <v>       0.04696589       0.75000002       0.91445844 </v>
   <v>       0.20923701       0.75000002       0.90820080 </v>
   <v>       0.38045821       0.75000002       0.90565698 </v>
   <v>       0.55281738       0.75000002       0.90400792 </v>
   <v>       0.15328322       0.25000000       0.09599206 </v>
   <v>       0.32564239       0.25000000       0.09434300 </v>
   <v>       0.49686359       0.25000000       0.09179918 </v>
   <v>       0.65913475       0.25000000       0.08554154 </v>
   <v>       0.06928526       0.25000000       0.39753886 </v>
   <v>       0.23980251       0.25000000       0.40689953 </v>
   <v>       0.41157814       0.25000000       0.40540447 </v>
   <v>       0.58254514       0.25000000       0.40211163 </v>
   <v>       0.12355546       0.75000002       0.59788841 </v>
   <v>       0.29452247       0.75000002       0.59459557 </v>
   <v>       0.46629809       0.75000002       0.59310051 </v>
   <v>       0.63681530       0.75000002       0.60246118 </v>
   <v>       0.04106712       0.07119144       0.14783193 </v>
   <v>       0.21410742       0.07010515       0.14794593 </v>
   <v>       0.38610413       0.06991698       0.14602126 </v>
   <v>       0.55670831       0.06948575       0.14320206 </v>
   <v>       0.14939228       0.93051424       0.85679792 </v>
   <v>       0.31999647       0.93008301       0.85397872 </v>
   <v>       0.49199316       0.92989484       0.85205405 </v>
   <v>       0.66503345       0.92880855       0.85216805 </v>
   <v>       0.06327806       0.92886810       0.64436468 </v>
   <v>       0.23411955       0.92997458       0.64753539 </v>
   <v>       0.40591091       0.93002723       0.64578436 </v>
   <v>       0.57765064       0.93084736       0.64419555 </v>
   <v>       0.12844993       0.06915263       0.35580445 </v>
   <v>       0.30018967       0.06997276       0.35421564 </v>
   <v>       0.47198107       0.07002541       0.35246461 </v>
   <v>       0.64282256       0.07113189       0.35563532 </v>
   <v>       0.14939228       0.56948576       0.85679792 </v>
   <v>       0.31999647       0.56991699       0.85397872 </v>
   <v>       0.49199316       0.57010516       0.85205405 </v>
   <v>       0.66503345       0.57119145       0.85216805 </v>
   <v>       0.04106712       0.42880855       0.14783193 </v>
   <v>       0.21410742       0.42989484       0.14794593 </v>
   <v>       0.38610413       0.43008301       0.14602126 </v>
   <v>       0.55670831       0.43051424       0.14320206 </v>
   <v>       0.12844993       0.43084736       0.35580445 </v>
   <v>       0.30018967       0.43002723       0.35421564 </v>
   <v>       0.47198107       0.42997458       0.35246461 </v>
   <v>       0.64282256       0.42886810       0.35563532 </v>
   <v>       0.06327806       0.57113190       0.64436468 </v>
   <v>       0.23411955       0.57002541       0.64753539 </v>
   <v>       0.40591091       0.56997277       0.64578436 </v>
   <v>       0.57765064       0.56915264       0.64419555 </v>
   <v>       0.02284750       0.75000002       0.62144067 </v>
   <v>       0.19573837       0.75000002       0.59329820 </v>
   <v>       0.36752063       0.75000002       0.59118899 </v>
   <v>       0.53940995       0.75000002       0.58939171 </v>
   <v>       0.16669067       0.25000000       0.41060829 </v>
   <v>       0.33857997       0.25000000       0.40881101 </v>
   <v>       0.51036221       0.25000000       0.40670180 </v>
   <v>       0.68325311       0.25000000       0.37855933 </v>
   <v>       0.08022724       0.25000000       0.08501960 </v>
   <v>       0.25256264       0.25000000       0.09326873 </v>
   <v>       0.42448549       0.25000000       0.09066405 </v>
   <v>       0.59480462       0.25000000       0.08831611 </v>
   <v>       0.11129596       0.75000002       0.91168387 </v>
   <v>       0.28161510       0.75000002       0.90933593 </v>
   <v>       0.45353798       0.75000002       0.90673125 </v>
   <v>       0.62587335       0.75000002       0.91498038 </v>
   <v>       0.04147393       0.25000000       0.96519994 </v>
   <v>       0.21490516       0.25000000       0.96605888 </v>
   <v>       0.38679522       0.25000000       0.96397232 </v>
   <v>       0.55805514       0.25000000       0.96058655 </v>
   <v>       0.14804547       0.75000002       0.03941346 </v>
   <v>       0.31930538       0.75000002       0.03602770 </v>
   <v>       0.49119544       0.75000002       0.03394113 </v>
   <v>       0.66462670       0.75000002       0.03480007 </v>
   <v>       0.05435043       0.75000002       0.46437577 </v>
   <v>       0.23347164       0.75000002       0.46552510 </v>
   <v>       0.40524161       0.75000002       0.46371851 </v>
   <v>       0.57702294       0.75000002       0.46203880 </v>
   <v>       0.12907766       0.25000000       0.53796112 </v>
   <v>       0.30085899       0.25000000       0.53628141 </v>
   <v>       0.47262896       0.25000000       0.53447481 </v>
   <v>       0.65175015       0.25000000       0.53562415 </v>
  </varray>
 </structure>
</modeling>
