<?xml version="1.0" encoding="ISO-8859-1"?>
<modeling>
 <generator>
  <i name="program" type="string">vasp </i>
  <i name="version" type="string">5.4.4.18Apr17-6-g9f103f2a35  </i>
  <i name="subversion" type="string">(build Nov 21 2017 15:30:27) complex            parallel </i>
  <i name="platform" type="string">LinuxIFC </i>
  <i name="date" type="string">2021 03 17 </i>
  <i name="time" type="string">21:10:51 </i>
 </generator>
 <incar>
  <i type="string" name="PREC">normal</i>
  <i type="int" name="ICHARG">    11</i>
  <i type="int" name="NELM">   100</i>
  <i name="EDIFF">      0.00000100</i>
  <i name="EDIFFG">     -0.01000000</i>
  <i name="ENCUT">    500.00000000</i>
  <i name="POTIM">      0.30000000</i>
  <i type="string" name="LREAL"> Auto       ! Projection in reciprocal s</i>
  <i type="int" name="ISMEAR">     0</i>
  <i name="SIGMA">      0.01000000</i>
  <i type="logical" name="LWAVE"> T  </i>
  <i type="logical" name="LCHARG"> T  </i>
  <i type="logical" name="LASPH"> T  </i>
  <v type="int" name="KPOINT_BSE">    -1     0     0     0</v>
  <i type="int" name="NELM">   100</i>
  <i type="string" name="GGA"> MK</i>
  <i name="PARAM1">      0.12340000</i>
  <i name="PARAM2">      0.71135700</i>
  <i type="logical" name="LUSE_VDW"> T  </i>
  <i name="Zab_VDW">     -1.88670000</i>
  <i name="AGGAC">      0.00000000</i>
  <i type="logical" name="LASPH"> T  </i>
 </incar>
 <structure name="primitive_cell" >
  <crystal>
   <varray name="basis" >
    <v>      79.49604765       0.00000000       0.06876805 </v>
    <v>       0.00000000       6.71361409       0.00000000 </v>
    <v>       0.01025286       0.00000000      11.50249484 </v>
   </varray>
   <i name="volume">   6138.94330973 </i>
   <varray name="rec_basis" >
    <v>       0.01257925       0.00000000      -0.00001121 </v>
    <v>       0.00000000       0.14895107       0.00000000 </v>
    <v>      -0.00007521       0.00000000       0.08693773 </v>
   </varray>
  </crystal>
  <varray name="positions" >
   <v>       0.01354907       0.25000000      -0.29455323 </v>
   <v>       0.02985020       0.25000000      -0.03337250 </v>
   <v>       0.04430705      -0.42822902      -0.35329922 </v>
   <v>       0.04430705      -0.07177098      -0.35329922 </v>
   <v>       0.01766196      -0.24999998      -0.37501472 </v>
   <v>       0.03336780      -0.24999998      -0.08369464 </v>
   <v>       0.04812015       0.25000000       0.39906353 </v>
   <v>       0.06760537       0.25000000      -0.18730051 </v>
   <v>       0.03826722      -0.24999998       0.46744099 </v>
   <v>       0.02961507       0.42813296       0.14879319 </v>
   <v>       0.02961507       0.07186704       0.14879319 </v>
   <v>       0.05537658       0.25000000       0.08624211 </v>
   <v>       0.08737515       0.25000000      -0.46081456 </v>
   <v>       0.07565104      -0.24999998      -0.08623641 </v>
   <v>       0.08394925      -0.24999998      -0.40029511 </v>
   <v>       0.08702797       0.43026649       0.35765335 </v>
   <v>       0.08702797       0.06973350       0.35765335 </v>
   <v>       0.10072476      -0.42981931      -0.14107439 </v>
   <v>       0.10072476      -0.07018069      -0.14107439 </v>
   <v>       0.06237257      -0.24999998       0.19717033 </v>
   <v>       0.10320911       0.25000000       0.09764143 </v>
   <v>       0.11219256       0.25000000       0.41221971 </v>
   <v>       0.09988245      -0.24999998       0.04096925 </v>
   <v>       0.12362224       0.25000000      -0.30543814 </v>
   <v>       0.13114866      -0.24999998      -0.40526473 </v>
   <v>       0.11999344      -0.24999998       0.31200139 </v>
   <v>       0.14378245       0.25000000      -0.03158980 </v>
   <v>       0.14008124      -0.24999998      -0.08989468 </v>
   <v>       0.15639396      -0.42968785      -0.35092998 </v>
   <v>       0.15639396      -0.07031215      -0.35092998 </v>
   <v>       0.14324990       0.42947838       0.14967712 </v>
   <v>       0.14324990       0.07052161       0.14967712 </v>
   <v>       0.15602464      -0.24999998       0.46777226 </v>
   <v>       0.16007515       0.25000000       0.40857942 </v>
   <v>       0.16856644       0.25000000       0.09553478 </v>
   <v>       0.17978939       0.25000000      -0.18781878 </v>
   <v>       0.18743724      -0.24999998      -0.08739986 </v>
   <v>       0.17629993      -0.24999998       0.19533401 </v>
   <v>       0.19613460      -0.24999998      -0.40238786 </v>
   <v>       0.20017645       0.25000000      -0.46071056 </v>
   <v>       0.19983164       0.42963843       0.35786861 </v>
   <v>       0.19983164       0.07036156       0.35786861 </v>
   <v>       0.21267837      -0.42974271      -0.14271659 </v>
   <v>       0.21267837      -0.07025729      -0.14271659 </v>
   <v>       0.21229748      -0.24999998       0.03874857 </v>
   <v>       0.21632995       0.25000000       0.09778135 </v>
   <v>       0.22508201       0.25000000       0.41265631 </v>
   <v>       0.23625654       0.25000000      -0.30518254 </v>
   <v>      -0.20980638       0.25000000       0.37501472 </v>
   <v>       0.23272496      -0.24999998       0.31202588 </v>
   <v>      -0.20569348      -0.24999998       0.29455323 </v>
   <v>       0.24399157      -0.24999998      -0.40587603 </v>
   <v>      -0.22175952      -0.42813296      -0.14879321 </v>
   <v>      -0.22175952      -0.07186704      -0.14879321 </v>
   <v>      -0.22199461      -0.24999998       0.03337252 </v>
   <v>       0.25244764      -0.24999998      -0.09135473 </v>
   <v>      -0.22551221       0.25000000       0.08369462 </v>
   <v>      -0.23041162       0.25000000      -0.46744107 </v>
   <v>       0.25651619       0.25000000      -0.03261232 </v>
   <v>       0.25608467       0.42964888       0.14887216 </v>
   <v>       0.25608467       0.07035111       0.14887216 </v>
   <v>      -0.23645146       0.42822902       0.35329922 </v>
   <v>      -0.23645146       0.07177097       0.35329922 </v>
   <v>       0.26925284      -0.42958549      -0.35126227 </v>
   <v>       0.26925284      -0.07041451      -0.35126227 </v>
   <v>      -0.24026456      -0.24999998      -0.39906349 </v>
   <v>       0.26885327      -0.24999998       0.46724603 </v>
   <v>       0.27291396       0.25000000       0.40844299 </v>
   <v>      -0.24752097      -0.24999998      -0.08624213 </v>
   <v>      -0.25451701       0.25000000      -0.19717035 </v>
   <v>       0.28136513       0.25000000       0.09399518 </v>
   <v>       0.29262522       0.25000000      -0.18862943 </v>
   <v>      -0.25974979      -0.24999998       0.18730049 </v>
   <v>      -0.26779546       0.25000000       0.08623639 </v>
   <v>       0.28913334      -0.24999998       0.19406322 </v>
   <v>       0.30032190      -0.24999998      -0.08867314 </v>
   <v>      -0.27609369       0.25000000       0.40029515 </v>
   <v>      -0.27917237      -0.43026649      -0.35765335 </v>
   <v>      -0.27917237      -0.06973351      -0.35765335 </v>
   <v>      -0.27951961      -0.24999998       0.46081447 </v>
   <v>       0.30902148      -0.24999998      -0.40338488 </v>
   <v>       0.31312220       0.25000000      -0.46211243 </v>
   <v>       0.31269705       0.42973935       0.35638871 </v>
   <v>       0.31269705       0.07026064       0.35638871 </v>
   <v>      -0.29202689       0.25000000      -0.04096923 </v>
   <v>      -0.29535351      -0.24999998      -0.09764145 </v>
   <v>      -0.29286918       0.42981931       0.14107437 </v>
   <v>      -0.29286918       0.07018068       0.14107437 </v>
   <v>       0.32558551      -0.42966640      -0.14412810 </v>
   <v>       0.32558551      -0.07033360      -0.14412810 </v>
   <v>       0.32521528      -0.24999998       0.03730648 </v>
   <v>       0.32937044       0.25000000       0.09612572 </v>
   <v>      -0.30433700      -0.24999998      -0.41221971 </v>
   <v>      -0.31213783       0.25000000      -0.31200139 </v>
   <v>       0.33796397       0.25000000       0.41081160 </v>
   <v>       0.34918137       0.25000000      -0.30670576 </v>
   <v>      -0.31576666      -0.24999998       0.30543814 </v>
   <v>       0.34565738      -0.24999998       0.30999826 </v>
   <v>      -0.32329307       0.25000000       0.40526473 </v>
   <v>       0.35691768      -0.24999998      -0.40758135 </v>
   <v>      -0.33222564       0.25000000       0.08989466 </v>
   <v>      -0.33539434      -0.42947838      -0.14967714 </v>
   <v>      -0.33539434      -0.07052162      -0.14967714 </v>
   <v>      -0.33592685      -0.24999998       0.03158981 </v>
   <v>       0.36541678      -0.24999998      -0.09308080 </v>
   <v>       0.36958375       0.25000000      -0.03415260 </v>
   <v>       0.36920150       0.42963911       0.14738360 </v>
   <v>       0.36920150       0.07036088       0.14738360 </v>
   <v>      -0.34816903       0.25000000      -0.46777235 </v>
   <v>      -0.34853838       0.42968785       0.35092998 </v>
   <v>      -0.34853838       0.07031214       0.35092998 </v>
   <v>      -0.35221955      -0.24999998      -0.40857938 </v>
   <v>       0.38219700      -0.42953949      -0.35312319 </v>
   <v>       0.38219700      -0.07046051      -0.35312319 </v>
   <v>       0.38169916      -0.24999998       0.46528375 </v>
   <v>       0.38586758       0.25000000       0.40680836 </v>
   <v>      -0.36071082      -0.24999998      -0.09553480 </v>
   <v>      -0.36844437       0.25000000      -0.19533403 </v>
   <v>       0.39447133       0.25000000       0.09200151 </v>
   <v>       0.40567372       0.25000000      -0.19120869 </v>
   <v>      -0.37193381      -0.24999998       0.18781876 </v>
   <v>      -0.37958166       0.25000000       0.08739984 </v>
   <v>       0.40218185      -0.24999998       0.19120867 </v>
   <v>       0.41338424      -0.24999998      -0.09200153 </v>
   <v>      -0.38827899       0.25000000       0.40238790 </v>
   <v>      -0.39197603      -0.42963843      -0.35786861 </v>
   <v>      -0.39197603      -0.07036157      -0.35786861 </v>
   <v>      -0.39232085      -0.24999998       0.46071048 </v>
   <v>       0.42198797      -0.24999998      -0.40680832 </v>
   <v>       0.42615641       0.25000000      -0.46528383 </v>
   <v>       0.42565860       0.42953949       0.35312319 </v>
   <v>       0.42565860       0.07046051       0.35312319 </v>
   <v>      -0.40444193       0.25000000      -0.03874856 </v>
   <v>      -0.40482278       0.42974271       0.14271657 </v>
   <v>      -0.40482278       0.07025728       0.14271657 </v>
   <v>      -0.40847436      -0.24999998      -0.09778137 </v>
   <v>       0.43865405      -0.42963911      -0.14738362 </v>
   <v>       0.43865405      -0.07036089      -0.14738362 </v>
   <v>       0.43827179      -0.24999998       0.03415262 </v>
   <v>       0.44243882       0.25000000       0.09308078 </v>
   <v>      -0.41722647      -0.24999998      -0.41265631 </v>
   <v>      -0.42486934       0.25000000      -0.31202588 </v>
   <v>       0.45093784       0.25000000       0.40758135 </v>
   <v>      -0.42840094      -0.24999998       0.30518254 </v>
   <v>       0.46219824       0.25000000      -0.30999826 </v>
   <v>       0.45867423      -0.24999998       0.30670576 </v>
   <v>      -0.43613597       0.25000000       0.40587603 </v>
   <v>       0.46989161      -0.24999998      -0.41081160 </v>
   <v>      -0.44459204       0.25000000       0.09135470 </v>
   <v>      -0.44822912      -0.42964888      -0.14887218 </v>
   <v>      -0.44822912      -0.07035112      -0.14887218 </v>
   <v>      -0.44866059      -0.24999998       0.03261233 </v>
   <v>       0.47848516      -0.24999998      -0.09612574 </v>
   <v>       0.48264034       0.25000000      -0.03730646 </v>
   <v>       0.48227009       0.42966640       0.14412808 </v>
   <v>       0.48227009       0.07033359       0.14412808 </v>
   <v>      -0.46099765       0.25000000      -0.46724611 </v>
   <v>      -0.46139724       0.42958549       0.35126227 </v>
   <v>      -0.46139724       0.07041450       0.35126227 </v>
   <v>      -0.46505836      -0.24999998      -0.40844295 </v>
   <v>       0.49515857      -0.42973935      -0.35638871 </v>
   <v>       0.49515857      -0.07026065      -0.35638871 </v>
   <v>       0.49473340      -0.24999998       0.46211235 </v>
   <v>       0.49883406       0.25000000       0.40338492 </v>
   <v>      -0.47350951      -0.24999998      -0.09399521 </v>
   <v>      -0.48127779       0.25000000      -0.19406324 </v>
   <v>      -0.49246633       0.25000000       0.08867312 </v>
   <v>      -0.48476962      -0.24999998       0.18862941 </v>
  </varray>
 </structure>
 <varray name="primitive_index" >
  <v type="int" >        1 </v>
  <v type="int" >      141 </v>
  <v type="int" >      106 </v>
  <v type="int" >       71 </v>
  <v type="int" >      113 </v>
  <v type="int" >       29 </v>
  <v type="int" >       43 </v>
  <v type="int" >       22 </v>
  <v type="int" >      155 </v>
  <v type="int" >       92 </v>
  <v type="int" >       57 </v>
  <v type="int" >      127 </v>
  <v type="int" >      162 </v>
  <v type="int" >      134 </v>
  <v type="int" >       50 </v>
  <v type="int" >       99 </v>
  <v type="int" >       78 </v>
  <v type="int" >       85 </v>
  <v type="int" >       64 </v>
  <v type="int" >       15 </v>
  <v type="int" >       36 </v>
  <v type="int" >      120 </v>
  <v type="int" >      148 </v>
  <v type="int" >        2 </v>
  <v type="int" >      114 </v>
  <v type="int" >        8 </v>
  <v type="int" >      142 </v>
  <v type="int" >       30 </v>
  <v type="int" >      107 </v>
  <v type="int" >       72 </v>
  <v type="int" >       93 </v>
  <v type="int" >       58 </v>
  <v type="int" >      156 </v>
  <v type="int" >       44 </v>
  <v type="int" >      128 </v>
  <v type="int" >       23 </v>
  <v type="int" >      135 </v>
  <v type="int" >       16 </v>
  <v type="int" >       51 </v>
  <v type="int" >      163 </v>
  <v type="int" >      100 </v>
  <v type="int" >       79 </v>
  <v type="int" >       86 </v>
  <v type="int" >       65 </v>
  <v type="int" >      149 </v>
  <v type="int" >       37 </v>
  <v type="int" >      121 </v>
  <v type="int" >        3 </v>
  <v type="int" >      126 </v>
  <v type="int" >        9 </v>
  <v type="int" >       14 </v>
  <v type="int" >      115 </v>
  <v type="int" >       91 </v>
  <v type="int" >       70 </v>
  <v type="int" >      154 </v>
  <v type="int" >       31 </v>
  <v type="int" >       42 </v>
  <v type="int" >      168 </v>
  <v type="int" >      143 </v>
  <v type="int" >       94 </v>
  <v type="int" >       59 </v>
  <v type="int" >      105 </v>
  <v type="int" >       84 </v>
  <v type="int" >      108 </v>
  <v type="int" >       73 </v>
  <v type="int" >       56 </v>
  <v type="int" >      157 </v>
  <v type="int" >       45 </v>
  <v type="int" >      140 </v>
  <v type="int" >       28 </v>
  <v type="int" >      129 </v>
  <v type="int" >       24 </v>
  <v type="int" >       21 </v>
  <v type="int" >      133 </v>
  <v type="int" >       17 </v>
  <v type="int" >      136 </v>
  <v type="int" >       49 </v>
  <v type="int" >      112 </v>
  <v type="int" >       77 </v>
  <v type="int" >      161 </v>
  <v type="int" >       52 </v>
  <v type="int" >      164 </v>
  <v type="int" >      101 </v>
  <v type="int" >       80 </v>
  <v type="int" >      147 </v>
  <v type="int" >       35 </v>
  <v type="int" >       98 </v>
  <v type="int" >       63 </v>
  <v type="int" >       87 </v>
  <v type="int" >       66 </v>
  <v type="int" >      150 </v>
  <v type="int" >       38 </v>
  <v type="int" >      119 </v>
  <v type="int" >        7 </v>
  <v type="int" >      122 </v>
  <v type="int" >        4 </v>
  <v type="int" >       13 </v>
  <v type="int" >       10 </v>
  <v type="int" >      125 </v>
  <v type="int" >      116 </v>
  <v type="int" >       41 </v>
  <v type="int" >       90 </v>
  <v type="int" >       69 </v>
  <v type="int" >      153 </v>
  <v type="int" >       32 </v>
  <v type="int" >      144 </v>
  <v type="int" >       95 </v>
  <v type="int" >       60 </v>
  <v type="int" >      167 </v>
  <v type="int" >      104 </v>
  <v type="int" >       83 </v>
  <v type="int" >       55 </v>
  <v type="int" >      109 </v>
  <v type="int" >       74 </v>
  <v type="int" >      158 </v>
  <v type="int" >       46 </v>
  <v type="int" >      139 </v>
  <v type="int" >       27 </v>
  <v type="int" >      130 </v>
  <v type="int" >       25 </v>
  <v type="int" >       20 </v>
  <v type="int" >      132 </v>
  <v type="int" >       18 </v>
  <v type="int" >      137 </v>
  <v type="int" >       48 </v>
  <v type="int" >      111 </v>
  <v type="int" >       76 </v>
  <v type="int" >      160 </v>
  <v type="int" >       53 </v>
  <v type="int" >      165 </v>
  <v type="int" >      102 </v>
  <v type="int" >       81 </v>
  <v type="int" >      146 </v>
  <v type="int" >       97 </v>
  <v type="int" >       62 </v>
  <v type="int" >       34 </v>
  <v type="int" >       88 </v>
  <v type="int" >       67 </v>
  <v type="int" >      151 </v>
  <v type="int" >       39 </v>
  <v type="int" >      118 </v>
  <v type="int" >        6 </v>
  <v type="int" >      123 </v>
  <v type="int" >       12 </v>
  <v type="int" >        5 </v>
  <v type="int" >       11 </v>
  <v type="int" >      124 </v>
  <v type="int" >      117 </v>
  <v type="int" >       40 </v>
  <v type="int" >       89 </v>
  <v type="int" >       68 </v>
  <v type="int" >      152 </v>
  <v type="int" >       33 </v>
  <v type="int" >      145 </v>
  <v type="int" >       96 </v>
  <v type="int" >       61 </v>
  <v type="int" >      166 </v>
  <v type="int" >      103 </v>
  <v type="int" >       82 </v>
  <v type="int" >       54 </v>
  <v type="int" >      110 </v>
  <v type="int" >       75 </v>
  <v type="int" >      159 </v>
  <v type="int" >       47 </v>
  <v type="int" >      138 </v>
  <v type="int" >       26 </v>
  <v type="int" >      131 </v>
  <v type="int" >       19 </v>
 </varray>
 <kpoints>
  <generation param="listgenerated">
   <i name="divisions" type="int">      20 </i>
   <v>       0.00000000       0.00000000       0.00000000 </v>
   <v>       0.00000000       0.50000000       0.00000000 </v>
   <v>       0.00000000       0.50000000       0.50000000 </v>
   <v>       0.00000000       0.00000000       0.50000000 </v>
   <v>       0.00000000       0.00000000       0.00000000 </v>
  </generation>
  <varray name="kpointlist" >
   <v>       0.00000000       0.00000000       0.00000000 </v>
   <v>       0.00000000       0.02631579       0.00000000 </v>
   <v>       0.00000000       0.05263158       0.00000000 </v>
   <v>       0.00000000       0.07894737       0.00000000 </v>
   <v>       0.00000000       0.10526316       0.00000000 </v>
   <v>       0.00000000       0.13157895       0.00000000 </v>
   <v>       0.00000000       0.15789474       0.00000000 </v>
   <v>       0.00000000       0.18421053       0.00000000 </v>
   <v>       0.00000000       0.21052632       0.00000000 </v>
   <v>       0.00000000       0.23684211       0.00000000 </v>
   <v>       0.00000000       0.26315789       0.00000000 </v>
   <v>       0.00000000       0.28947368       0.00000000 </v>
   <v>       0.00000000       0.31578947       0.00000000 </v>
   <v>       0.00000000       0.34210526       0.00000000 </v>
   <v>       0.00000000       0.36842105       0.00000000 </v>
   <v>       0.00000000       0.39473684       0.00000000 </v>
   <v>       0.00000000       0.42105263       0.00000000 </v>
   <v>       0.00000000       0.44736842       0.00000000 </v>
   <v>       0.00000000       0.47368421       0.00000000 </v>
   <v>       0.00000000       0.50000000       0.00000000 </v>
   <v>       0.00000000       0.50000000       0.00000000 </v>
   <v>       0.00000000       0.50000000       0.02631579 </v>
   <v>       0.00000000       0.50000000       0.05263158 </v>
   <v>       0.00000000       0.50000000       0.07894737 </v>
   <v>       0.00000000       0.50000000       0.10526316 </v>
   <v>       0.00000000       0.50000000       0.13157895 </v>
   <v>       0.00000000       0.50000000       0.15789474 </v>
   <v>       0.00000000       0.50000000       0.18421053 </v>
   <v>       0.00000000       0.50000000       0.21052632 </v>
   <v>       0.00000000       0.50000000       0.23684211 </v>
   <v>       0.00000000       0.50000000       0.26315789 </v>
   <v>       0.00000000       0.50000000       0.28947368 </v>
   <v>       0.00000000       0.50000000       0.31578947 </v>
   <v>       0.00000000       0.50000000       0.34210526 </v>
   <v>       0.00000000       0.50000000       0.36842105 </v>
   <v>       0.00000000       0.50000000       0.39473684 </v>
   <v>       0.00000000       0.50000000       0.42105263 </v>
   <v>       0.00000000       0.50000000       0.44736842 </v>
   <v>       0.00000000       0.50000000       0.47368421 </v>
   <v>       0.00000000       0.50000000       0.50000000 </v>
   <v>       0.00000000       0.50000000       0.50000000 </v>
   <v>       0.00000000       0.47368421       0.50000000 </v>
   <v>       0.00000000       0.44736842       0.50000000 </v>
   <v>       0.00000000       0.42105263       0.50000000 </v>
   <v>       0.00000000       0.39473684       0.50000000 </v>
   <v>       0.00000000       0.36842105       0.50000000 </v>
   <v>       0.00000000       0.34210526       0.50000000 </v>
   <v>       0.00000000       0.31578947       0.50000000 </v>
   <v>       0.00000000       0.28947368       0.50000000 </v>
   <v>       0.00000000       0.26315789       0.50000000 </v>
   <v>       0.00000000       0.23684211       0.50000000 </v>
   <v>       0.00000000       0.21052632       0.50000000 </v>
   <v>       0.00000000       0.18421053       0.50000000 </v>
   <v>       0.00000000       0.15789474       0.50000000 </v>
   <v>       0.00000000       0.13157895       0.50000000 </v>
   <v>       0.00000000       0.10526316       0.50000000 </v>
   <v>       0.00000000       0.07894737       0.50000000 </v>
   <v>       0.00000000       0.05263158       0.50000000 </v>
   <v>       0.00000000       0.02631579       0.50000000 </v>
   <v>       0.00000000       0.00000000       0.50000000 </v>
   <v>       0.00000000       0.00000000       0.50000000 </v>
   <v>       0.00000000       0.00000000       0.47368421 </v>
   <v>       0.00000000       0.00000000       0.44736842 </v>
   <v>       0.00000000       0.00000000       0.42105263 </v>
   <v>       0.00000000       0.00000000       0.39473684 </v>
   <v>       0.00000000       0.00000000       0.36842105 </v>
   <v>       0.00000000       0.00000000       0.34210526 </v>
   <v>       0.00000000       0.00000000       0.31578947 </v>
   <v>       0.00000000       0.00000000       0.28947368 </v>
   <v>       0.00000000       0.00000000       0.26315789 </v>
   <v>       0.00000000       0.00000000       0.23684211 </v>
   <v>       0.00000000       0.00000000       0.21052632 </v>
   <v>       0.00000000       0.00000000       0.18421053 </v>
   <v>       0.00000000       0.00000000       0.15789474 </v>
   <v>       0.00000000       0.00000000       0.13157895 </v>
   <v>       0.00000000       0.00000000       0.10526316 </v>
   <v>       0.00000000       0.00000000       0.07894737 </v>
   <v>       0.00000000       0.00000000       0.05263158 </v>
   <v>       0.00000000       0.00000000       0.02631579 </v>
   <v>       0.00000000       0.00000000       0.00000000 </v>
  </varray>
  <varray name="weights" >
   <v>       0.01250000 </v>
   <v>       0.01250000 </v>
   <v>       0.01250000 </v>
   <v>       0.01250000 </v>
   <v>       0.01250000 </v>
   <v>       0.01250000 </v>
   <v>       0.01250000 </v>
   <v>       0.01250000 </v>
   <v>       0.01250000 </v>
   <v>       0.01250000 </v>
   <v>       0.01250000 </v>
   <v>       0.01250000 </v>
   <v>       0.01250000 </v>
   <v>       0.01250000 </v>
   <v>       0.01250000 </v>
   <v>       0.01250000 </v>
   <v>       0.01250000 </v>
   <v>       0.01250000 </v>
   <v>       0.01250000 </v>
   <v>       0.01250000 </v>
   <v>       0.01250000 </v>
   <v>       0.01250000 </v>
   <v>       0.01250000 </v>
   <v>       0.01250000 </v>
   <v>       0.01250000 </v>
   <v>       0.01250000 </v>
   <v>       0.01250000 </v>
   <v>       0.01250000 </v>
   <v>       0.01250000 </v>
   <v>       0.01250000 </v>
   <v>       0.01250000 </v>
   <v>       0.01250000 </v>
   <v>       0.01250000 </v>
   <v>       0.01250000 </v>
   <v>       0.01250000 </v>
   <v>       0.01250000 </v>
   <v>       0.01250000 </v>
   <v>       0.01250000 </v>
   <v>       0.01250000 </v>
   <v>       0.01250000 </v>
   <v>       0.01250000 </v>
   <v>       0.01250000 </v>
   <v>       0.01250000 </v>
   <v>       0.01250000 </v>
   <v>       0.01250000 </v>
   <v>       0.01250000 </v>
   <v>       0.01250000 </v>
   <v>       0.01250000 </v>
   <v>       0.01250000 </v>
   <v>       0.01250000 </v>
   <v>       0.01250000 </v>
   <v>       0.01250000 </v>
   <v>       0.01250000 </v>
   <v>       0.01250000 </v>
   <v>       0.01250000 </v>
   <v>       0.01250000 </v>
   <v>       0.01250000 </v>
   <v>       0.01250000 </v>
   <v>       0.01250000 </v>
   <v>       0.01250000 </v>
   <v>       0.01250000 </v>
   <v>       0.01250000 </v>
   <v>       0.01250000 </v>
   <v>       0.01250000 </v>
   <v>       0.01250000 </v>
   <v>       0.01250000 </v>
   <v>       0.01250000 </v>
   <v>       0.01250000 </v>
   <v>       0.01250000 </v>
   <v>       0.01250000 </v>
   <v>       0.01250000 </v>
   <v>       0.01250000 </v>
   <v>       0.01250000 </v>
   <v>       0.01250000 </v>
   <v>       0.01250000 </v>
   <v>       0.01250000 </v>
   <v>       0.01250000 </v>
   <v>       0.01250000 </v>
   <v>       0.01250000 </v>
   <v>       0.01250000 </v>
  </varray>
 </kpoints>
 <parameters>
  <separator name="general" >
   <i type="string" name="SYSTEM">unknown system</i>
   <i type="logical" name="LCOMPAT"> F  </i>
  </separator>
  <separator name="electronic" >
   <i type="string" name="PREC">normal</i>
   <i name="ENMAX">    500.00000000</i>
   <i name="ENAUG">    351.16500000</i>
   <i name="EDIFF">      0.00000100</i>
   <i type="int" name="IALGO">    38</i>
   <i type="int" name="IWAVPR">    10</i>
   <i type="int" name="NBANDS">   608</i>
   <i name="NELECT">   1008.00000000</i>
   <i type="int" name="TURBO">     0</i>
   <i type="int" name="IRESTART">     0</i>
   <i type="int" name="NREBOOT">     0</i>
   <i type="int" name="NMIN">     0</i>
   <i name="EREF">      0.00000000</i>
   <separator name="electronic smearing" >
    <i type="int" name="ISMEAR">     0</i>
    <i name="SIGMA">      0.01000000</i>
    <i name="KSPACING">      0.50000000</i>
    <i type="logical" name="KGAMMA"> T  </i>
   </separator>
   <separator name="electronic projectors" >
    <i type="logical" name="LREAL"> T  </i>
    <v name="ROPT">     -0.00050000     -0.00050000</v>
    <i type="int" name="LMAXPAW">  -100</i>
    <i type="int" name="LMAXMIX">     2</i>
    <i type="logical" name="NLSPLINE"> F  </i>
   </separator>
   <separator name="electronic startup" >
    <i type="int" name="ISTART">     0</i>
    <i type="int" name="ICHARG">    11</i>
    <i type="int" name="INIWAV">     1</i>
   </separator>
   <separator name="electronic spin" >
    <i type="int" name="ISPIN">     1</i>
    <i type="logical" name="LNONCOLLINEAR"> F  </i>
    <v name="MAGMOM">      1.00000000      1.00000000      1.00000000      1.00000000      1.00000000      1.00000000      1.00000000      1.00000000      1.00000000      1.00000000      1.00000000      1.00000000      1.00000000      1.00000000      1.00000000      1.00000000      1.00000000      1.00000000      1.00000000      1.00000000
      1.00000000      1.00000000      1.00000000      1.00000000      1.00000000      1.00000000      1.00000000      1.00000000      1.00000000      1.00000000      1.00000000      1.00000000      1.00000000      1.00000000      1.00000000      1.00000000      1.00000000      1.00000000      1.00000000      1.00000000
      1.00000000      1.00000000      1.00000000      1.00000000      1.00000000      1.00000000      1.00000000      1.00000000      1.00000000      1.00000000      1.00000000      1.00000000      1.00000000      1.00000000      1.00000000      1.00000000      1.00000000      1.00000000      1.00000000      1.00000000
      1.00000000      1.00000000      1.00000000      1.00000000      1.00000000      1.00000000      1.00000000      1.00000000      1.00000000      1.00000000      1.00000000      1.00000000      1.00000000      1.00000000      1.00000000      1.00000000      1.00000000      1.00000000      1.00000000      1.00000000
      1.00000000      1.00000000      1.00000000      1.00000000      1.00000000      1.00000000      1.00000000      1.00000000      1.00000000      1.00000000      1.00000000      1.00000000      1.00000000      1.00000000      1.00000000      1.00000000      1.00000000      1.00000000      1.00000000      1.00000000
      1.00000000      1.00000000      1.00000000      1.00000000      1.00000000      1.00000000      1.00000000      1.00000000      1.00000000      1.00000000      1.00000000      1.00000000      1.00000000      1.00000000      1.00000000      1.00000000      1.00000000      1.00000000      1.00000000      1.00000000
      1.00000000      1.00000000      1.00000000      1.00000000      1.00000000      1.00000000      1.00000000      1.00000000      1.00000000      1.00000000      1.00000000      1.00000000      1.00000000      1.00000000      1.00000000      1.00000000      1.00000000      1.00000000      1.00000000      1.00000000
      1.00000000      1.00000000      1.00000000      1.00000000      1.00000000      1.00000000      1.00000000      1.00000000      1.00000000      1.00000000      1.00000000      1.00000000      1.00000000      1.00000000      1.00000000      1.00000000      1.00000000      1.00000000      1.00000000      1.00000000
      1.00000000      1.00000000      1.00000000      1.00000000      1.00000000      1.00000000      1.00000000      1.00000000</v>
    <i name="NUPDOWN">     -1.00000000</i>
    <i type="logical" name="LSORBIT"> F  </i>
    <v name="SAXIS">      0.00000000      0.00000000      1.00000000</v>
    <i type="logical" name="LSPIRAL"> F  </i>
    <v name="QSPIRAL">      0.00000000      0.00000000      0.00000000</v>
    <i type="logical" name="LZEROZ"> F  </i>
   </separator>
   <separator name="electronic exchange-correlation" >
    <i type="logical" name="LASPH"> T  </i>
    <i type="logical" name="LMETAGGA"> F  </i>
   </separator>
   <separator name="electronic convergence" >
    <i type="int" name="NELM">   100</i>
    <i type="int" name="NELMDL">    -5</i>
    <i type="int" name="NELMIN">     2</i>
    <i name="ENINI">    500.00000000</i>
    <separator name="electronic convergence detail" >
     <i type="logical" name="LDIAG"> T  </i>
     <i type="logical" name="LSUBROT"> F  </i>
     <i name="WEIMIN">      0.00000000</i>
     <i name="EBREAK">      0.00000000</i>
     <i name="DEPER">      0.30000000</i>
     <i type="int" name="NRMM">     4</i>
     <i name="TIME">      0.40000000</i>
    </separator>
   </separator>
   <separator name="electronic mixer" >
    <i name="AMIX">      0.40000000</i>
    <i name="BMIX">      1.00000000</i>
    <i name="AMIN">      0.10000000</i>
    <i name="AMIX_MAG">      1.60000000</i>
    <i name="BMIX_MAG">      1.00000000</i>
    <separator name="electronic mixer details" >
     <i type="int" name="IMIX">     4</i>
     <i type="logical" name="MIXFIRST"> F  </i>
     <i type="int" name="MAXMIX">   -45</i>
     <i name="WC">    100.00000000</i>
     <i type="int" name="INIMIX">     1</i>
     <i type="int" name="MIXPRE">     1</i>
     <i type="int" name="MREMOVE">     5</i>
    </separator>
   </separator>
   <separator name="electronic dipolcorrection" >
    <i type="logical" name="LDIPOL"> F  </i>
    <i type="logical" name="LMONO"> F  </i>
    <i type="int" name="IDIPOL">     0</i>
    <i name="EPSILON">      1.00000000</i>
    <v name="DIPOL">   -100.00000000   -100.00000000   -100.00000000</v>
    <i name="EFIELD">      0.00000000</i>
   </separator>
  </separator>
  <separator name="grids" >
   <i type="int" name="NGX">   448</i>
   <i type="int" name="NGY">    40</i>
   <i type="int" name="NGZ">    64</i>
   <i type="int" name="NGXF">   896</i>
   <i type="int" name="NGYF">    80</i>
   <i type="int" name="NGZF">   128</i>
   <i type="logical" name="ADDGRID"> F  </i>
  </separator>
  <separator name="ionic" >
   <i type="int" name="NSW">     0</i>
   <i type="int" name="IBRION">    -1</i>
   <i type="int" name="MDALGO">     0</i>
   <i type="int" name="ISIF">     2</i>
   <i name="PSTRESS">      0.00000000</i>
   <i name="EDIFFG">     -0.01000000</i>
   <i type="int" name="NFREE">     0</i>
   <i name="POTIM">      0.30000000</i>
   <i name="SMASS">     -3.00000000</i>
   <i name="SCALEE">      1.00000000</i>
  </separator>
  <separator name="ionic md" >
   <i name="TEBEG">      0.00010000</i>
   <i name="TEEND">      0.00010000</i>
   <i type="int" name="NBLOCK">     1</i>
   <i type="int" name="KBLOCK">     1</i>
   <i type="int" name="NPACO">   256</i>
   <i name="APACO">     16.00000000</i>
  </separator>
  <separator name="symmetry" >
   <i type="int" name="ISYM">     2</i>
   <i name="SYMPREC">      0.00001000</i>
  </separator>
  <separator name="dos" >
   <i type="int" name="LORBIT">     0</i>
   <v name="RWIGS">     -1.00000000     -1.00000000</v>
   <i type="int" name="NEDOS">   301</i>
   <i name="EMIN">     10.00000000</i>
   <i name="EMAX">    -10.00000000</i>
   <i name="EFERMI">      0.00000000</i>
  </separator>
  <separator name="writing" >
   <i type="int" name="NWRITE">     2</i>
   <i type="logical" name="LWAVE"> T  </i>
   <i type="logical" name="LDOWNSAMPLE"> F  </i>
   <i type="logical" name="LCHARG"> T  </i>
   <i type="logical" name="LPARD"> F  </i>
   <i type="logical" name="LVTOT"> F  </i>
   <i type="logical" name="LVHAR"> F  </i>
   <i type="logical" name="LELF"> F  </i>
   <i type="logical" name="LOPTICS"> F  </i>
   <v name="STM">      0.00000000      0.00000000      0.00000000      0.00000000      0.00000000      0.00000000      0.00000000</v>
  </separator>
  <separator name="performance" >
   <i type="int" name="NPAR">     8</i>
   <i type="int" name="NSIM">     4</i>
   <i type="int" name="NBLK">    -1</i>
   <i type="logical" name="LPLANE"> T  </i>
   <i type="logical" name="LSCALAPACK"> T  </i>
   <i type="logical" name="LSCAAWARE"> F  </i>
   <i type="logical" name="LSCALU"> F  </i>
   <i type="logical" name="LASYNC"> F  </i>
   <i type="logical" name="LORBITALREAL"> F  </i>
  </separator>
  <separator name="miscellaneous" >
   <i type="int" name="IDIOT">     3</i>
   <i type="int" name="ISPECIAL">     0</i>
   <i type="logical" name="LMUSIC"> F  </i>
   <v name="POMASS">    137.32700000     28.08500000</v>
   <v name="DARWINR">      0.00000000      0.00000000</v>
   <v name="DARWINV">      1.00000000      1.00000000</v>
   <i type="logical" name="LCORR"> T  </i>
  </separator>
  <i type="logical" name="GGA_COMPAT"> T  </i>
  <i type="logical" name="LBERRY"> F  </i>
  <i type="int" name="ICORELEVEL">     0</i>
  <i type="logical" name="LDAU"> F  </i>
  <i type="int" name="I_CONSTRAINED_M">     0</i>
  <separator name="electronic exchange-correlation" >
   <i type="string" name="GGA">MK</i>
   <i type="int" name="VOSKOWN">     0</i>
   <i type="logical" name="LHFCALC"> F  </i>
   <i type="string" name="PRECFOCK"></i>
   <i type="logical" name="LSYMGRAD"> F  </i>
   <i type="logical" name="LHFONE"> F  </i>
   <i type="logical" name="LRHFCALC"> F  </i>
   <i type="logical" name="LTHOMAS"> F  </i>
   <i type="logical" name="LMODELHF"> F  </i>
   <i name="ENCUT4O">     -1.00000000</i>
   <i type="int" name="EXXOEP">     0</i>
   <i type="int" name="FOURORBIT">     0</i>
   <i name="AEXX">      0.00000000</i>
   <i name="HFALPHA">      0.00000000</i>
   <i name="MCALPHA">      0.00000000</i>
   <i name="ALDAX">      1.00000000</i>
   <i name="AGGAX">      1.00000000</i>
   <i name="ALDAC">      1.00000000</i>
   <i name="AGGAC">      0.00000000</i>
   <i type="int" name="NKREDX">     1</i>
   <i type="int" name="NKREDY">     1</i>
   <i type="int" name="NKREDZ">     1</i>
   <i type="logical" name="SHIFTRED"> F  </i>
   <i type="logical" name="ODDONLY"> F  </i>
   <i type="logical" name="EVENONLY"> F  </i>
   <i type="int" name="LMAXFOCK">     0</i>
   <i type="int" name="NMAXFOCKAE">     0</i>
   <i type="logical" name="LFOCKAEDFT"> F  </i>
   <i name="HFSCREEN">      0.00000000</i>
   <i name="HFSCREENC">      0.00000000</i>
   <i type="int" name="NBANDSGWLOW">     0</i>
  </separator>
  <separator name="vdW DFT" >
   <i type="logical" name="LUSE_VDW"> T  </i>
   <i name="Zab_VDW">     -1.88670000</i>
   <i name="PARAM1">      0.12340000</i>
   <i name="PARAM2">      0.71135700</i>
   <i name="PARAM3">      0.00000000</i>
  </separator>
  <separator name="model GW" >
   <i type="int" name="MODEL_GW">     0</i>
   <i name="MODEL_EPS0">     21.92479753</i>
   <i name="MODEL_ALPHA">      1.00000000</i>
  </separator>
  <separator name="linear response parameters" >
   <i type="logical" name="LEPSILON"> F  </i>
   <i type="logical" name="LRPA"> F  </i>
   <i type="logical" name="LNABLA"> F  </i>
   <i type="logical" name="LVEL"> F  </i>
   <i type="int" name="KINTER">     0</i>
   <i name="CSHIFT">      0.10000000</i>
   <i name="OMEGAMAX">     -1.00000000</i>
   <i name="DEG_THRESHOLD">      0.00200000</i>
   <i name="RTIME">     -0.10000000</i>
   <i name="WPLASMAI">      0.00000000</i>
   <v name="DFIELD">      0.00000000      0.00000000      0.00000000</v>
   <v name="WPLASMA">      0.00000000      0.00000000      0.00000000      0.00000000      0.00000000      0.00000000      0.00000000      0.00000000      0.00000000</v>
  </separator>
  <separator name="orbital magnetization" >
   <i type="logical" name="NUCIND"> F  </i>
   <v name="MAGPOS">      0.00000000      0.00000000      0.00000000</v>
   <i type="logical" name="LNICSALL"> T  </i>
   <i type="logical" name="ORBITALMAG"> F  </i>
   <i type="logical" name="LMAGBLOCH"> F  </i>
   <i type="logical" name="LCHIMAG"> F  </i>
   <i type="logical" name="LGAUGE"> T  </i>
   <i type="int" name="MAGATOM">     0</i>
   <v name="MAGDIPOL">      0.00000000      0.00000000      0.00000000</v>
   <v name="AVECCONST">      0.00000000      0.00000000      0.00000000</v>
  </separator>
  <separator name="response functions" >
   <i type="logical" name="LADDER"> F  </i>
   <i type="logical" name="LRPAFORCE"> F  </i>
   <i type="logical" name="LFXC"> F  </i>
   <i type="logical" name="LHARTREE"> T  </i>
   <i type="int" name="IBSE">     0</i>
   <v type="int" name="KPOINT">    -1     0     0     0</v>
   <i type="logical" name="LTCTE"> F  </i>
   <i type="logical" name="LTETE"> F  </i>
   <i type="logical" name="LTRIPLET"> F  </i>
   <i type="logical" name="LFXCEPS"> F  </i>
   <i type="logical" name="LFXHEG"> F  </i>
   <i type="int" name="NATURALO">     2</i>
   <i type="logical" name="L2ORDER"> F  </i>
   <i type="logical" name="LMP2LT"> F  </i>
   <i type="logical" name="LUSEW"> F  </i>
   <i name="ENCUTGW">     -2.00000000</i>
   <i name="ENCUTGWSOFT">     -2.00000000</i>
   <i name="ENCUTLF">     -1.00000000</i>
   <i type="int" name="LMAXMP2">    -1</i>
   <i name="SCISSOR">      0.00000000</i>
   <i type="int" name="NOMEGA">     0</i>
   <i type="int" name="NOMEGAR">     0</i>
   <i type="int" name="NBANDSGW">    -1</i>
   <i type="int" name="NBANDSO">    -1</i>
   <i type="int" name="NBANDSV">    -1</i>
   <i type="int" name="NELM">   100</i>
   <i type="int" name="NELMHF">     1</i>
   <i type="int" name="DIM">     3</i>
   <i type="int" name="ANTIRES">     0</i>
   <i name="OMEGAMAX">    -30.00000000</i>
   <i name="OMEGAMIN">    -30.00000000</i>
   <i name="OMEGATL">   -200.00000000</i>
   <i type="int" name="OMEGAGRID">   140</i>
   <i name="CSHIFT">     -0.10000000</i>
   <i type="logical" name="SELFENERGY"> F  </i>
   <i type="logical" name="LSPECTRAL"> F  </i>
   <i type="logical" name="LSPECTRALGW"> F  </i>
   <i type="logical" name="LSINGLES"> F  </i>
   <i type="logical" name="LFERMIGW"> F  </i>
   <i type="logical" name="ODDONLYGW"> F  </i>
   <i type="logical" name="EVENONLYGW"> F  </i>
   <i type="int" name="NKREDLFX">     1</i>
   <i type="int" name="NKREDLFY">     1</i>
   <i type="int" name="NKREDLFZ">     1</i>
   <i type="int" name="MAXMEM">  2800</i>
   <i type="int" name="TELESCOPE">     0</i>
   <i type="int" name="TAUPAR">     1</i>
   <i type="int" name="OMEGAPAR">    -1</i>
   <i name="LAMBDA">      1.00000000</i>
  </separator>
  <separator name="External order field" >
   <i name="OFIELD_KAPPA">      0.00000000</i>
   <v name="OFIELD_K">      0.00000000      0.00000000      0.00000000</v>
   <i name="OFIELD_Q6_NEAR">      0.00000000</i>
   <i name="OFIELD_Q6_FAR">      0.00000000</i>
   <i name="OFIELD_A">      0.00000000</i>
  </separator>
 </parameters>
 <atominfo>
  <atoms>     168 </atoms>
  <types>       2 </types>
  <array name="atoms" >
   <dimension dim="1">ion</dimension>
   <field type="string">element</field>
   <field type="int">atomtype</field>
   <set>
    <rc><c>Ba</c><c>   1</c></rc>
    <rc><c>Ba</c><c>   1</c></rc>
    <rc><c>Ba</c><c>   1</c></rc>
    <rc><c>Ba</c><c>   1</c></rc>
    <rc><c>Ba</c><c>   1</c></rc>
    <rc><c>Ba</c><c>   1</c></rc>
    <rc><c>Ba</c><c>   1</c></rc>
    <rc><c>Ba</c><c>   1</c></rc>
    <rc><c>Ba</c><c>   1</c></rc>
    <rc><c>Ba</c><c>   1</c></rc>
    <rc><c>Ba</c><c>   1</c></rc>
    <rc><c>Ba</c><c>   1</c></rc>
    <rc><c>Ba</c><c>   1</c></rc>
    <rc><c>Ba</c><c>   1</c></rc>
    <rc><c>Ba</c><c>   1</c></rc>
    <rc><c>Ba</c><c>   1</c></rc>
    <rc><c>Ba</c><c>   1</c></rc>
    <rc><c>Ba</c><c>   1</c></rc>
    <rc><c>Ba</c><c>   1</c></rc>
    <rc><c>Ba</c><c>   1</c></rc>
    <rc><c>Ba</c><c>   1</c></rc>
    <rc><c>Ba</c><c>   1</c></rc>
    <rc><c>Ba</c><c>   1</c></rc>
    <rc><c>Ba</c><c>   1</c></rc>
    <rc><c>Ba</c><c>   1</c></rc>
    <rc><c>Ba</c><c>   1</c></rc>
    <rc><c>Ba</c><c>   1</c></rc>
    <rc><c>Ba</c><c>   1</c></rc>
    <rc><c>Ba</c><c>   1</c></rc>
    <rc><c>Ba</c><c>   1</c></rc>
    <rc><c>Ba</c><c>   1</c></rc>
    <rc><c>Ba</c><c>   1</c></rc>
    <rc><c>Ba</c><c>   1</c></rc>
    <rc><c>Ba</c><c>   1</c></rc>
    <rc><c>Ba</c><c>   1</c></rc>
    <rc><c>Ba</c><c>   1</c></rc>
    <rc><c>Ba</c><c>   1</c></rc>
    <rc><c>Ba</c><c>   1</c></rc>
    <rc><c>Ba</c><c>   1</c></rc>
    <rc><c>Ba</c><c>   1</c></rc>
    <rc><c>Ba</c><c>   1</c></rc>
    <rc><c>Ba</c><c>   1</c></rc>
    <rc><c>Ba</c><c>   1</c></rc>
    <rc><c>Ba</c><c>   1</c></rc>
    <rc><c>Ba</c><c>   1</c></rc>
    <rc><c>Ba</c><c>   1</c></rc>
    <rc><c>Ba</c><c>   1</c></rc>
    <rc><c>Ba</c><c>   1</c></rc>
    <rc><c>Ba</c><c>   1</c></rc>
    <rc><c>Ba</c><c>   1</c></rc>
    <rc><c>Ba</c><c>   1</c></rc>
    <rc><c>Ba</c><c>   1</c></rc>
    <rc><c>Ba</c><c>   1</c></rc>
    <rc><c>Ba</c><c>   1</c></rc>
    <rc><c>Ba</c><c>   1</c></rc>
    <rc><c>Ba</c><c>   1</c></rc>
    <rc><c>Si</c><c>   2</c></rc>
    <rc><c>Si</c><c>   2</c></rc>
    <rc><c>Si</c><c>   2</c></rc>
    <rc><c>Si</c><c>   2</c></rc>
    <rc><c>Si</c><c>   2</c></rc>
    <rc><c>Si</c><c>   2</c></rc>
    <rc><c>Si</c><c>   2</c></rc>
    <rc><c>Si</c><c>   2</c></rc>
    <rc><c>Si</c><c>   2</c></rc>
    <rc><c>Si</c><c>   2</c></rc>
    <rc><c>Si</c><c>   2</c></rc>
    <rc><c>Si</c><c>   2</c></rc>
    <rc><c>Si</c><c>   2</c></rc>
    <rc><c>Si</c><c>   2</c></rc>
    <rc><c>Si</c><c>   2</c></rc>
    <rc><c>Si</c><c>   2</c></rc>
    <rc><c>Si</c><c>   2</c></rc>
    <rc><c>Si</c><c>   2</c></rc>
    <rc><c>Si</c><c>   2</c></rc>
    <rc><c>Si</c><c>   2</c></rc>
    <rc><c>Si</c><c>   2</c></rc>
    <rc><c>Si</c><c>   2</c></rc>
    <rc><c>Si</c><c>   2</c></rc>
    <rc><c>Si</c><c>   2</c></rc>
    <rc><c>Si</c><c>   2</c></rc>
    <rc><c>Si</c><c>   2</c></rc>
    <rc><c>Si</c><c>   2</c></rc>
    <rc><c>Si</c><c>   2</c></rc>
    <rc><c>Si</c><c>   2</c></rc>
    <rc><c>Si</c><c>   2</c></rc>
    <rc><c>Si</c><c>   2</c></rc>
    <rc><c>Si</c><c>   2</c></rc>
    <rc><c>Si</c><c>   2</c></rc>
    <rc><c>Si</c><c>   2</c></rc>
    <rc><c>Si</c><c>   2</c></rc>
    <rc><c>Si</c><c>   2</c></rc>
    <rc><c>Si</c><c>   2</c></rc>
    <rc><c>Si</c><c>   2</c></rc>
    <rc><c>Si</c><c>   2</c></rc>
    <rc><c>Si</c><c>   2</c></rc>
    <rc><c>Si</c><c>   2</c></rc>
    <rc><c>Si</c><c>   2</c></rc>
    <rc><c>Si</c><c>   2</c></rc>
    <rc><c>Si</c><c>   2</c></rc>
    <rc><c>Si</c><c>   2</c></rc>
    <rc><c>Si</c><c>   2</c></rc>
    <rc><c>Si</c><c>   2</c></rc>
    <rc><c>Si</c><c>   2</c></rc>
    <rc><c>Si</c><c>   2</c></rc>
    <rc><c>Si</c><c>   2</c></rc>
    <rc><c>Si</c><c>   2</c></rc>
    <rc><c>Si</c><c>   2</c></rc>
    <rc><c>Si</c><c>   2</c></rc>
    <rc><c>Si</c><c>   2</c></rc>
    <rc><c>Si</c><c>   2</c></rc>
    <rc><c>Si</c><c>   2</c></rc>
    <rc><c>Si</c><c>   2</c></rc>
    <rc><c>Si</c><c>   2</c></rc>
    <rc><c>Si</c><c>   2</c></rc>
    <rc><c>Si</c><c>   2</c></rc>
    <rc><c>Si</c><c>   2</c></rc>
    <rc><c>Si</c><c>   2</c></rc>
    <rc><c>Si</c><c>   2</c></rc>
    <rc><c>Si</c><c>   2</c></rc>
    <rc><c>Si</c><c>   2</c></rc>
    <rc><c>Si</c><c>   2</c></rc>
    <rc><c>Si</c><c>   2</c></rc>
    <rc><c>Si</c><c>   2</c></rc>
    <rc><c>Si</c><c>   2</c></rc>
    <rc><c>Si</c><c>   2</c></rc>
    <rc><c>Si</c><c>   2</c></rc>
    <rc><c>Si</c><c>   2</c></rc>
    <rc><c>Si</c><c>   2</c></rc>
    <rc><c>Si</c><c>   2</c></rc>
    <rc><c>Si</c><c>   2</c></rc>
    <rc><c>Si</c><c>   2</c></rc>
    <rc><c>Si</c><c>   2</c></rc>
    <rc><c>Si</c><c>   2</c></rc>
    <rc><c>Si</c><c>   2</c></rc>
    <rc><c>Si</c><c>   2</c></rc>
    <rc><c>Si</c><c>   2</c></rc>
    <rc><c>Si</c><c>   2</c></rc>
    <rc><c>Si</c><c>   2</c></rc>
    <rc><c>Si</c><c>   2</c></rc>
    <rc><c>Si</c><c>   2</c></rc>
    <rc><c>Si</c><c>   2</c></rc>
    <rc><c>Si</c><c>   2</c></rc>
    <rc><c>Si</c><c>   2</c></rc>
    <rc><c>Si</c><c>   2</c></rc>
    <rc><c>Si</c><c>   2</c></rc>
    <rc><c>Si</c><c>   2</c></rc>
    <rc><c>Si</c><c>   2</c></rc>
    <rc><c>Si</c><c>   2</c></rc>
    <rc><c>Si</c><c>   2</c></rc>
    <rc><c>Si</c><c>   2</c></rc>
    <rc><c>Si</c><c>   2</c></rc>
    <rc><c>Si</c><c>   2</c></rc>
    <rc><c>Si</c><c>   2</c></rc>
    <rc><c>Si</c><c>   2</c></rc>
    <rc><c>Si</c><c>   2</c></rc>
    <rc><c>Si</c><c>   2</c></rc>
    <rc><c>Si</c><c>   2</c></rc>
    <rc><c>Si</c><c>   2</c></rc>
    <rc><c>Si</c><c>   2</c></rc>
    <rc><c>Si</c><c>   2</c></rc>
    <rc><c>Si</c><c>   2</c></rc>
    <rc><c>Si</c><c>   2</c></rc>
    <rc><c>Si</c><c>   2</c></rc>
    <rc><c>Si</c><c>   2</c></rc>
    <rc><c>Si</c><c>   2</c></rc>
    <rc><c>Si</c><c>   2</c></rc>
    <rc><c>Si</c><c>   2</c></rc>
   </set>
  </array>
  <array name="atomtypes" >
   <dimension dim="1">type</dimension>
   <field type="int">atomspertype</field>
   <field type="string">element</field>
   <field>mass</field>
   <field>valence</field>
   <field type="string">pseudopotential</field>
   <set>
    <rc><c>  56</c><c>Ba</c><c>    137.32700000</c><c>     10.00000000</c><c> PAW_PBE Ba_sv 06Sep2000                </c></rc>
    <rc><c> 112</c><c>Si</c><c>     28.08500000</c><c>      4.00000000</c><c> PAW_PBE Si 05Jan2001                   </c></rc>
   </set>
  </array>
 </atominfo>
 <structure name="initialpos" >
  <crystal>
   <varray name="basis" >
    <v>      79.49604765       0.00000000       0.06876805 </v>
    <v>       0.00000000       6.71361409       0.00000000 </v>
    <v>       0.01025286       0.00000000      11.50249484 </v>
   </varray>
   <i name="volume">   6138.94330973 </i>
   <varray name="rec_basis" >
    <v>       0.01257925       0.00000000      -0.00001121 </v>
    <v>       0.00000000       0.14895107       0.00000000 </v>
    <v>      -0.00007521       0.00000000       0.08693773 </v>
   </varray>
  </crystal>
  <varray name="positions" >
   <v>       0.01354907       0.25000000       0.70544677 </v>
   <v>       0.12362224       0.25000000       0.69456186 </v>
   <v>       0.23625654       0.25000000       0.69481746 </v>
   <v>       0.34918137       0.25000000       0.69329424 </v>
   <v>       0.46219824       0.25000000       0.69000174 </v>
   <v>       0.57513066       0.25000000       0.68797412 </v>
   <v>       0.68786217       0.25000000       0.68799861 </v>
   <v>       0.11999344       0.75000002       0.31200139 </v>
   <v>       0.23272496       0.75000002       0.31202588 </v>
   <v>       0.34565738       0.75000002       0.30999826 </v>
   <v>       0.45867423       0.75000002       0.30670576 </v>
   <v>       0.57159906       0.75000002       0.30518254 </v>
   <v>       0.68423334       0.75000002       0.30543814 </v>
   <v>       0.79430652       0.75000002       0.29455323 </v>
   <v>       0.06237257       0.75000002       0.19717033 </v>
   <v>       0.17629993       0.75000002       0.19533401 </v>
   <v>       0.28913334       0.75000002       0.19406322 </v>
   <v>       0.40218185       0.75000002       0.19120867 </v>
   <v>       0.51523038       0.75000002       0.18862941 </v>
   <v>       0.62806619       0.75000002       0.18781876 </v>
   <v>       0.74025021       0.75000002       0.18730049 </v>
   <v>       0.06760537       0.25000000       0.81269949 </v>
   <v>       0.17978939       0.25000000       0.81218122 </v>
   <v>       0.29262522       0.25000000       0.81137057 </v>
   <v>       0.40567372       0.25000000       0.80879131 </v>
   <v>       0.51872221       0.25000000       0.80593676 </v>
   <v>       0.63155563       0.25000000       0.80466597 </v>
   <v>       0.74548299       0.25000000       0.80282965 </v>
   <v>       0.03336780       0.75000002       0.91630536 </v>
   <v>       0.14008124       0.75000002       0.91010532 </v>
   <v>       0.25244764       0.75000002       0.90864527 </v>
   <v>       0.36541678       0.75000002       0.90691920 </v>
   <v>       0.47848516       0.75000002       0.90387426 </v>
   <v>       0.59152564       0.75000002       0.90221863 </v>
   <v>       0.70464649       0.75000002       0.90235855 </v>
   <v>       0.10320911       0.25000000       0.09764143 </v>
   <v>       0.21632995       0.25000000       0.09778135 </v>
   <v>       0.32937044       0.25000000       0.09612572 </v>
   <v>       0.44243882       0.25000000       0.09308078 </v>
   <v>       0.55540796       0.25000000       0.09135470 </v>
   <v>       0.66777436       0.25000000       0.08989466 </v>
   <v>       0.77448779       0.25000000       0.08369462 </v>
   <v>       0.04812015       0.25000000       0.39906353 </v>
   <v>       0.16007515       0.25000000       0.40857942 </v>
   <v>       0.27291396       0.25000000       0.40844299 </v>
   <v>       0.38586758       0.25000000       0.40680836 </v>
   <v>       0.49883406       0.25000000       0.40338492 </v>
   <v>       0.61172101       0.25000000       0.40238790 </v>
   <v>       0.72390631       0.25000000       0.40029515 </v>
   <v>       0.08394925       0.75000002       0.59970489 </v>
   <v>       0.19613460       0.75000002       0.59761214 </v>
   <v>       0.30902148       0.75000002       0.59661512 </v>
   <v>       0.42198797       0.75000002       0.59319168 </v>
   <v>       0.53494164       0.75000002       0.59155705 </v>
   <v>       0.64778045       0.75000002       0.59142062 </v>
   <v>       0.75973544       0.75000002       0.60093651 </v>
   <v>       0.02961507       0.07186704       0.14879319 </v>
   <v>       0.14324990       0.07052161       0.14967712 </v>
   <v>       0.25608467       0.07035111       0.14887216 </v>
   <v>       0.36920150       0.07036088       0.14738360 </v>
   <v>       0.48227009       0.07033359       0.14412808 </v>
   <v>       0.59517722       0.07025728       0.14271657 </v>
   <v>       0.70713082       0.07018068       0.14107437 </v>
   <v>       0.10072476       0.92981931       0.85892561 </v>
   <v>       0.21267837       0.92974271       0.85728341 </v>
   <v>       0.32558551       0.92966640       0.85587190 </v>
   <v>       0.43865405       0.92963911       0.85261638 </v>
   <v>       0.55177088       0.92964888       0.85112782 </v>
   <v>       0.66460566       0.92947838       0.85032286 </v>
   <v>       0.77824048       0.92813296       0.85120679 </v>
   <v>       0.04430705       0.92822902       0.64670078 </v>
   <v>       0.15639396       0.92968785       0.64907002 </v>
   <v>       0.26925284       0.92958549       0.64873773 </v>
   <v>       0.38219700       0.92953949       0.64687681 </v>
   <v>       0.49515857       0.92973935       0.64361129 </v>
   <v>       0.60802397       0.92963843       0.64213139 </v>
   <v>       0.72082763       0.93026649       0.64234665 </v>
   <v>       0.08702797       0.06973350       0.35765335 </v>
   <v>       0.19983164       0.07036156       0.35786861 </v>
   <v>       0.31269705       0.07026064       0.35638871 </v>
   <v>       0.42565860       0.07046051       0.35312319 </v>
   <v>       0.53860276       0.07041450       0.35126227 </v>
   <v>       0.65146162       0.07031214       0.35092998 </v>
   <v>       0.76354854       0.07177097       0.35329922 </v>
   <v>       0.10072476       0.57018069       0.85892561 </v>
   <v>       0.21267837       0.57025729       0.85728341 </v>
   <v>       0.32558551       0.57033360       0.85587190 </v>
   <v>       0.43865405       0.57036089       0.85261638 </v>
   <v>       0.55177088       0.57035112       0.85112782 </v>
   <v>       0.66460566       0.57052162       0.85032286 </v>
   <v>       0.77824048       0.57186704       0.85120679 </v>
   <v>       0.02961507       0.42813296       0.14879319 </v>
   <v>       0.14324990       0.42947838       0.14967712 </v>
   <v>       0.25608467       0.42964888       0.14887216 </v>
   <v>       0.36920150       0.42963911       0.14738360 </v>
   <v>       0.48227009       0.42966640       0.14412808 </v>
   <v>       0.59517722       0.42974271       0.14271657 </v>
   <v>       0.70713082       0.42981931       0.14107437 </v>
   <v>       0.08702797       0.43026649       0.35765335 </v>
   <v>       0.19983164       0.42963843       0.35786861 </v>
   <v>       0.31269705       0.42973935       0.35638871 </v>
   <v>       0.42565860       0.42953949       0.35312319 </v>
   <v>       0.53860276       0.42958549       0.35126227 </v>
   <v>       0.65146162       0.42968785       0.35092998 </v>
   <v>       0.76354854       0.42822902       0.35329922 </v>
   <v>       0.04430705       0.57177098       0.64670078 </v>
   <v>       0.15639396       0.57031215       0.64907002 </v>
   <v>       0.26925284       0.57041451       0.64873773 </v>
   <v>       0.38219700       0.57046051       0.64687681 </v>
   <v>       0.49515857       0.57026065       0.64361129 </v>
   <v>       0.60802397       0.57036157       0.64213139 </v>
   <v>       0.72082763       0.56973351       0.64234665 </v>
   <v>       0.01766196       0.75000002       0.62498528 </v>
   <v>       0.13114866       0.75000002       0.59473527 </v>
   <v>       0.24399157       0.75000002       0.59412397 </v>
   <v>       0.35691768       0.75000002       0.59241865 </v>
   <v>       0.46989161       0.75000002       0.58918840 </v>
   <v>       0.58277353       0.75000002       0.58734369 </v>
   <v>       0.69566300       0.75000002       0.58778029 </v>
   <v>       0.11219256       0.25000000       0.41221971 </v>
   <v>       0.22508201       0.25000000       0.41265631 </v>
   <v>       0.33796397       0.25000000       0.41081160 </v>
   <v>       0.45093784       0.25000000       0.40758135 </v>
   <v>       0.56386403       0.25000000       0.40587603 </v>
   <v>       0.67670693       0.25000000       0.40526473 </v>
   <v>       0.79019362       0.25000000       0.37501472 </v>
   <v>       0.05537658       0.25000000       0.08624211 </v>
   <v>       0.16856644       0.25000000       0.09553478 </v>
   <v>       0.28136513       0.25000000       0.09399518 </v>
   <v>       0.39447133       0.25000000       0.09200151 </v>
   <v>       0.50753367       0.25000000       0.08867312 </v>
   <v>       0.62041834       0.25000000       0.08739984 </v>
   <v>       0.73220454       0.25000000       0.08623639 </v>
   <v>       0.07565104       0.75000002       0.91376359 </v>
   <v>       0.18743724       0.75000002       0.91260014 </v>
   <v>       0.30032190       0.75000002       0.91132686 </v>
   <v>       0.41338424       0.75000002       0.90799847 </v>
   <v>       0.52649049       0.75000002       0.90600479 </v>
   <v>       0.63928918       0.75000002       0.90446520 </v>
   <v>       0.75247903       0.75000002       0.91375787 </v>
   <v>       0.02985020       0.25000000       0.96662750 </v>
   <v>       0.14378245       0.25000000       0.96841020 </v>
   <v>       0.25651619       0.25000000       0.96738768 </v>
   <v>       0.36958375       0.25000000       0.96584740 </v>
   <v>       0.48264034       0.25000000       0.96269354 </v>
   <v>       0.59555807       0.25000000       0.96125144 </v>
   <v>       0.70797311       0.25000000       0.95903077 </v>
   <v>       0.09988245       0.75000002       0.04096925 </v>
   <v>       0.21229748       0.75000002       0.03874857 </v>
   <v>       0.32521528       0.75000002       0.03730648 </v>
   <v>       0.43827179       0.75000002       0.03415262 </v>
   <v>       0.55133941       0.75000002       0.03261233 </v>
   <v>       0.66407315       0.75000002       0.03158981 </v>
   <v>       0.77800539       0.75000002       0.03337252 </v>
   <v>       0.03826722       0.75000002       0.46744099 </v>
   <v>       0.15602464       0.75000002       0.46777226 </v>
   <v>       0.26885327       0.75000002       0.46724603 </v>
   <v>       0.38169916       0.75000002       0.46528375 </v>
   <v>       0.49473340       0.75000002       0.46211235 </v>
   <v>       0.60767915       0.75000002       0.46071048 </v>
   <v>       0.72048039       0.75000002       0.46081447 </v>
   <v>       0.08737515       0.25000000       0.53918544 </v>
   <v>       0.20017645       0.25000000       0.53928944 </v>
   <v>       0.31312220       0.25000000       0.53788757 </v>
   <v>       0.42615641       0.25000000       0.53471617 </v>
   <v>       0.53900235       0.25000000       0.53275389 </v>
   <v>       0.65183097       0.25000000       0.53222765 </v>
   <v>       0.76958838       0.25000000       0.53255893 </v>
  </varray>
 </structure>
 <calculation>
  <scstep>
   <time name="dav">  262.96  263.59</time>
   <time name="total">  267.52  268.24</time>
   <energy>
    <i name="alphaZ">   2568.80585690 </i>
    <i name="ewald"> 304904.09181027 </i>
    <i name="hartreedc">-354057.49281517 </i>
    <i name="XCdc">    340.44781066 </i>
    <i name="pawpsdc">  27033.65733971 </i>
    <i name="pawaedc"> -24972.74781435 </i>
    <i name="eentropy">     -0.00244769 </i>
    <i name="bandstr">     56.49860653 </i>
    <i name="atom">  50884.06017899 </i>
    <i name="e_fr_energy">   6757.31852586 </i>
    <i name="e_wo_entrp">   6757.32097354 </i>
    <i name="e_0_energy">   6757.31974970 </i>
   </energy>
  </scstep>
  <scstep>
   <time name="dav">  325.47  326.25</time>
   <time name="total">  325.48  326.26</time>
   <energy>
    <i name="e_fr_energy">    165.26381835 </i>
    <i name="e_wo_entrp">    165.26486336 </i>
    <i name="e_0_energy">    165.26434086 </i>
   </energy>
  </scstep>
  <scstep>
   <time name="dav">  307.07  307.81</time>
   <time name="total">  307.08  307.82</time>
   <energy>
    <i name="e_fr_energy">   -632.38872740 </i>
    <i name="e_wo_entrp">   -632.38872740 </i>
    <i name="e_0_energy">   -632.38872740 </i>
   </energy>
  </scstep>
  <scstep>
   <time name="dav">  351.10  351.95</time>
   <time name="total">  351.12  351.96</time>
   <energy>
    <i name="e_fr_energy">   -673.69755405 </i>
    <i name="e_wo_entrp">   -673.69755405 </i>
    <i name="e_0_energy">   -673.69755405 </i>
   </energy>
  </scstep>
  <scstep>
   <time name="dav">  373.84  374.73</time>
   <time name="total">  373.85  374.74</time>
   <energy>
    <i name="e_fr_energy">   -675.52592442 </i>
    <i name="e_wo_entrp">   -675.52592442 </i>
    <i name="e_0_energy">   -675.52592442 </i>
   </energy>
  </scstep>
  <scstep>
   <time name="dav">  344.72  345.55</time>
   <time name="total">  344.74  345.56</time>
   <energy>
    <i name="e_fr_energy">   -675.58260654 </i>
    <i name="e_wo_entrp">   -675.58260654 </i>
    <i name="e_0_energy">   -675.58260654 </i>
   </energy>
  </scstep>
  <scstep>
   <time name="dav">  371.98  372.87</time>
   <time name="total">  371.99  372.88</time>
   <energy>
    <i name="e_fr_energy">   -675.58487432 </i>
    <i name="e_wo_entrp">   -675.58487432 </i>
    <i name="e_0_energy">   -675.58487432 </i>
   </energy>
  </scstep>
  <scstep>
   <time name="dav">  347.60  348.44</time>
   <time name="total">  347.62  348.45</time>
   <energy>
    <i name="e_fr_energy">   -675.58497021 </i>
    <i name="e_wo_entrp">   -675.58497021 </i>
    <i name="e_0_energy">   -675.58497021 </i>
   </energy>
  </scstep>
  <scstep>
   <time name="dav">  315.13  315.89</time>
   <time name="total">  315.14  315.90</time>
   <energy>
    <i name="e_fr_energy">   -675.58497523 </i>
    <i name="e_wo_entrp">   -675.58497523 </i>
    <i name="e_0_energy">   -675.58497523 </i>
   </energy>
  </scstep>
  <scstep>
   <time name="dav">  228.42  228.97</time>
   <time name="total">  228.44  228.99</time>
   <energy>
    <i name="alphaZ">   2568.80585690 </i>
    <i name="ewald"> 304904.09181027 </i>
    <i name="hartreedc">-354057.49281517 </i>
    <i name="XCdc">    340.44781066 </i>
    <i name="pawpsdc">  27033.65733971 </i>
    <i name="pawaedc"> -24972.74781435 </i>
    <i name="eentropy">     -0.00000000 </i>
    <i name="bandstr">  -7376.40734250 </i>
    <i name="atom">  50884.06017899 </i>
    <i name="e_fr_energy">   -675.58497548 </i>
    <i name="e_wo_entrp">   -675.58497548 </i>
    <i name="e_0_energy">   -675.58497548 </i>
   </energy>
  </scstep>
  <structure>
   <crystal>
    <varray name="basis" >
     <v>      79.49604765       0.00000000       0.06876805 </v>
     <v>       0.00000000       6.71361409       0.00000000 </v>
     <v>       0.01025286       0.00000000      11.50249484 </v>
    </varray>
    <i name="volume">   6138.94330973 </i>
    <varray name="rec_basis" >
     <v>       0.01257925       0.00000000      -0.00001121 </v>
     <v>       0.00000000       0.14895107       0.00000000 </v>
     <v>      -0.00007521       0.00000000       0.08693773 </v>
    </varray>
   </crystal>
   <varray name="positions" >
    <v>       0.01354907       0.25000000       0.70544677 </v>
    <v>       0.12362224       0.25000000       0.69456186 </v>
    <v>       0.23625654       0.25000000       0.69481746 </v>
    <v>       0.34918137       0.25000000       0.69329424 </v>
    <v>       0.46219824       0.25000000       0.69000174 </v>
    <v>       0.57513066       0.25000000       0.68797412 </v>
    <v>       0.68786217       0.25000000       0.68799861 </v>
    <v>       0.11999344       0.75000002       0.31200139 </v>
    <v>       0.23272496       0.75000002       0.31202588 </v>
    <v>       0.34565738       0.75000002       0.30999826 </v>
    <v>       0.45867423       0.75000002       0.30670576 </v>
    <v>       0.57159906       0.75000002       0.30518254 </v>
    <v>       0.68423334       0.75000002       0.30543814 </v>
    <v>       0.79430652       0.75000002       0.29455323 </v>
    <v>       0.06237257       0.75000002       0.19717033 </v>
    <v>       0.17629993       0.75000002       0.19533401 </v>
    <v>       0.28913334       0.75000002       0.19406322 </v>
    <v>       0.40218185       0.75000002       0.19120867 </v>
    <v>       0.51523038       0.75000002       0.18862941 </v>
    <v>       0.62806619       0.75000002       0.18781876 </v>
    <v>       0.74025021       0.75000002       0.18730049 </v>
    <v>       0.06760537       0.25000000       0.81269949 </v>
    <v>       0.17978939       0.25000000       0.81218122 </v>
    <v>       0.29262522       0.25000000       0.81137057 </v>
    <v>       0.40567372       0.25000000       0.80879131 </v>
    <v>       0.51872221       0.25000000       0.80593676 </v>
    <v>       0.63155563       0.25000000       0.80466597 </v>
    <v>       0.74548299       0.25000000       0.80282965 </v>
    <v>       0.03336780       0.75000002       0.91630536 </v>
    <v>       0.14008124       0.75000002       0.91010532 </v>
    <v>       0.25244764       0.75000002       0.90864527 </v>
    <v>       0.36541678       0.75000002       0.90691920 </v>
    <v>       0.47848516       0.75000002       0.90387426 </v>
    <v>       0.59152564       0.75000002       0.90221863 </v>
    <v>       0.70464649       0.75000002       0.90235855 </v>
    <v>       0.10320911       0.25000000       0.09764143 </v>
    <v>       0.21632995       0.25000000       0.09778135 </v>
    <v>       0.32937044       0.25000000       0.09612572 </v>
    <v>       0.44243882       0.25000000       0.09308078 </v>
    <v>       0.55540796       0.25000000       0.09135470 </v>
    <v>       0.66777436       0.25000000       0.08989466 </v>
    <v>       0.77448779       0.25000000       0.08369462 </v>
    <v>       0.04812015       0.25000000       0.39906353 </v>
    <v>       0.16007515       0.25000000       0.40857942 </v>
    <v>       0.27291396       0.25000000       0.40844299 </v>
    <v>       0.38586758       0.25000000       0.40680836 </v>
    <v>       0.49883406       0.25000000       0.40338492 </v>
    <v>       0.61172101       0.25000000       0.40238790 </v>
    <v>       0.72390631       0.25000000       0.40029515 </v>
    <v>       0.08394925       0.75000002       0.59970489 </v>
    <v>       0.19613460       0.75000002       0.59761214 </v>
    <v>       0.30902148       0.75000002       0.59661512 </v>
    <v>       0.42198797       0.75000002       0.59319168 </v>
    <v>       0.53494164       0.75000002       0.59155705 </v>
    <v>       0.64778045       0.75000002       0.59142062 </v>
    <v>       0.75973544       0.75000002       0.60093651 </v>
    <v>       0.02961507       0.07186704       0.14879319 </v>
    <v>       0.14324990       0.07052161       0.14967712 </v>
    <v>       0.25608467       0.07035111       0.14887216 </v>
    <v>       0.36920150       0.07036088       0.14738360 </v>
    <v>       0.48227009       0.07033359       0.14412808 </v>
    <v>       0.59517722       0.07025728       0.14271657 </v>
    <v>       0.70713082       0.07018068       0.14107437 </v>
    <v>       0.10072476       0.92981931       0.85892561 </v>
    <v>       0.21267837       0.92974271       0.85728341 </v>
    <v>       0.32558551       0.92966640       0.85587190 </v>
    <v>       0.43865405       0.92963911       0.85261638 </v>
    <v>       0.55177088       0.92964888       0.85112782 </v>
    <v>       0.66460566       0.92947838       0.85032286 </v>
    <v>       0.77824048       0.92813296       0.85120679 </v>
    <v>       0.04430705       0.92822902       0.64670078 </v>
    <v>       0.15639396       0.92968785       0.64907002 </v>
    <v>       0.26925284       0.92958549       0.64873773 </v>
    <v>       0.38219700       0.92953949       0.64687681 </v>
    <v>       0.49515857       0.92973935       0.64361129 </v>
    <v>       0.60802397       0.92963843       0.64213139 </v>
    <v>       0.72082763       0.93026649       0.64234665 </v>
    <v>       0.08702797       0.06973350       0.35765335 </v>
    <v>       0.19983164       0.07036156       0.35786861 </v>
    <v>       0.31269705       0.07026064       0.35638871 </v>
    <v>       0.42565860       0.07046051       0.35312319 </v>
    <v>       0.53860276       0.07041450       0.35126227 </v>
    <v>       0.65146162       0.07031214       0.35092998 </v>
    <v>       0.76354854       0.07177097       0.35329922 </v>
    <v>       0.10072476       0.57018069       0.85892561 </v>
    <v>       0.21267837       0.57025729       0.85728341 </v>
    <v>       0.32558551       0.57033360       0.85587190 </v>
    <v>       0.43865405       0.57036089       0.85261638 </v>
    <v>       0.55177088       0.57035112       0.85112782 </v>
    <v>       0.66460566       0.57052162       0.85032286 </v>
    <v>       0.77824048       0.57186704       0.85120679 </v>
    <v>       0.02961507       0.42813296       0.14879319 </v>
    <v>       0.14324990       0.42947838       0.14967712 </v>
    <v>       0.25608467       0.42964888       0.14887216 </v>
    <v>       0.36920150       0.42963911       0.14738360 </v>
    <v>       0.48227009       0.42966640       0.14412808 </v>
    <v>       0.59517722       0.42974271       0.14271657 </v>
    <v>       0.70713082       0.42981931       0.14107437 </v>
    <v>       0.08702797       0.43026649       0.35765335 </v>
    <v>       0.19983164       0.42963843       0.35786861 </v>
    <v>       0.31269705       0.42973935       0.35638871 </v>
    <v>       0.42565860       0.42953949       0.35312319 </v>
    <v>       0.53860276       0.42958549       0.35126227 </v>
    <v>       0.65146162       0.42968785       0.35092998 </v>
    <v>       0.76354854       0.42822902       0.35329922 </v>
    <v>       0.04430705       0.57177098       0.64670078 </v>
    <v>       0.15639396       0.57031215       0.64907002 </v>
    <v>       0.26925284       0.57041451       0.64873773 </v>
    <v>       0.38219700       0.57046051       0.64687681 </v>
    <v>       0.49515857       0.57026065       0.64361129 </v>
    <v>       0.60802397       0.57036157       0.64213139 </v>
    <v>       0.72082763       0.56973351       0.64234665 </v>
    <v>       0.01766196       0.75000002       0.62498528 </v>
    <v>       0.13114866       0.75000002       0.59473527 </v>
    <v>       0.24399157       0.75000002       0.59412397 </v>
    <v>       0.35691768       0.75000002       0.59241865 </v>
    <v>       0.46989161       0.75000002       0.58918840 </v>
    <v>       0.58277353       0.75000002       0.58734369 </v>
    <v>       0.69566300       0.75000002       0.58778029 </v>
    <v>       0.11219256       0.25000000       0.41221971 </v>
    <v>       0.22508201       0.25000000       0.41265631 </v>
    <v>       0.33796397       0.25000000       0.41081160 </v>
    <v>       0.45093784       0.25000000       0.40758135 </v>
    <v>       0.56386403       0.25000000       0.40587603 </v>
    <v>       0.67670693       0.25000000       0.40526473 </v>
    <v>       0.79019362       0.25000000       0.37501472 </v>
    <v>       0.05537658       0.25000000       0.08624211 </v>
    <v>       0.16856644       0.25000000       0.09553478 </v>
    <v>       0.28136513       0.25000000       0.09399518 </v>
    <v>       0.39447133       0.25000000       0.09200151 </v>
    <v>       0.50753367       0.25000000       0.08867312 </v>
    <v>       0.62041834       0.25000000       0.08739984 </v>
    <v>       0.73220454       0.25000000       0.08623639 </v>
    <v>       0.07565104       0.75000002       0.91376359 </v>
    <v>       0.18743724       0.75000002       0.91260014 </v>
    <v>       0.30032190       0.75000002       0.91132686 </v>
    <v>       0.41338424       0.75000002       0.90799847 </v>
    <v>       0.52649049       0.75000002       0.90600479 </v>
    <v>       0.63928918       0.75000002       0.90446520 </v>
    <v>       0.75247903       0.75000002       0.91375787 </v>
    <v>       0.02985020       0.25000000       0.96662750 </v>
    <v>       0.14378245       0.25000000       0.96841020 </v>
    <v>       0.25651619       0.25000000       0.96738768 </v>
    <v>       0.36958375       0.25000000       0.96584740 </v>
    <v>       0.48264034       0.25000000       0.96269354 </v>
    <v>       0.59555807       0.25000000       0.96125144 </v>
    <v>       0.70797311       0.25000000       0.95903077 </v>
    <v>       0.09988245       0.75000002       0.04096925 </v>
    <v>       0.21229748       0.75000002       0.03874857 </v>
    <v>       0.32521528       0.75000002       0.03730648 </v>
    <v>       0.43827179       0.75000002       0.03415262 </v>
    <v>       0.55133941       0.75000002       0.03261233 </v>
    <v>       0.66407315       0.75000002       0.03158981 </v>
    <v>       0.77800539       0.75000002       0.03337252 </v>
    <v>       0.03826722       0.75000002       0.46744099 </v>
    <v>       0.15602464       0.75000002       0.46777226 </v>
    <v>       0.26885327       0.75000002       0.46724603 </v>
    <v>       0.38169916       0.75000002       0.46528375 </v>
    <v>       0.49473340       0.75000002       0.46211235 </v>
    <v>       0.60767915       0.75000002       0.46071048 </v>
    <v>       0.72048039       0.75000002       0.46081447 </v>
    <v>       0.08737515       0.25000000       0.53918544 </v>
    <v>       0.20017645       0.25000000       0.53928944 </v>
    <v>       0.31312220       0.25000000       0.53788757 </v>
    <v>       0.42615641       0.25000000       0.53471617 </v>
    <v>       0.53900235       0.25000000       0.53275389 </v>
    <v>       0.65183097       0.25000000       0.53222765 </v>
    <v>       0.76958838       0.25000000       0.53255893 </v>
   </varray>
  </structure>
  <varray name="forces" >
   <v>       0.02302146      -0.00000000      -0.03241313 </v>
   <v>       0.03796216      -0.00000000      -0.01895806 </v>
   <v>       0.03308192      -0.00000000      -0.02369683 </v>
   <v>       0.03665993      -0.00000000      -0.01573075 </v>
   <v>       0.03602375      -0.00000000      -0.02743481 </v>
   <v>       0.03579714      -0.00000000      -0.01488750 </v>
   <v>       0.03989663      -0.00000000      -0.02312906 </v>
   <v>      -0.03989663      -0.00000000       0.02312906 </v>
   <v>      -0.03579714      -0.00000000       0.01488750 </v>
   <v>      -0.03602375      -0.00000000       0.02743481 </v>
   <v>      -0.03665993      -0.00000000       0.01573075 </v>
   <v>      -0.03308192      -0.00000000       0.02369683 </v>
   <v>      -0.03796216      -0.00000000       0.01895806 </v>
   <v>      -0.02302146      -0.00000000       0.03241313 </v>
   <v>      -0.05588413      -0.00000000      -0.02153567 </v>
   <v>      -0.03353239      -0.00000000      -0.01976227 </v>
   <v>      -0.03623829      -0.00000000      -0.02394321 </v>
   <v>      -0.02978284      -0.00000000      -0.02467101 </v>
   <v>      -0.04251656      -0.00000000      -0.01328515 </v>
   <v>      -0.03686361      -0.00000000      -0.02478236 </v>
   <v>      -0.03955038      -0.00000000      -0.01355305 </v>
   <v>       0.03955038      -0.00000000       0.01355305 </v>
   <v>       0.03686361      -0.00000000       0.02478236 </v>
   <v>       0.04251656      -0.00000000       0.01328515 </v>
   <v>       0.02978284      -0.00000000       0.02467101 </v>
   <v>       0.03623829      -0.00000000       0.02394321 </v>
   <v>       0.03353239      -0.00000000       0.01976227 </v>
   <v>       0.05588413      -0.00000000       0.02153567 </v>
   <v>       0.00938224      -0.00000000      -0.00125786 </v>
   <v>       0.01612866      -0.00000000       0.01932925 </v>
   <v>       0.01988673      -0.00000000       0.02156078 </v>
   <v>       0.01433782      -0.00000000       0.02645057 </v>
   <v>       0.00959977      -0.00000000       0.01997173 </v>
   <v>       0.01573711      -0.00000000       0.03542588 </v>
   <v>       0.00866990      -0.00000000       0.02916597 </v>
   <v>      -0.00866990      -0.00000000      -0.02916597 </v>
   <v>      -0.01573711      -0.00000000      -0.03542588 </v>
   <v>      -0.00959977      -0.00000000      -0.01997173 </v>
   <v>      -0.01433782      -0.00000000      -0.02645057 </v>
   <v>      -0.01988673      -0.00000000      -0.02156078 </v>
   <v>      -0.01612866      -0.00000000      -0.01932925 </v>
   <v>      -0.00938224      -0.00000000       0.00125786 </v>
   <v>      -0.02574672      -0.00000000       0.03582202 </v>
   <v>      -0.00532654      -0.00000000       0.03103310 </v>
   <v>      -0.01919015      -0.00000000       0.02823028 </v>
   <v>      -0.01107867      -0.00000000       0.02410479 </v>
   <v>      -0.01523741      -0.00000000       0.02771142 </v>
   <v>      -0.01561739      -0.00000000       0.02866429 </v>
   <v>      -0.00193836      -0.00000000       0.01690800 </v>
   <v>       0.00193836      -0.00000000      -0.01690800 </v>
   <v>       0.01561739      -0.00000000      -0.02866429 </v>
   <v>       0.01523741      -0.00000000      -0.02771142 </v>
   <v>       0.01107867      -0.00000000      -0.02410479 </v>
   <v>       0.01919015      -0.00000000      -0.02823028 </v>
   <v>       0.00532654      -0.00000000      -0.03103310 </v>
   <v>       0.02574672      -0.00000000      -0.03582202 </v>
   <v>       0.02536521       0.00318058       0.00755257 </v>
   <v>       0.02512144       0.02512396      -0.01129341 </v>
   <v>       0.03838895       0.03055660      -0.01174354 </v>
   <v>       0.02592172       0.03114668      -0.01646592 </v>
   <v>       0.01770094       0.02092359      -0.01123934 </v>
   <v>       0.01610000       0.03300398      -0.02081078 </v>
   <v>       0.01288501       0.00276006      -0.00217996 </v>
   <v>      -0.01288501      -0.00276006       0.00217996 </v>
   <v>      -0.01610000      -0.03300398       0.02081078 </v>
   <v>      -0.01770094      -0.02092359       0.01123934 </v>
   <v>      -0.02592172      -0.03114668       0.01646592 </v>
   <v>      -0.03838895      -0.03055660       0.01174354 </v>
   <v>      -0.02512144      -0.02512396       0.01129341 </v>
   <v>      -0.02536521      -0.00318058      -0.00755257 </v>
   <v>      -0.01980900      -0.03034123       0.00131526 </v>
   <v>      -0.02030509      -0.03782288      -0.00688219 </v>
   <v>      -0.02625760      -0.02277369      -0.01019609 </v>
   <v>      -0.03246096      -0.02673798      -0.01011108 </v>
   <v>      -0.01924892      -0.02396030      -0.00535482 </v>
   <v>      -0.02337653      -0.02785592      -0.00920105 </v>
   <v>      -0.02578863      -0.01345414       0.00391045 </v>
   <v>       0.02578863       0.01345414      -0.00391045 </v>
   <v>       0.02337653       0.02785592       0.00920105 </v>
   <v>       0.01924892       0.02396030       0.00535482 </v>
   <v>       0.03246096       0.02673798       0.01011108 </v>
   <v>       0.02625760       0.02277369       0.01019609 </v>
   <v>       0.02030509       0.03782288       0.00688219 </v>
   <v>       0.01980900       0.03034123      -0.00131526 </v>
   <v>      -0.01288501       0.00276006       0.00217996 </v>
   <v>      -0.01610000       0.03300398       0.02081078 </v>
   <v>      -0.01770094       0.02092359       0.01123934 </v>
   <v>      -0.02592172       0.03114668       0.01646592 </v>
   <v>      -0.03838895       0.03055660       0.01174354 </v>
   <v>      -0.02512144       0.02512396       0.01129341 </v>
   <v>      -0.02536521       0.00318058      -0.00755257 </v>
   <v>       0.02536521      -0.00318058       0.00755257 </v>
   <v>       0.02512144      -0.02512396      -0.01129341 </v>
   <v>       0.03838895      -0.03055660      -0.01174354 </v>
   <v>       0.02592172      -0.03114668      -0.01646592 </v>
   <v>       0.01770094      -0.02092359      -0.01123934 </v>
   <v>       0.01610000      -0.03300398      -0.02081078 </v>
[...]
       <r>   -13.7372     0.0000   112.0000 </r>
       <r>   -13.6214     0.0000   112.0000 </r>
       <r>   -13.5056     0.0000   112.0000 </r>
       <r>   -13.3898     0.0000   112.0000 </r>
       <r>   -13.2739     0.0000   112.0000 </r>
       <r>   -13.1581     0.0000   112.0000 </r>
       <r>   -13.0423     0.0000   112.0000 </r>
       <r>   -12.9265     0.0000   112.0000 </r>
       <r>   -12.8107     0.0000   112.0000 </r>
       <r>   -12.6949     0.0000   112.0000 </r>
       <r>   -12.5791     0.0000   112.0000 </r>
       <r>   -12.4633     0.0000   112.0000 </r>
       <r>   -12.3474     0.0000   112.0000 </r>
       <r>   -12.2316     0.0000   112.0000 </r>
       <r>   -12.1158     0.0000   112.0000 </r>
       <r>   -12.0000     0.0000   112.0000 </r>
       <r>   -11.8842    22.1443   114.5646 </r>
       <r>   -11.7684    34.7857   120.0286 </r>
       <r>   -11.6526    15.1106   124.0000 </r>
       <r>   -11.5368     0.0000   124.0000 </r>
       <r>   -11.4209     0.0000   124.0000 </r>
       <r>   -11.3051     0.0000   124.0000 </r>
       <r>   -11.1893     0.0000   124.0000 </r>
       <r>   -11.0735   126.9464   138.7020 </r>
       <r>   -10.9577   352.6483   198.5412 </r>
       <r>   -10.8419   428.9237   272.7248 </r>
       <r>   -10.7261   405.2323   339.7811 </r>
       <r>   -10.6102   604.8156   447.4453 </r>
       <r>   -10.4944     0.0000   448.0000 </r>
       <r>   -10.3786     0.0000   448.0000 </r>
       <r>   -10.2628     0.0000   448.0000 </r>
       <r>   -10.1470     0.0000   448.0000 </r>
       <r>   -10.0312     0.0000   448.0000 </r>
       <r>    -9.9154     0.0000   448.0000 </r>
       <r>    -9.7996     0.0000   448.0000 </r>
       <r>    -9.6837     0.0000   448.0000 </r>
       <r>    -9.5679     0.0000   448.0000 </r>
       <r>    -9.4521     0.0000   448.0000 </r>
       <r>    -9.3363     0.0000   448.0000 </r>
       <r>    -9.2205     0.0000   448.0000 </r>
       <r>    -9.1047     0.0000   448.0000 </r>
       <r>    -8.9889     0.0000   448.0000 </r>
       <r>    -8.8731     0.0000   448.0000 </r>
       <r>    -8.7572     0.0000   448.0000 </r>
       <r>    -8.6414    14.0638   449.6288 </r>
       <r>    -8.5256    36.0906   454.7297 </r>
       <r>    -8.4098   290.0679   491.6435 </r>
       <r>    -8.2940     0.0000   500.0000 </r>
       <r>    -8.1782     0.0000   500.0000 </r>
       <r>    -8.0624     6.2978   500.7294 </r>
       <r>    -7.9466    16.8375   504.0000 </r>
       <r>    -7.8307     0.0000   504.0000 </r>
       <r>    -7.7149     0.0000   504.0000 </r>
       <r>    -7.5991     0.0000   504.0000 </r>
       <r>    -7.4833     0.0000   504.0000 </r>
       <r>    -7.3675     0.0000   504.0000 </r>
       <r>    -7.2517     0.0000   504.0000 </r>
       <r>    -7.1359     0.0000   504.0000 </r>
       <r>    -7.0201     0.0000   504.0000 </r>
       <r>    -6.9042     0.0000   504.0000 </r>
       <r>    -6.7884     0.0000   504.0000 </r>
       <r>    -6.6726     0.0000   504.0000 </r>
       <r>    -6.5568     0.0000   504.0000 </r>
       <r>    -6.4410     0.0000   504.0000 </r>
       <r>    -6.3252     0.0000   504.0000 </r>
       <r>    -6.2094     0.0000   504.0000 </r>
       <r>    -6.0936     0.0000   504.0000 </r>
       <r>    -5.9777     0.0000   504.0000 </r>
       <r>    -5.8619     0.0000   504.0000 </r>
       <r>    -5.7461     0.0000   504.0000 </r>
       <r>    -5.6303     0.0000   504.0000 </r>
       <r>    -5.5145     0.0000   504.0000 </r>
       <r>    -5.3987     0.0000   504.0000 </r>
       <r>    -5.2829     0.0000   504.0000 </r>
       <r>    -5.1671     0.0000   504.0000 </r>
       <r>    -5.0512     0.0000   504.0000 </r>
       <r>    -4.9354     0.0000   504.0000 </r>
       <r>    -4.8196     0.0000   504.0000 </r>
       <r>    -4.7038     0.0000   504.0000 </r>
       <r>    -4.5880     0.0000   504.0000 </r>
       <r>    -4.4722     0.0000   504.0000 </r>
       <r>    -4.3564     0.0000   504.0000 </r>
       <r>    -4.2405     0.0000   504.0000 </r>
       <r>    -4.1247     0.0310   504.0036 </r>
       <r>    -4.0089   117.8175   519.7948 </r>
       <r>    -3.8931   102.4264   539.2873 </r>
       <r>    -3.7773    66.5050   550.8771 </r>
       <r>    -3.6615   165.0630   574.4664 </r>
       <r>    -3.5457   221.5178   617.6296 </r>
       <r>    -3.4299   140.5143   649.4733 </r>
       <r>    -3.3140    50.4605   661.4690 </r>
       <r>    -3.1982    39.6071   666.8370 </r>
       <r>    -3.0824     6.7935   670.2868 </r>
       <r>    -2.9666    12.0885   672.0000 </r>
       <r>    -2.8508     0.0000   672.0000 </r>
       <r>    -2.7350     0.0000   672.0000 </r>
       <r>    -2.6192     0.0000   672.0000 </r>
       <r>    -2.5034     0.0000   672.0000 </r>
       <r>    -2.3875     0.0000   672.0000 </r>
       <r>    -2.2717     0.0000   672.0000 </r>
       <r>    -2.1559     0.0000   672.0000 </r>
       <r>    -2.0401     0.0000   672.0000 </r>
       <r>    -1.9243     0.0000   672.0000 </r>
       <r>    -1.8085     0.0000   672.0000 </r>
       <r>    -1.6927     0.0000   672.0000 </r>
       <r>    -1.5769     0.0000   672.0000 </r>
       <r>    -1.4610     1.2457   672.1443 </r>
       <r>    -1.3452     3.1052   672.6346 </r>
       <r>    -1.2294     3.1942   673.2949 </r>
       <r>    -1.1136     3.7855   674.0134 </r>
       <r>    -0.9978     4.2758   674.8702 </r>
       <r>    -0.8820     7.3705   676.1286 </r>
       <r>    -0.7662    12.8983   678.3188 </r>
       <r>    -0.6504    17.6473   680.9938 </r>
       <r>    -0.5345    17.2181   683.8441 </r>
       <r>    -0.4187    60.8548   692.3228 </r>
       <r>    -0.3029    76.7884   704.8431 </r>
       <r>    -0.1871    77.1901   718.0146 </r>
       <r>    -0.0713    72.6310   730.6116 </r>
       <r>     0.0445    82.2045   743.2703 </r>
       <r>     0.1603    72.2602   755.3687 </r>
       <r>     0.2761    89.9228   769.2392 </r>
       <r>     0.3920    97.4949   784.3911 </r>
       <r>     0.5078   145.5505   808.6066 </r>
       <r>     0.6236   150.2213   831.4975 </r>
       <r>     0.7394   133.2070   853.8521 </r>
       <r>     0.8552   130.3267   875.4435 </r>
       <r>     0.9710    82.7077   891.1036 </r>
       <r>     1.0868   137.6649   912.5184 </r>
       <r>     1.2026   134.8067   936.6873 </r>
       <r>     1.3185    59.5650   946.4734 </r>
       <r>     1.4343    89.1530   959.7000 </r>
       <r>     1.5501    75.7693   973.5251 </r>
       <r>     1.6659    82.8260   986.8923 </r>
       <r>     1.7817    67.9607   998.4707 </r>
       <r>     1.8975    34.5488  1007.3762 </r>
       <r>     2.0133     3.4028  1007.9441 </r>
       <r>     2.1291     0.0000  1008.0000 </r>
       <r>     2.2450     0.0000  1008.0000 </r>
       <r>     2.3608     0.0000  1008.0000 </r>
       <r>     2.4766     0.0000  1008.0000 </r>
       <r>     2.5924     0.0000  1008.0000 </r>
       <r>     2.7082     0.0000  1008.0000 </r>
       <r>     2.8240    18.7532  1010.1719 </r>
       <r>     2.9398    48.5052  1017.7425 </r>
       <r>     3.0557    58.7324  1027.4020 </r>
       <r>     3.1715    62.8174  1037.8001 </r>
       <r>     3.2873    75.2588  1048.9909 </r>
       <r>     3.4031    80.0491  1063.1957 </r>
       <r>     3.5189    76.9687  1075.4390 </r>
       <r>     3.6347    71.8217  1087.7179 </r>
       <r>     3.7505    84.1066  1101.6156 </r>
       <r>     3.8663    69.2673  1113.0720 </r>
       <r>     3.9822    78.9433  1125.4176 </r>
       <r>     4.0980    82.4272  1139.0711 </r>
       <r>     4.2138    70.5123  1152.2662 </r>
       <r>     4.3296    62.4888  1163.0120 </r>
       <r>     4.4454    91.4134  1177.8368 </r>
       <r>     4.5612    83.1149  1192.2758 </r>
       <r>     4.6770    72.9490  1205.5484 </r>
       <r>     4.7928    34.6030  1212.1075 </r>
       <r>     4.9087    13.4410  1214.7816 </r>
       <r>     5.0245     5.9123  1215.8597 </r>
       <r>     5.1403     0.2159  1216.0000 </r>
       <r>     5.2561     0.0000  1216.0000 </r>
       <r>     5.3719     0.0000  1216.0000 </r>
       <r>     5.4877     0.0000  1216.0000 </r>
       <r>     5.6035     0.0000  1216.0000 </r>
       <r>     5.7193     0.0000  1216.0000 </r>
       <r>     5.8352     0.0000  1216.0000 </r>
       <r>     5.9510     0.0000  1216.0000 </r>
       <r>     6.0668     0.0000  1216.0000 </r>
       <r>     6.1826     0.0000  1216.0000 </r>
       <r>     6.2984     0.0000  1216.0000 </r>
       <r>     6.4142     0.0000  1216.0000 </r>
       <r>     6.5300     0.0000  1216.0000 </r>
       <r>     6.6458     0.0000  1216.0000 </r>
      </set>
     </set>
    </array>
   </total>
  </dos>
 </calculation>
 <structure name="finalpos" >
  <crystal>
   <varray name="basis" >
    <v>      79.49604765       0.00000000       0.06876805 </v>
    <v>       0.00000000       6.71361409       0.00000000 </v>
    <v>       0.01025286       0.00000000      11.50249484 </v>
   </varray>
   <i name="volume">   6138.94330973 </i>
   <varray name="rec_basis" >
    <v>       0.01257925       0.00000000      -0.00001121 </v>
    <v>       0.00000000       0.14895107       0.00000000 </v>
    <v>      -0.00007521       0.00000000       0.08693773 </v>
   </varray>
  </crystal>
  <varray name="positions" >
   <v>       0.01354907       0.25000000       0.70544677 </v>
   <v>       0.12362224       0.25000000       0.69456186 </v>
   <v>       0.23625654       0.25000000       0.69481746 </v>
   <v>       0.34918137       0.25000000       0.69329424 </v>
   <v>       0.46219824       0.25000000       0.69000174 </v>
   <v>       0.57513066       0.25000000       0.68797412 </v>
   <v>       0.68786217       0.25000000       0.68799861 </v>
   <v>       0.11999344       0.75000002       0.31200139 </v>
   <v>       0.23272496       0.75000002       0.31202588 </v>
   <v>       0.34565738       0.75000002       0.30999826 </v>
   <v>       0.45867423       0.75000002       0.30670576 </v>
   <v>       0.57159906       0.75000002       0.30518254 </v>
   <v>       0.68423334       0.75000002       0.30543814 </v>
   <v>       0.79430652       0.75000002       0.29455323 </v>
   <v>       0.06237257       0.75000002       0.19717033 </v>
   <v>       0.17629993       0.75000002       0.19533401 </v>
   <v>       0.28913334       0.75000002       0.19406322 </v>
   <v>       0.40218185       0.75000002       0.19120867 </v>
   <v>       0.51523038       0.75000002       0.18862941 </v>
   <v>       0.62806619       0.75000002       0.18781876 </v>
   <v>       0.74025021       0.75000002       0.18730049 </v>
   <v>       0.06760537       0.25000000       0.81269949 </v>
   <v>       0.17978939       0.25000000       0.81218122 </v>
   <v>       0.29262522       0.25000000       0.81137057 </v>
   <v>       0.40567372       0.25000000       0.80879131 </v>
   <v>       0.51872221       0.25000000       0.80593676 </v>
   <v>       0.63155563       0.25000000       0.80466597 </v>
   <v>       0.74548299       0.25000000       0.80282965 </v>
   <v>       0.03336780       0.75000002       0.91630536 </v>
   <v>       0.14008124       0.75000002       0.91010532 </v>
   <v>       0.25244764       0.75000002       0.90864527 </v>
   <v>       0.36541678       0.75000002       0.90691920 </v>
   <v>       0.47848516       0.75000002       0.90387426 </v>
   <v>       0.59152564       0.75000002       0.90221863 </v>
   <v>       0.70464649       0.75000002       0.90235855 </v>
   <v>       0.10320911       0.25000000       0.09764143 </v>
   <v>       0.21632995       0.25000000       0.09778135 </v>
   <v>       0.32937044       0.25000000       0.09612572 </v>
   <v>       0.44243882       0.25000000       0.09308078 </v>
   <v>       0.55540796       0.25000000       0.09135470 </v>
   <v>       0.66777436       0.25000000       0.08989466 </v>
   <v>       0.77448779       0.25000000       0.08369462 </v>
   <v>       0.04812015       0.25000000       0.39906353 </v>
   <v>       0.16007515       0.25000000       0.40857942 </v>
   <v>       0.27291396       0.25000000       0.40844299 </v>
   <v>       0.38586758       0.25000000       0.40680836 </v>
   <v>       0.49883406       0.25000000       0.40338492 </v>
   <v>       0.61172101       0.25000000       0.40238790 </v>
   <v>       0.72390631       0.25000000       0.40029515 </v>
   <v>       0.08394925       0.75000002       0.59970489 </v>
   <v>       0.19613460       0.75000002       0.59761214 </v>
   <v>       0.30902148       0.75000002       0.59661512 </v>
   <v>       0.42198797       0.75000002       0.59319168 </v>
   <v>       0.53494164       0.75000002       0.59155705 </v>
   <v>       0.64778045       0.75000002       0.59142062 </v>
   <v>       0.75973544       0.75000002       0.60093651 </v>
   <v>       0.02961507       0.07186704       0.14879319 </v>
   <v>       0.14324990       0.07052161       0.14967712 </v>
   <v>       0.25608467       0.07035111       0.14887216 </v>
   <v>       0.36920150       0.07036088       0.14738360 </v>
   <v>       0.48227009       0.07033359       0.14412808 </v>
   <v>       0.59517722       0.07025728       0.14271657 </v>
   <v>       0.70713082       0.07018068       0.14107437 </v>
   <v>       0.10072476       0.92981931       0.85892561 </v>
   <v>       0.21267837       0.92974271       0.85728341 </v>
   <v>       0.32558551       0.92966640       0.85587190 </v>
   <v>       0.43865405       0.92963911       0.85261638 </v>
   <v>       0.55177088       0.92964888       0.85112782 </v>
   <v>       0.66460566       0.92947838       0.85032286 </v>
   <v>       0.77824048       0.92813296       0.85120679 </v>
   <v>       0.04430705       0.92822902       0.64670078 </v>
   <v>       0.15639396       0.92968785       0.64907002 </v>
   <v>       0.26925284       0.92958549       0.64873773 </v>
   <v>       0.38219700       0.92953949       0.64687681 </v>
   <v>       0.49515857       0.92973935       0.64361129 </v>
   <v>       0.60802397       0.92963843       0.64213139 </v>
   <v>       0.72082763       0.93026649       0.64234665 </v>
   <v>       0.08702797       0.06973350       0.35765335 </v>
   <v>       0.19983164       0.07036156       0.35786861 </v>
   <v>       0.31269705       0.07026064       0.35638871 </v>
   <v>       0.42565860       0.07046051       0.35312319 </v>
   <v>       0.53860276       0.07041450       0.35126227 </v>
   <v>       0.65146162       0.07031214       0.35092998 </v>
   <v>       0.76354854       0.07177097       0.35329922 </v>
   <v>       0.10072476       0.57018069       0.85892561 </v>
   <v>       0.21267837       0.57025729       0.85728341 </v>
   <v>       0.32558551       0.57033360       0.85587190 </v>
   <v>       0.43865405       0.57036089       0.85261638 </v>
   <v>       0.55177088       0.57035112       0.85112782 </v>
   <v>       0.66460566       0.57052162       0.85032286 </v>
   <v>       0.77824048       0.57186704       0.85120679 </v>
   <v>       0.02961507       0.42813296       0.14879319 </v>
   <v>       0.14324990       0.42947838       0.14967712 </v>
   <v>       0.25608467       0.42964888       0.14887216 </v>
   <v>       0.36920150       0.42963911       0.14738360 </v>
   <v>       0.48227009       0.42966640       0.14412808 </v>
   <v>       0.59517722       0.42974271       0.14271657 </v>
   <v>       0.70713082       0.42981931       0.14107437 </v>
   <v>       0.08702797       0.43026649       0.35765335 </v>
   <v>       0.19983164       0.42963843       0.35786861 </v>
   <v>       0.31269705       0.42973935       0.35638871 </v>
   <v>       0.42565860       0.42953949       0.35312319 </v>
   <v>       0.53860276       0.42958549       0.35126227 </v>
   <v>       0.65146162       0.42968785       0.35092998 </v>
   <v>       0.76354854       0.42822902       0.35329922 </v>
   <v>       0.04430705       0.57177098       0.64670078 </v>
   <v>       0.15639396       0.57031215       0.64907002 </v>
   <v>       0.26925284       0.57041451       0.64873773 </v>
   <v>       0.38219700       0.57046051       0.64687681 </v>
   <v>       0.49515857       0.57026065       0.64361129 </v>
   <v>       0.60802397       0.57036157       0.64213139 </v>
   <v>       0.72082763       0.56973351       0.64234665 </v>
   <v>       0.01766196       0.75000002       0.62498528 </v>
   <v>       0.13114866       0.75000002       0.59473527 </v>
   <v>       0.24399157       0.75000002       0.59412397 </v>
   <v>       0.35691768       0.75000002       0.59241865 </v>
   <v>       0.46989161       0.75000002       0.58918840 </v>
   <v>       0.58277353       0.75000002       0.58734369 </v>
   <v>       0.69566300       0.75000002       0.58778029 </v>
   <v>       0.11219256       0.25000000       0.41221971 </v>
   <v>       0.22508201       0.25000000       0.41265631 </v>
   <v>       0.33796397       0.25000000       0.41081160 </v>
   <v>       0.45093784       0.25000000       0.40758135 </v>
   <v>       0.56386403       0.25000000       0.40587603 </v>
   <v>       0.67670693       0.25000000       0.40526473 </v>
   <v>       0.79019362       0.25000000       0.37501472 </v>
   <v>       0.05537658       0.25000000       0.08624211 </v>
   <v>       0.16856644       0.25000000       0.09553478 </v>
   <v>       0.28136513       0.25000000       0.09399518 </v>
   <v>       0.39447133       0.25000000       0.09200151 </v>
   <v>       0.50753367       0.25000000       0.08867312 </v>
   <v>       0.62041834       0.25000000       0.08739984 </v>
   <v>       0.73220454       0.25000000       0.08623639 </v>
   <v>       0.07565104       0.75000002       0.91376359 </v>
   <v>       0.18743724       0.75000002       0.91260014 </v>
   <v>       0.30032190       0.75000002       0.91132686 </v>
   <v>       0.41338424       0.75000002       0.90799847 </v>
   <v>       0.52649049       0.75000002       0.90600479 </v>
   <v>       0.63928918       0.75000002       0.90446520 </v>
   <v>       0.75247903       0.75000002       0.91375787 </v>
   <v>       0.02985020       0.25000000       0.96662750 </v>
   <v>       0.14378245       0.25000000       0.96841020 </v>
   <v>       0.25651619       0.25000000       0.96738768 </v>
   <v>       0.36958375       0.25000000       0.96584740 </v>
   <v>       0.48264034       0.25000000       0.96269354 </v>
   <v>       0.59555807       0.25000000       0.96125144 </v>
   <v>       0.70797311       0.25000000       0.95903077 </v>
   <v>       0.09988245       0.75000002       0.04096925 </v>
   <v>       0.21229748       0.75000002       0.03874857 </v>
   <v>       0.32521528       0.75000002       0.03730648 </v>
   <v>       0.43827179       0.75000002       0.03415262 </v>
   <v>       0.55133941       0.75000002       0.03261233 </v>
   <v>       0.66407315       0.75000002       0.03158981 </v>
   <v>       0.77800539       0.75000002       0.03337252 </v>
   <v>       0.03826722       0.75000002       0.46744099 </v>
   <v>       0.15602464       0.75000002       0.46777226 </v>
   <v>       0.26885327       0.75000002       0.46724603 </v>
   <v>       0.38169916       0.75000002       0.46528375 </v>
   <v>       0.49473340       0.75000002       0.46211235 </v>
   <v>       0.60767915       0.75000002       0.46071048 </v>
   <v>       0.72048039       0.75000002       0.46081447 </v>
   <v>       0.08737515       0.25000000       0.53918544 </v>
   <v>       0.20017645       0.25000000       0.53928944 </v>
   <v>       0.31312220       0.25000000       0.53788757 </v>
   <v>       0.42615641       0.25000000       0.53471617 </v>
   <v>       0.53900235       0.25000000       0.53275389 </v>
   <v>       0.65183097       0.25000000       0.53222765 </v>
   <v>       0.76958838       0.25000000       0.53255893 </v>
  </varray>
 </structure>
</modeling>
