<?xml version="1.0" encoding="ISO-8859-1"?>
<modeling>
 <generator>
  <i name="program" type="string">vasp </i>
  <i name="version" type="string">5.4.4.18Apr17-6-g9f103f2a35  </i>
  <i name="subversion" type="string">(build Nov 21 2017 15:30:27) complex            parallel </i>
  <i name="platform" type="string">LinuxIFC </i>
  <i name="date" type="string">2020 11 20 </i>
  <i name="time" type="string">14:56:54 </i>
 </generator>
 <incar>
  <i type="string" name="PREC">normal</i>
  <i type="int" name="ICHARG">    11</i>
  <i type="int" name="NELM">   100</i>
  <i name="EDIFF">      0.00000100</i>
  <i name="EDIFFG">     -0.01000000</i>
  <i name="ENCUT">    500.00000000</i>
  <i name="POTIM">      0.30000000</i>
  <i type="string" name="LREAL"> Auto       ! Projection in reciprocal s</i>
  <i type="int" name="ISMEAR">     0</i>
  <i name="SIGMA">      0.01000000</i>
  <i type="logical" name="LWAVE"> T  </i>
  <i type="logical" name="LCHARG"> T  </i>
  <i type="logical" name="LASPH"> T  </i>
  <v type="int" name="KPOINT_BSE">    -1     0     0     0</v>
  <i type="int" name="NELM">   100</i>
  <i type="string" name="GGA"> MK</i>
  <i name="PARAM1">      0.12340000</i>
  <i name="PARAM2">      0.71135700</i>
  <i type="logical" name="LUSE_VDW"> T  </i>
  <i name="Zab_VDW">     -1.88670000</i>
  <i name="AGGAC">      0.00000000</i>
  <i type="logical" name="LASPH"> T  </i>
 </incar>
 <structure name="primitive_cell" >
  <crystal>
   <varray name="basis" >
    <v>      37.35019360       0.00000000       0.00000000 </v>
    <v>       0.00000000       6.65980568       0.00000000 </v>
    <v>       0.00000000       0.00000000      11.40902835 </v>
   </varray>
   <i name="volume">   2837.93911359 </i>
   <varray name="rec_basis" >
    <v>       0.02677362       0.00000000       0.00000000 </v>
    <v>       0.00000000       0.15015453       0.00000000 </v>
    <v>       0.00000000       0.00000000       0.08764988 </v>
   </varray>
  </crystal>
  <varray name="positions" >
   <v>       0.00844337       0.25000000      -0.29981561 </v>
   <v>       0.04331757       0.25000000      -0.03691411 </v>
   <v>       0.07447772      -0.42950309      -0.35845624 </v>
   <v>       0.07447772      -0.07049691      -0.35845624 </v>
   <v>       0.01790832      -0.24999998      -0.38260873 </v>
   <v>       0.05151740      -0.24999998      -0.08780370 </v>
   <v>       0.08318220       0.25000000       0.39575738 </v>
   <v>       0.12425386       0.25000000      -0.19101168 </v>
   <v>       0.06221416      -0.24999998       0.46058378 </v>
   <v>       0.04305183       0.42957488       0.14668631 </v>
   <v>       0.04305183       0.07042511       0.14668631 </v>
   <v>       0.09780108       0.25000000       0.08283209 </v>
   <v>       0.16674969       0.25000000      -0.46443635 </v>
   <v>       0.14178185      -0.24999998      -0.09134659 </v>
   <v>       0.15889331      -0.24999998      -0.40468309 </v>
   <v>       0.16588798       0.43136958       0.35252370 </v>
   <v>       0.16588798       0.06863041       0.35252370 </v>
   <v>       0.19514802      -0.43104315      -0.14643186 </v>
   <v>       0.19514802      -0.06895685      -0.14643186 </v>
   <v>       0.11333916      -0.24999998       0.19228179 </v>
   <v>       0.20060884       0.25000000       0.09301577 </v>
   <v>       0.21942533       0.25000000       0.40784444 </v>
   <v>       0.19338723      -0.24999998       0.03703756 </v>
   <v>       0.24426822       0.25000000      -0.31021476 </v>
   <v>       0.26066666      -0.24999998      -0.40792571 </v>
   <v>       0.23626767      -0.24999998       0.30920072 </v>
   <v>       0.28685181       0.25000000      -0.03669607 </v>
   <v>       0.27888763      -0.24999998      -0.09491677 </v>
   <v>       0.28568822       0.43063234       0.14578235 </v>
   <v>       0.28568822       0.06936765       0.14578235 </v>
   <v>       0.31456413      -0.43063234      -0.35421763 </v>
   <v>       0.31456413      -0.06936766      -0.35421763 </v>
   <v>       0.32136469       0.25000000       0.40508331 </v>
   <v>       0.31340054      -0.24999998       0.46330385 </v>
   <v>       0.33958569       0.25000000       0.09207423 </v>
   <v>       0.36398468       0.25000000      -0.19079924 </v>
   <v>       0.38082697      -0.24999998      -0.09215552 </v>
   <v>       0.35598413      -0.24999998       0.18978518 </v>
   <v>       0.40686509       0.25000000      -0.46296246 </v>
   <v>       0.39964350      -0.24999998      -0.40698425 </v>
   <v>       0.40510430       0.43104315       0.35356814 </v>
   <v>       0.40510430       0.06895684       0.35356814 </v>
   <v>       0.43436436      -0.43136958      -0.14747630 </v>
   <v>       0.43436436      -0.06863042      -0.14747630 </v>
   <v>      -0.41765597       0.25000000       0.11739121 </v>
   <v>       0.43350267      -0.24999998       0.03556367 </v>
   <v>       0.44135902       0.25000000       0.09531693 </v>
   <v>      -0.40819102      -0.24999998       0.20018433 </v>
   <v>      -0.44279949      -0.42957488      -0.35331367 </v>
   <v>      -0.44279949      -0.07042512      -0.35331367 </v>
   <v>       0.45847045       0.25000000       0.40865337 </v>
   <v>      -0.44306521      -0.24999998       0.46308580 </v>
   <v>      -0.45126507       0.25000000       0.41219638 </v>
   <v>      -0.46196183       0.25000000      -0.03941614 </v>
   <v>       0.48691319       0.25000000      -0.30771815 </v>
   <v>       0.47599844      -0.24999998       0.30898828 </v>
   <v>      -0.47422536       0.42950309       0.14154373 </v>
   <v>      -0.47422536       0.07049690       0.14154373 </v>
   <v>      -0.48292982      -0.24999998      -0.10424270 </v>
   <v>      -0.49754878      -0.24999998      -0.41716784 </v>
  </varray>
 </structure>
 <varray name="primitive_index" >
  <v type="int" >        1 </v>
  <v type="int" >       51 </v>
  <v type="int" >       38 </v>
  <v type="int" >       26 </v>
  <v type="int" >       41 </v>
  <v type="int" >       11 </v>
  <v type="int" >       16 </v>
  <v type="int" >        9 </v>
  <v type="int" >       56 </v>
  <v type="int" >       33 </v>
  <v type="int" >       21 </v>
  <v type="int" >       46 </v>
  <v type="int" >       59 </v>
  <v type="int" >       49 </v>
  <v type="int" >       19 </v>
  <v type="int" >       36 </v>
  <v type="int" >       29 </v>
  <v type="int" >       31 </v>
  <v type="int" >       24 </v>
  <v type="int" >        6 </v>
  <v type="int" >       14 </v>
  <v type="int" >       44 </v>
  <v type="int" >       54 </v>
  <v type="int" >        2 </v>
  <v type="int" >       42 </v>
  <v type="int" >        4 </v>
  <v type="int" >       52 </v>
  <v type="int" >       12 </v>
  <v type="int" >       34 </v>
  <v type="int" >       22 </v>
  <v type="int" >       39 </v>
  <v type="int" >       27 </v>
  <v type="int" >       17 </v>
  <v type="int" >       57 </v>
  <v type="int" >       47 </v>
  <v type="int" >       10 </v>
  <v type="int" >       50 </v>
  <v type="int" >        7 </v>
  <v type="int" >       60 </v>
  <v type="int" >       20 </v>
  <v type="int" >       37 </v>
  <v type="int" >       30 </v>
  <v type="int" >       32 </v>
  <v type="int" >       25 </v>
  <v type="int" >       48 </v>
  <v type="int" >       55 </v>
  <v type="int" >       15 </v>
  <v type="int" >        8 </v>
  <v type="int" >       40 </v>
  <v type="int" >       28 </v>
  <v type="int" >       45 </v>
  <v type="int" >       58 </v>
  <v type="int" >       18 </v>
  <v type="int" >       53 </v>
  <v type="int" >        3 </v>
  <v type="int" >        5 </v>
  <v type="int" >       35 </v>
  <v type="int" >       23 </v>
  <v type="int" >       13 </v>
  <v type="int" >       43 </v>
 </varray>
 <kpoints>
  <generation param="listgenerated">
   <i name="divisions" type="int">      20 </i>
   <v>       0.00000000       0.00000000       0.00000000 </v>
   <v>       0.00000000       0.50000000       0.00000000 </v>
   <v>       0.00000000       0.50000000       0.50000000 </v>
   <v>       0.00000000       0.00000000       0.50000000 </v>
   <v>       0.00000000       0.00000000       0.00000000 </v>
  </generation>
  <varray name="kpointlist" >
   <v>       0.00000000       0.00000000       0.00000000 </v>
   <v>       0.00000000       0.02631579       0.00000000 </v>
   <v>       0.00000000       0.05263158       0.00000000 </v>
   <v>       0.00000000       0.07894737       0.00000000 </v>
   <v>       0.00000000       0.10526316       0.00000000 </v>
   <v>       0.00000000       0.13157895       0.00000000 </v>
   <v>       0.00000000       0.15789474       0.00000000 </v>
   <v>       0.00000000       0.18421053       0.00000000 </v>
   <v>       0.00000000       0.21052632       0.00000000 </v>
   <v>       0.00000000       0.23684211       0.00000000 </v>
   <v>       0.00000000       0.26315789       0.00000000 </v>
   <v>       0.00000000       0.28947368       0.00000000 </v>
   <v>       0.00000000       0.31578947       0.00000000 </v>
   <v>       0.00000000       0.34210526       0.00000000 </v>
   <v>       0.00000000       0.36842105       0.00000000 </v>
   <v>       0.00000000       0.39473684       0.00000000 </v>
   <v>       0.00000000       0.42105263       0.00000000 </v>
   <v>       0.00000000       0.44736842       0.00000000 </v>
   <v>       0.00000000       0.47368421       0.00000000 </v>
   <v>       0.00000000       0.50000000       0.00000000 </v>
   <v>       0.00000000       0.50000000       0.00000000 </v>
   <v>       0.00000000       0.50000000       0.02631579 </v>
   <v>       0.00000000       0.50000000       0.05263158 </v>
   <v>       0.00000000       0.50000000       0.07894737 </v>
   <v>       0.00000000       0.50000000       0.10526316 </v>
   <v>       0.00000000       0.50000000       0.13157895 </v>
   <v>       0.00000000       0.50000000       0.15789474 </v>
   <v>       0.00000000       0.50000000       0.18421053 </v>
   <v>       0.00000000       0.50000000       0.21052632 </v>
   <v>       0.00000000       0.50000000       0.23684211 </v>
   <v>       0.00000000       0.50000000       0.26315789 </v>
   <v>       0.00000000       0.50000000       0.28947368 </v>
   <v>       0.00000000       0.50000000       0.31578947 </v>
   <v>       0.00000000       0.50000000       0.34210526 </v>
   <v>       0.00000000       0.50000000       0.36842105 </v>
   <v>       0.00000000       0.50000000       0.39473684 </v>
   <v>       0.00000000       0.50000000       0.42105263 </v>
   <v>       0.00000000       0.50000000       0.44736842 </v>
   <v>       0.00000000       0.50000000       0.47368421 </v>
   <v>       0.00000000       0.50000000       0.50000000 </v>
   <v>       0.00000000       0.50000000       0.50000000 </v>
   <v>       0.00000000       0.47368421       0.50000000 </v>
   <v>       0.00000000       0.44736842       0.50000000 </v>
   <v>       0.00000000       0.42105263       0.50000000 </v>
   <v>       0.00000000       0.39473684       0.50000000 </v>
   <v>       0.00000000       0.36842105       0.50000000 </v>
   <v>       0.00000000       0.34210526       0.50000000 </v>
   <v>       0.00000000       0.31578947       0.50000000 </v>
   <v>       0.00000000       0.28947368       0.50000000 </v>
   <v>       0.00000000       0.26315789       0.50000000 </v>
   <v>       0.00000000       0.23684211       0.50000000 </v>
   <v>       0.00000000       0.21052632       0.50000000 </v>
   <v>       0.00000000       0.18421053       0.50000000 </v>
   <v>       0.00000000       0.15789474       0.50000000 </v>
   <v>       0.00000000       0.13157895       0.50000000 </v>
   <v>       0.00000000       0.10526316       0.50000000 </v>
   <v>       0.00000000       0.07894737       0.50000000 </v>
   <v>       0.00000000       0.05263158       0.50000000 </v>
   <v>       0.00000000       0.02631579       0.50000000 </v>
   <v>       0.00000000       0.00000000       0.50000000 </v>
   <v>       0.00000000       0.00000000       0.50000000 </v>
   <v>       0.00000000       0.00000000       0.47368421 </v>
   <v>       0.00000000       0.00000000       0.44736842 </v>
   <v>       0.00000000       0.00000000       0.42105263 </v>
   <v>       0.00000000       0.00000000       0.39473684 </v>
   <v>       0.00000000       0.00000000       0.36842105 </v>
   <v>       0.00000000       0.00000000       0.34210526 </v>
   <v>       0.00000000       0.00000000       0.31578947 </v>
   <v>       0.00000000       0.00000000       0.28947368 </v>
   <v>       0.00000000       0.00000000       0.26315789 </v>
   <v>       0.00000000       0.00000000       0.23684211 </v>
   <v>       0.00000000       0.00000000       0.21052632 </v>
   <v>       0.00000000       0.00000000       0.18421053 </v>
   <v>       0.00000000       0.00000000       0.15789474 </v>
   <v>       0.00000000       0.00000000       0.13157895 </v>
   <v>       0.00000000       0.00000000       0.10526316 </v>
   <v>       0.00000000       0.00000000       0.07894737 </v>
   <v>       0.00000000       0.00000000       0.05263158 </v>
   <v>       0.00000000       0.00000000       0.02631579 </v>
   <v>       0.00000000       0.00000000       0.00000000 </v>
  </varray>
  <varray name="weights" >
   <v>       0.01250000 </v>
   <v>       0.01250000 </v>
   <v>       0.01250000 </v>
   <v>       0.01250000 </v>
   <v>       0.01250000 </v>
   <v>       0.01250000 </v>
   <v>       0.01250000 </v>
   <v>       0.01250000 </v>
   <v>       0.01250000 </v>
   <v>       0.01250000 </v>
   <v>       0.01250000 </v>
   <v>       0.01250000 </v>
   <v>       0.01250000 </v>
   <v>       0.01250000 </v>
   <v>       0.01250000 </v>
   <v>       0.01250000 </v>
   <v>       0.01250000 </v>
   <v>       0.01250000 </v>
   <v>       0.01250000 </v>
   <v>       0.01250000 </v>
   <v>       0.01250000 </v>
   <v>       0.01250000 </v>
   <v>       0.01250000 </v>
   <v>       0.01250000 </v>
   <v>       0.01250000 </v>
   <v>       0.01250000 </v>
   <v>       0.01250000 </v>
   <v>       0.01250000 </v>
   <v>       0.01250000 </v>
   <v>       0.01250000 </v>
   <v>       0.01250000 </v>
   <v>       0.01250000 </v>
   <v>       0.01250000 </v>
   <v>       0.01250000 </v>
   <v>       0.01250000 </v>
   <v>       0.01250000 </v>
   <v>       0.01250000 </v>
   <v>       0.01250000 </v>
   <v>       0.01250000 </v>
   <v>       0.01250000 </v>
   <v>       0.01250000 </v>
   <v>       0.01250000 </v>
   <v>       0.01250000 </v>
   <v>       0.01250000 </v>
   <v>       0.01250000 </v>
   <v>       0.01250000 </v>
   <v>       0.01250000 </v>
   <v>       0.01250000 </v>
   <v>       0.01250000 </v>
   <v>       0.01250000 </v>
   <v>       0.01250000 </v>
   <v>       0.01250000 </v>
   <v>       0.01250000 </v>
   <v>       0.01250000 </v>
   <v>       0.01250000 </v>
   <v>       0.01250000 </v>
   <v>       0.01250000 </v>
   <v>       0.01250000 </v>
   <v>       0.01250000 </v>
   <v>       0.01250000 </v>
   <v>       0.01250000 </v>
   <v>       0.01250000 </v>
   <v>       0.01250000 </v>
   <v>       0.01250000 </v>
   <v>       0.01250000 </v>
   <v>       0.01250000 </v>
   <v>       0.01250000 </v>
   <v>       0.01250000 </v>
   <v>       0.01250000 </v>
   <v>       0.01250000 </v>
   <v>       0.01250000 </v>
   <v>       0.01250000 </v>
   <v>       0.01250000 </v>
   <v>       0.01250000 </v>
   <v>       0.01250000 </v>
   <v>       0.01250000 </v>
   <v>       0.01250000 </v>
   <v>       0.01250000 </v>
   <v>       0.01250000 </v>
   <v>       0.01250000 </v>
  </varray>
 </kpoints>
 <parameters>
  <separator name="general" >
   <i type="string" name="SYSTEM">unknown system</i>
   <i type="logical" name="LCOMPAT"> F  </i>
  </separator>
  <separator name="electronic" >
   <i type="string" name="PREC">normal</i>
   <i name="ENMAX">    500.00000000</i>
   <i name="ENAUG">    351.16500000</i>
   <i name="EDIFF">      0.00000100</i>
   <i type="int" name="IALGO">    38</i>
   <i type="int" name="IWAVPR">    10</i>
   <i type="int" name="NBANDS">   216</i>
   <i name="NELECT">    360.00000000</i>
   <i type="int" name="TURBO">     0</i>
   <i type="int" name="IRESTART">     0</i>
   <i type="int" name="NREBOOT">     0</i>
   <i type="int" name="NMIN">     0</i>
   <i name="EREF">      0.00000000</i>
   <separator name="electronic smearing" >
    <i type="int" name="ISMEAR">     0</i>
    <i name="SIGMA">      0.01000000</i>
    <i name="KSPACING">      0.50000000</i>
    <i type="logical" name="KGAMMA"> T  </i>
   </separator>
   <separator name="electronic projectors" >
    <i type="logical" name="LREAL"> T  </i>
    <v name="ROPT">     -0.00050000     -0.00050000</v>
    <i type="int" name="LMAXPAW">  -100</i>
    <i type="int" name="LMAXMIX">     2</i>
    <i type="logical" name="NLSPLINE"> F  </i>
   </separator>
   <separator name="electronic startup" >
    <i type="int" name="ISTART">     0</i>
    <i type="int" name="ICHARG">    11</i>
    <i type="int" name="INIWAV">     1</i>
   </separator>
   <separator name="electronic spin" >
    <i type="int" name="ISPIN">     1</i>
    <i type="logical" name="LNONCOLLINEAR"> F  </i>
    <v name="MAGMOM">      1.00000000      1.00000000      1.00000000      1.00000000      1.00000000      1.00000000      1.00000000      1.00000000      1.00000000      1.00000000      1.00000000      1.00000000      1.00000000      1.00000000      1.00000000      1.00000000      1.00000000      1.00000000      1.00000000      1.00000000
      1.00000000      1.00000000      1.00000000      1.00000000      1.00000000      1.00000000      1.00000000      1.00000000      1.00000000      1.00000000      1.00000000      1.00000000      1.00000000      1.00000000      1.00000000      1.00000000      1.00000000      1.00000000      1.00000000      1.00000000
      1.00000000      1.00000000      1.00000000      1.00000000      1.00000000      1.00000000      1.00000000      1.00000000      1.00000000      1.00000000      1.00000000      1.00000000      1.00000000      1.00000000      1.00000000      1.00000000      1.00000000      1.00000000      1.00000000      1.00000000
</v>
    <i name="NUPDOWN">     -1.00000000</i>
    <i type="logical" name="LSORBIT"> F  </i>
    <v name="SAXIS">      0.00000000      0.00000000      1.00000000</v>
    <i type="logical" name="LSPIRAL"> F  </i>
    <v name="QSPIRAL">      0.00000000      0.00000000      0.00000000</v>
    <i type="logical" name="LZEROZ"> F  </i>
   </separator>
   <separator name="electronic exchange-correlation" >
    <i type="logical" name="LASPH"> T  </i>
    <i type="logical" name="LMETAGGA"> F  </i>
   </separator>
   <separator name="electronic convergence" >
    <i type="int" name="NELM">   100</i>
    <i type="int" name="NELMDL">    -5</i>
    <i type="int" name="NELMIN">     2</i>
    <i name="ENINI">    500.00000000</i>
    <separator name="electronic convergence detail" >
     <i type="logical" name="LDIAG"> T  </i>
     <i type="logical" name="LSUBROT"> F  </i>
     <i name="WEIMIN">      0.00000000</i>
     <i name="EBREAK">      0.00000000</i>
     <i name="DEPER">      0.30000000</i>
     <i type="int" name="NRMM">     4</i>
     <i name="TIME">      0.40000000</i>
    </separator>
   </separator>
   <separator name="electronic mixer" >
    <i name="AMIX">      0.40000000</i>
    <i name="BMIX">      1.00000000</i>
    <i name="AMIN">      0.10000000</i>
    <i name="AMIX_MAG">      1.60000000</i>
    <i name="BMIX_MAG">      1.00000000</i>
    <separator name="electronic mixer details" >
     <i type="int" name="IMIX">     4</i>
     <i type="logical" name="MIXFIRST"> F  </i>
     <i type="int" name="MAXMIX">   -45</i>
     <i name="WC">    100.00000000</i>
     <i type="int" name="INIMIX">     1</i>
     <i type="int" name="MIXPRE">     1</i>
     <i type="int" name="MREMOVE">     5</i>
    </separator>
   </separator>
   <separator name="electronic dipolcorrection" >
    <i type="logical" name="LDIPOL"> F  </i>
    <i type="logical" name="LMONO"> F  </i>
    <i type="int" name="IDIPOL">     0</i>
    <i name="EPSILON">      1.00000000</i>
    <v name="DIPOL">   -100.00000000   -100.00000000   -100.00000000</v>
    <i name="EFIELD">      0.00000000</i>
   </separator>
  </separator>
  <separator name="grids" >
   <i type="int" name="NGX">   210</i>
   <i type="int" name="NGY">    36</i>
   <i type="int" name="NGZ">    64</i>
   <i type="int" name="NGXF">   420</i>
   <i type="int" name="NGYF">    72</i>
   <i type="int" name="NGZF">   128</i>
   <i type="logical" name="ADDGRID"> F  </i>
  </separator>
  <separator name="ionic" >
   <i type="int" name="NSW">     0</i>
   <i type="int" name="IBRION">    -1</i>
   <i type="int" name="MDALGO">     0</i>
   <i type="int" name="ISIF">     2</i>
   <i name="PSTRESS">      0.00000000</i>
   <i name="EDIFFG">     -0.01000000</i>
   <i type="int" name="NFREE">     0</i>
   <i name="POTIM">      0.30000000</i>
   <i name="SMASS">     -3.00000000</i>
   <i name="SCALEE">      1.00000000</i>
  </separator>
  <separator name="ionic md" >
   <i name="TEBEG">      0.00010000</i>
   <i name="TEEND">      0.00010000</i>
   <i type="int" name="NBLOCK">     1</i>
   <i type="int" name="KBLOCK">     1</i>
   <i type="int" name="NPACO">   256</i>
   <i name="APACO">     16.00000000</i>
  </separator>
  <separator name="symmetry" >
   <i type="int" name="ISYM">     2</i>
   <i name="SYMPREC">      0.00001000</i>
  </separator>
  <separator name="dos" >
   <i type="int" name="LORBIT">     0</i>
   <v name="RWIGS">     -1.00000000     -1.00000000</v>
   <i type="int" name="NEDOS">   301</i>
   <i name="EMIN">     10.00000000</i>
   <i name="EMAX">    -10.00000000</i>
   <i name="EFERMI">      0.00000000</i>
  </separator>
  <separator name="writing" >
   <i type="int" name="NWRITE">     2</i>
   <i type="logical" name="LWAVE"> T  </i>
   <i type="logical" name="LDOWNSAMPLE"> F  </i>
   <i type="logical" name="LCHARG"> T  </i>
   <i type="logical" name="LPARD"> F  </i>
   <i type="logical" name="LVTOT"> F  </i>
   <i type="logical" name="LVHAR"> F  </i>
   <i type="logical" name="LELF"> F  </i>
   <i type="logical" name="LOPTICS"> F  </i>
   <v name="STM">      0.00000000      0.00000000      0.00000000      0.00000000      0.00000000      0.00000000      0.00000000</v>
  </separator>
  <separator name="performance" >
   <i type="int" name="NPAR">     8</i>
   <i type="int" name="NSIM">     4</i>
   <i type="int" name="NBLK">    -1</i>
   <i type="logical" name="LPLANE"> T  </i>
   <i type="logical" name="LSCALAPACK"> T  </i>
   <i type="logical" name="LSCAAWARE"> F  </i>
   <i type="logical" name="LSCALU"> F  </i>
   <i type="logical" name="LASYNC"> F  </i>
   <i type="logical" name="LORBITALREAL"> F  </i>
  </separator>
  <separator name="miscellaneous" >
   <i type="int" name="IDIOT">     3</i>
   <i type="int" name="ISPECIAL">     0</i>
   <i type="logical" name="LMUSIC"> F  </i>
   <v name="POMASS">    137.32700000     28.08500000</v>
   <v name="DARWINR">      0.00000000      0.00000000</v>
   <v name="DARWINV">      1.00000000      1.00000000</v>
   <i type="logical" name="LCORR"> T  </i>
  </separator>
  <i type="logical" name="GGA_COMPAT"> T  </i>
  <i type="logical" name="LBERRY"> F  </i>
  <i type="int" name="ICORELEVEL">     0</i>
  <i type="logical" name="LDAU"> F  </i>
  <i type="int" name="I_CONSTRAINED_M">     0</i>
  <separator name="electronic exchange-correlation" >
   <i type="string" name="GGA">MK</i>
   <i type="int" name="VOSKOWN">     0</i>
   <i type="logical" name="LHFCALC"> F  </i>
   <i type="string" name="PRECFOCK"></i>
   <i type="logical" name="LSYMGRAD"> F  </i>
   <i type="logical" name="LHFONE"> F  </i>
   <i type="logical" name="LRHFCALC"> F  </i>
   <i type="logical" name="LTHOMAS"> F  </i>
   <i type="logical" name="LMODELHF"> F  </i>
   <i name="ENCUT4O">     -1.00000000</i>
   <i type="int" name="EXXOEP">     0</i>
   <i type="int" name="FOURORBIT">     0</i>
   <i name="AEXX">      0.00000000</i>
   <i name="HFALPHA">      0.00000000</i>
   <i name="MCALPHA">      0.00000000</i>
   <i name="ALDAX">      1.00000000</i>
   <i name="AGGAX">      1.00000000</i>
   <i name="ALDAC">      1.00000000</i>
   <i name="AGGAC">      0.00000000</i>
   <i type="int" name="NKREDX">     1</i>
   <i type="int" name="NKREDY">     1</i>
   <i type="int" name="NKREDZ">     1</i>
   <i type="logical" name="SHIFTRED"> F  </i>
   <i type="logical" name="ODDONLY"> F  </i>
   <i type="logical" name="EVENONLY"> F  </i>
   <i type="int" name="LMAXFOCK">     0</i>
   <i type="int" name="NMAXFOCKAE">     0</i>
   <i type="logical" name="LFOCKAEDFT"> F  </i>
   <i name="HFSCREEN">      0.00000000</i>
   <i name="HFSCREENC">      0.00000000</i>
   <i type="int" name="NBANDSGWLOW">     0</i>
  </separator>
  <separator name="vdW DFT" >
   <i type="logical" name="LUSE_VDW"> T  </i>
   <i name="Zab_VDW">     -1.88670000</i>
   <i name="PARAM1">      0.12340000</i>
   <i name="PARAM2">      0.71135700</i>
   <i name="PARAM3">      0.00000000</i>
  </separator>
  <separator name="model GW" >
   <i type="int" name="MODEL_GW">     0</i>
   <i name="MODEL_EPS0">     28.37939114</i>
   <i name="MODEL_ALPHA">      1.00000000</i>
  </separator>
  <separator name="linear response parameters" >
   <i type="logical" name="LEPSILON"> F  </i>
   <i type="logical" name="LRPA"> F  </i>
   <i type="logical" name="LNABLA"> F  </i>
   <i type="logical" name="LVEL"> F  </i>
   <i type="int" name="KINTER">     0</i>
   <i name="CSHIFT">      0.10000000</i>
   <i name="OMEGAMAX">     -1.00000000</i>
   <i name="DEG_THRESHOLD">      0.00200000</i>
   <i name="RTIME">     -0.10000000</i>
   <i name="WPLASMAI">      0.00000000</i>
   <v name="DFIELD">      0.00000000      0.00000000      0.00000000</v>
   <v name="WPLASMA">      0.00000000      0.00000000      0.00000000      0.00000000      0.00000000      0.00000000      0.00000000      0.00000000      0.00000000</v>
  </separator>
  <separator name="orbital magnetization" >
   <i type="logical" name="NUCIND"> F  </i>
   <v name="MAGPOS">      0.00000000      0.00000000      0.00000000</v>
   <i type="logical" name="LNICSALL"> T  </i>
   <i type="logical" name="ORBITALMAG"> F  </i>
   <i type="logical" name="LMAGBLOCH"> F  </i>
   <i type="logical" name="LCHIMAG"> F  </i>
   <i type="logical" name="LGAUGE"> T  </i>
   <i type="int" name="MAGATOM">     0</i>
   <v name="MAGDIPOL">      0.00000000      0.00000000      0.00000000</v>
   <v name="AVECCONST">      0.00000000      0.00000000      0.00000000</v>
  </separator>
  <separator name="response functions" >
   <i type="logical" name="LADDER"> F  </i>
   <i type="logical" name="LRPAFORCE"> F  </i>
   <i type="logical" name="LFXC"> F  </i>
   <i type="logical" name="LHARTREE"> T  </i>
   <i type="int" name="IBSE">     0</i>
   <v type="int" name="KPOINT">    -1     0     0     0</v>
   <i type="logical" name="LTCTE"> F  </i>
   <i type="logical" name="LTETE"> F  </i>
   <i type="logical" name="LTRIPLET"> F  </i>
   <i type="logical" name="LFXCEPS"> F  </i>
   <i type="logical" name="LFXHEG"> F  </i>
   <i type="int" name="NATURALO">     2</i>
   <i type="logical" name="L2ORDER"> F  </i>
   <i type="logical" name="LMP2LT"> F  </i>
   <i type="logical" name="LUSEW"> F  </i>
   <i name="ENCUTGW">     -2.00000000</i>
   <i name="ENCUTGWSOFT">     -2.00000000</i>
   <i name="ENCUTLF">     -1.00000000</i>
   <i type="int" name="LMAXMP2">    -1</i>
   <i name="SCISSOR">      0.00000000</i>
   <i type="int" name="NOMEGA">     0</i>
   <i type="int" name="NOMEGAR">     0</i>
   <i type="int" name="NBANDSGW">    -1</i>
   <i type="int" name="NBANDSO">    -1</i>
   <i type="int" name="NBANDSV">    -1</i>
   <i type="int" name="NELM">   100</i>
   <i type="int" name="NELMHF">     1</i>
   <i type="int" name="DIM">     3</i>
   <i type="int" name="ANTIRES">     0</i>
   <i name="OMEGAMAX">    -30.00000000</i>
   <i name="OMEGAMIN">    -30.00000000</i>
   <i name="OMEGATL">   -200.00000000</i>
   <i type="int" name="OMEGAGRID">   140</i>
   <i name="CSHIFT">     -0.10000000</i>
   <i type="logical" name="SELFENERGY"> F  </i>
   <i type="logical" name="LSPECTRAL"> F  </i>
   <i type="logical" name="LSPECTRALGW"> F  </i>
   <i type="logical" name="LSINGLES"> F  </i>
   <i type="logical" name="LFERMIGW"> F  </i>
   <i type="logical" name="ODDONLYGW"> F  </i>
   <i type="logical" name="EVENONLYGW"> F  </i>
   <i type="int" name="NKREDLFX">     1</i>
   <i type="int" name="NKREDLFY">     1</i>
   <i type="int" name="NKREDLFZ">     1</i>
   <i type="int" name="MAXMEM">  2800</i>
   <i type="int" name="TELESCOPE">     0</i>
   <i type="int" name="TAUPAR">     1</i>
   <i type="int" name="OMEGAPAR">    -1</i>
   <i name="LAMBDA">      1.00000000</i>
  </separator>
  <separator name="External order field" >
   <i name="OFIELD_KAPPA">      0.00000000</i>
   <v name="OFIELD_K">      0.00000000      0.00000000      0.00000000</v>
   <i name="OFIELD_Q6_NEAR">      0.00000000</i>
   <i name="OFIELD_Q6_FAR">      0.00000000</i>
   <i name="OFIELD_A">      0.00000000</i>
  </separator>
 </parameters>
 <atominfo>
  <atoms>      60 </atoms>
  <types>       2 </types>
  <array name="atoms" >
   <dimension dim="1">ion</dimension>
   <field type="string">element</field>
   <field type="int">atomtype</field>
   <set>
    <rc><c>Ba</c><c>   1</c></rc>
    <rc><c>Ba</c><c>   1</c></rc>
    <rc><c>Ba</c><c>   1</c></rc>
    <rc><c>Ba</c><c>   1</c></rc>
    <rc><c>Ba</c><c>   1</c></rc>
    <rc><c>Ba</c><c>   1</c></rc>
    <rc><c>Ba</c><c>   1</c></rc>
    <rc><c>Ba</c><c>   1</c></rc>
    <rc><c>Ba</c><c>   1</c></rc>
    <rc><c>Ba</c><c>   1</c></rc>
    <rc><c>Ba</c><c>   1</c></rc>
    <rc><c>Ba</c><c>   1</c></rc>
    <rc><c>Ba</c><c>   1</c></rc>
    <rc><c>Ba</c><c>   1</c></rc>
    <rc><c>Ba</c><c>   1</c></rc>
    <rc><c>Ba</c><c>   1</c></rc>
    <rc><c>Ba</c><c>   1</c></rc>
    <rc><c>Ba</c><c>   1</c></rc>
    <rc><c>Ba</c><c>   1</c></rc>
    <rc><c>Ba</c><c>   1</c></rc>
    <rc><c>Si</c><c>   2</c></rc>
    <rc><c>Si</c><c>   2</c></rc>
    <rc><c>Si</c><c>   2</c></rc>
    <rc><c>Si</c><c>   2</c></rc>
    <rc><c>Si</c><c>   2</c></rc>
    <rc><c>Si</c><c>   2</c></rc>
    <rc><c>Si</c><c>   2</c></rc>
    <rc><c>Si</c><c>   2</c></rc>
    <rc><c>Si</c><c>   2</c></rc>
    <rc><c>Si</c><c>   2</c></rc>
    <rc><c>Si</c><c>   2</c></rc>
    <rc><c>Si</c><c>   2</c></rc>
    <rc><c>Si</c><c>   2</c></rc>
    <rc><c>Si</c><c>   2</c></rc>
    <rc><c>Si</c><c>   2</c></rc>
    <rc><c>Si</c><c>   2</c></rc>
    <rc><c>Si</c><c>   2</c></rc>
    <rc><c>Si</c><c>   2</c></rc>
    <rc><c>Si</c><c>   2</c></rc>
    <rc><c>Si</c><c>   2</c></rc>
    <rc><c>Si</c><c>   2</c></rc>
    <rc><c>Si</c><c>   2</c></rc>
    <rc><c>Si</c><c>   2</c></rc>
    <rc><c>Si</c><c>   2</c></rc>
    <rc><c>Si</c><c>   2</c></rc>
    <rc><c>Si</c><c>   2</c></rc>
    <rc><c>Si</c><c>   2</c></rc>
    <rc><c>Si</c><c>   2</c></rc>
    <rc><c>Si</c><c>   2</c></rc>
    <rc><c>Si</c><c>   2</c></rc>
    <rc><c>Si</c><c>   2</c></rc>
    <rc><c>Si</c><c>   2</c></rc>
    <rc><c>Si</c><c>   2</c></rc>
    <rc><c>Si</c><c>   2</c></rc>
    <rc><c>Si</c><c>   2</c></rc>
    <rc><c>Si</c><c>   2</c></rc>
    <rc><c>Si</c><c>   2</c></rc>
    <rc><c>Si</c><c>   2</c></rc>
    <rc><c>Si</c><c>   2</c></rc>
    <rc><c>Si</c><c>   2</c></rc>
   </set>
  </array>
  <array name="atomtypes" >
   <dimension dim="1">type</dimension>
   <field type="int">atomspertype</field>
   <field type="string">element</field>
   <field>mass</field>
   <field>valence</field>
   <field type="string">pseudopotential</field>
   <set>
    <rc><c>  20</c><c>Ba</c><c>    137.32700000</c><c>     10.00000000</c><c> PAW_PBE Ba_sv 06Sep2000                </c></rc>
    <rc><c>  40</c><c>Si</c><c>     28.08500000</c><c>      4.00000000</c><c> PAW_PBE Si 05Jan2001                   </c></rc>
   </set>
  </array>
 </atominfo>
 <structure name="initialpos" >
  <crystal>
   <varray name="basis" >
    <v>      37.35019360       0.00000000       0.00000000 </v>
    <v>       0.00000000       6.65980568       0.00000000 </v>
    <v>       0.00000000       0.00000000      11.40902835 </v>
   </varray>
   <i name="volume">   2837.93911359 </i>
   <varray name="rec_basis" >
    <v>       0.02677362       0.00000000       0.00000000 </v>
    <v>       0.00000000       0.15015453       0.00000000 </v>
    <v>       0.00000000       0.00000000       0.08764988 </v>
   </varray>
  </crystal>
  <varray name="positions" >
   <v>       0.00844337       0.25000000       0.70018439 </v>
   <v>       0.24426822       0.25000000       0.68978524 </v>
   <v>       0.48691319       0.25000000       0.69228185 </v>
   <v>       0.23626767       0.75000002       0.30920072 </v>
   <v>       0.47599844       0.75000002       0.30898828 </v>
   <v>       0.11333916       0.75000002       0.19228179 </v>
   <v>       0.35598413       0.75000002       0.18978518 </v>
   <v>       0.59180898       0.75000002       0.20018433 </v>
   <v>       0.12425386       0.25000000       0.80898832 </v>
   <v>       0.36398468       0.25000000       0.80920076 </v>
   <v>       0.05151740       0.75000002       0.91219630 </v>
   <v>       0.27888763       0.75000002       0.90508323 </v>
   <v>       0.51707018       0.75000002       0.89575730 </v>
   <v>       0.20060884       0.25000000       0.09301577 </v>
   <v>       0.44135902       0.25000000       0.09531693 </v>
   <v>       0.08318220       0.25000000       0.39575738 </v>
   <v>       0.32136469       0.25000000       0.40508331 </v>
   <v>       0.54873493       0.25000000       0.41219638 </v>
   <v>       0.15889331       0.75000002       0.59531691 </v>
   <v>       0.39964350       0.75000002       0.59301575 </v>
   <v>       0.04305183       0.07042511       0.14668631 </v>
   <v>       0.28568822       0.06936765       0.14578235 </v>
   <v>       0.52577464       0.07049690       0.14154373 </v>
   <v>       0.19514802       0.93104315       0.85356814 </v>
   <v>       0.43436436       0.93136958       0.85252370 </v>
   <v>       0.07447772       0.92950309       0.64154376 </v>
   <v>       0.31456413       0.93063234       0.64578237 </v>
   <v>       0.55720051       0.92957488       0.64668633 </v>
   <v>       0.16588798       0.06863041       0.35252370 </v>
   <v>       0.40510430       0.06895684       0.35356814 </v>
   <v>       0.19514802       0.56895685       0.85356814 </v>
   <v>       0.43436436       0.56863042       0.85252370 </v>
   <v>       0.04305183       0.42957488       0.14668631 </v>
   <v>       0.28568822       0.43063234       0.14578235 </v>
   <v>       0.52577464       0.42950309       0.14154373 </v>
   <v>       0.16588798       0.43136958       0.35252370 </v>
   <v>       0.40510430       0.43104315       0.35356814 </v>
   <v>       0.07447772       0.57049691       0.64154376 </v>
   <v>       0.31456413       0.56936766       0.64578237 </v>
   <v>       0.55720051       0.57042512       0.64668633 </v>
   <v>       0.01790832       0.75000002       0.61739127 </v>
   <v>       0.26066666       0.75000002       0.59207429 </v>
   <v>       0.50245122       0.75000002       0.58283216 </v>
   <v>       0.21942533       0.25000000       0.40784444 </v>
   <v>       0.45847045       0.25000000       0.40865337 </v>
   <v>       0.09780108       0.25000000       0.08283209 </v>
   <v>       0.33958569       0.25000000       0.09207423 </v>
   <v>       0.58234403       0.25000000       0.11739121 </v>
   <v>       0.14178185       0.75000002       0.90865341 </v>
   <v>       0.38082697       0.75000002       0.90784448 </v>
   <v>       0.04331757       0.25000000       0.96308589 </v>
   <v>       0.28685181       0.25000000       0.96330393 </v>
   <v>       0.53803817       0.25000000       0.96058386 </v>
   <v>       0.19338723       0.75000002       0.03703756 </v>
   <v>       0.43350267       0.75000002       0.03556367 </v>
   <v>       0.06221416       0.75000002       0.46058378 </v>
   <v>       0.31340054       0.75000002       0.46330385 </v>
   <v>       0.55693479       0.75000002       0.46308580 </v>
   <v>       0.16674969       0.25000000       0.53556365 </v>
   <v>       0.40686509       0.25000000       0.53703754 </v>
  </varray>
 </structure>
 <calculation>
  <scstep>
   <time name="dav">   41.41   41.51</time>
   <time name="total">   43.79   43.96</time>
   <energy>
    <i name="alphaZ">    708.77072190 </i>
    <i name="ewald">  61827.21969094 </i>
    <i name="hartreedc"> -78714.13889555 </i>
    <i name="XCdc">    121.54074394 </i>
    <i name="pawpsdc">   9668.27968010 </i>
    <i name="pawaedc">  -8932.22375700 </i>
    <i name="eentropy">     -0.00119865 </i>
    <i name="bandstr">   -249.71897339 </i>
    <i name="atom">  18172.87863535 </i>
    <i name="e_fr_energy">   2602.60664764 </i>
    <i name="e_wo_entrp">   2602.60784630 </i>
    <i name="e_0_energy">   2602.60724697 </i>
   </energy>
  </scstep>
  <scstep>
   <time name="dav">   51.61   51.74</time>
   <time name="total">   51.63   51.75</time>
   <energy>
    <i name="e_fr_energy">    110.69372873 </i>
    <i name="e_wo_entrp">    110.69381617 </i>
    <i name="e_0_energy">    110.69377245 </i>
   </energy>
  </scstep>
  <scstep>
   <time name="dav">   47.67   47.79</time>
   <time name="total">   47.68   47.80</time>
   <energy>
    <i name="e_fr_energy">   -221.94131413 </i>
    <i name="e_wo_entrp">   -221.94131413 </i>
    <i name="e_0_energy">   -221.94131413 </i>
   </energy>
  </scstep>
  <scstep>
   <time name="dav">   53.82   53.95</time>
   <time name="total">   53.84   53.96</time>
   <energy>
    <i name="e_fr_energy">   -236.63558442 </i>
    <i name="e_wo_entrp">   -236.63558442 </i>
    <i name="e_0_energy">   -236.63558442 </i>
   </energy>
  </scstep>
  <scstep>
   <time name="dav">   56.50   56.63</time>
   <time name="total">   56.51   56.64</time>
   <energy>
    <i name="e_fr_energy">   -237.24558236 </i>
    <i name="e_wo_entrp">   -237.24558236 </i>
    <i name="e_0_energy">   -237.24558236 </i>
   </energy>
  </scstep>
  <scstep>
   <time name="dav">   52.82   52.97</time>
   <time name="total">   52.83   52.98</time>
   <energy>
    <i name="e_fr_energy">   -237.26116236 </i>
    <i name="e_wo_entrp">   -237.26116236 </i>
    <i name="e_0_energy">   -237.26116236 </i>
   </energy>
  </scstep>
  <scstep>
   <time name="dav">   56.44   56.58</time>
   <time name="total">   56.45   56.59</time>
   <energy>
    <i name="e_fr_energy">   -237.26181170 </i>
    <i name="e_wo_entrp">   -237.26181170 </i>
    <i name="e_0_energy">   -237.26181170 </i>
   </energy>
  </scstep>
  <scstep>
   <time name="dav">   52.30   52.43</time>
   <time name="total">   52.32   52.44</time>
   <energy>
    <i name="e_fr_energy">   -237.26183901 </i>
    <i name="e_wo_entrp">   -237.26183901 </i>
    <i name="e_0_energy">   -237.26183901 </i>
   </energy>
  </scstep>
  <scstep>
   <time name="dav">   46.40   46.53</time>
   <time name="total">   46.41   46.54</time>
   <energy>
    <i name="e_fr_energy">   -237.26184042 </i>
    <i name="e_wo_entrp">   -237.26184042 </i>
    <i name="e_0_energy">   -237.26184042 </i>
   </energy>
  </scstep>
  <scstep>
   <time name="dav">   34.09   34.19</time>
   <time name="total">   34.10   34.20</time>
   <energy>
    <i name="alphaZ">    708.77072190 </i>
    <i name="ewald">  61827.21969094 </i>
    <i name="hartreedc"> -78714.13889555 </i>
    <i name="XCdc">    121.54074394 </i>
    <i name="pawpsdc">   9668.27968010 </i>
    <i name="pawaedc">  -8932.22375700 </i>
    <i name="eentropy">     -0.00000000 </i>
    <i name="bandstr">  -3089.58866017 </i>
    <i name="atom">  18172.87863535 </i>
    <i name="e_fr_energy">   -237.26184048 </i>
    <i name="e_wo_entrp">   -237.26184048 </i>
    <i name="e_0_energy">   -237.26184048 </i>
   </energy>
  </scstep>
  <structure>
   <crystal>
    <varray name="basis" >
     <v>      37.35019360       0.00000000       0.00000000 </v>
     <v>       0.00000000       6.65980568       0.00000000 </v>
     <v>       0.00000000       0.00000000      11.40902835 </v>
    </varray>
    <i name="volume">   2837.93911359 </i>
    <varray name="rec_basis" >
     <v>       0.02677362       0.00000000       0.00000000 </v>
     <v>       0.00000000       0.15015453       0.00000000 </v>
     <v>       0.00000000       0.00000000       0.08764988 </v>
    </varray>
   </crystal>
   <varray name="positions" >
    <v>       0.00844337       0.25000000       0.70018439 </v>
    <v>       0.24426822       0.25000000       0.68978524 </v>
    <v>       0.48691319       0.25000000       0.69228185 </v>
    <v>       0.23626767       0.75000002       0.30920072 </v>
    <v>       0.47599844       0.75000002       0.30898828 </v>
    <v>       0.11333916       0.75000002       0.19228179 </v>
    <v>       0.35598413       0.75000002       0.18978518 </v>
    <v>       0.59180898       0.75000002       0.20018433 </v>
    <v>       0.12425386       0.25000000       0.80898832 </v>
    <v>       0.36398468       0.25000000       0.80920076 </v>
    <v>       0.05151740       0.75000002       0.91219630 </v>
    <v>       0.27888763       0.75000002       0.90508323 </v>
    <v>       0.51707018       0.75000002       0.89575730 </v>
    <v>       0.20060884       0.25000000       0.09301577 </v>
    <v>       0.44135902       0.25000000       0.09531693 </v>
    <v>       0.08318220       0.25000000       0.39575738 </v>
    <v>       0.32136469       0.25000000       0.40508331 </v>
    <v>       0.54873493       0.25000000       0.41219638 </v>
    <v>       0.15889331       0.75000002       0.59531691 </v>
    <v>       0.39964350       0.75000002       0.59301575 </v>
    <v>       0.04305183       0.07042511       0.14668631 </v>
    <v>       0.28568822       0.06936765       0.14578235 </v>
    <v>       0.52577464       0.07049690       0.14154373 </v>
    <v>       0.19514802       0.93104315       0.85356814 </v>
    <v>       0.43436436       0.93136958       0.85252370 </v>
    <v>       0.07447772       0.92950309       0.64154376 </v>
    <v>       0.31456413       0.93063234       0.64578237 </v>
    <v>       0.55720051       0.92957488       0.64668633 </v>
    <v>       0.16588798       0.06863041       0.35252370 </v>
    <v>       0.40510430       0.06895684       0.35356814 </v>
    <v>       0.19514802       0.56895685       0.85356814 </v>
    <v>       0.43436436       0.56863042       0.85252370 </v>
    <v>       0.04305183       0.42957488       0.14668631 </v>
    <v>       0.28568822       0.43063234       0.14578235 </v>
    <v>       0.52577464       0.42950309       0.14154373 </v>
    <v>       0.16588798       0.43136958       0.35252370 </v>
    <v>       0.40510430       0.43104315       0.35356814 </v>
    <v>       0.07447772       0.57049691       0.64154376 </v>
    <v>       0.31456413       0.56936766       0.64578237 </v>
    <v>       0.55720051       0.57042512       0.64668633 </v>
    <v>       0.01790832       0.75000002       0.61739127 </v>
    <v>       0.26066666       0.75000002       0.59207429 </v>
    <v>       0.50245122       0.75000002       0.58283216 </v>
    <v>       0.21942533       0.25000000       0.40784444 </v>
    <v>       0.45847045       0.25000000       0.40865337 </v>
    <v>       0.09780108       0.25000000       0.08283209 </v>
    <v>       0.33958569       0.25000000       0.09207423 </v>
    <v>       0.58234403       0.25000000       0.11739121 </v>
    <v>       0.14178185       0.75000002       0.90865341 </v>
    <v>       0.38082697       0.75000002       0.90784448 </v>
    <v>       0.04331757       0.25000000       0.96308589 </v>
    <v>       0.28685181       0.25000000       0.96330393 </v>
    <v>       0.53803817       0.25000000       0.96058386 </v>
    <v>       0.19338723       0.75000002       0.03703756 </v>
    <v>       0.43350267       0.75000002       0.03556367 </v>
    <v>       0.06221416       0.75000002       0.46058378 </v>
    <v>       0.31340054       0.75000002       0.46330385 </v>
    <v>       0.55693479       0.75000002       0.46308580 </v>
    <v>       0.16674969       0.25000000       0.53556365 </v>
    <v>       0.40686509       0.25000000       0.53703754 </v>
   </varray>
  </structure>
  <varray name="forces" >
   <v>       0.02078981       0.00000000      -0.03258832 </v>
   <v>       0.04228436      -0.00000000      -0.02871050 </v>
   <v>       0.05399238       0.00000000      -0.01665899 </v>
   <v>      -0.04665085       0.00000000       0.02194189 </v>
   <v>      -0.02956700      -0.00000000       0.00746207 </v>
   <v>      -0.05399238      -0.00000000      -0.01665899 </v>
   <v>      -0.04228436       0.00000000      -0.02871050 </v>
   <v>      -0.02078981       0.00000000      -0.03258832 </v>
   <v>       0.02956700      -0.00000000       0.00746207 </v>
   <v>       0.04665085      -0.00000000       0.02194189 </v>
   <v>       0.01381660      -0.00000000      -0.00006725 </v>
   <v>       0.01324135       0.00000000       0.04035370 </v>
   <v>       0.02117572       0.00000000       0.02705161 </v>
   <v>      -0.01203480       0.00000000      -0.02630022 </v>
   <v>      -0.01580794       0.00000000      -0.03597221 </v>
   <v>      -0.02117572      -0.00000000       0.02705161 </v>
   <v>      -0.01324135       0.00000000       0.04035370 </v>
   <v>      -0.01381660       0.00000000      -0.00006725 </v>
   <v>       0.01580794      -0.00000000      -0.03597221 </v>
   <v>       0.01203480       0.00000000      -0.02630022 </v>
   <v>       0.02004868       0.01247451      -0.00090042 </v>
   <v>       0.02865691       0.02444033      -0.00639515 </v>
   <v>       0.01465746       0.02513619      -0.00364463 </v>
   <v>      -0.02362696      -0.01980196       0.01204394 </v>
   <v>      -0.03069505      -0.02527800       0.02063006 </v>
   <v>      -0.01465746      -0.02513619      -0.00364463 </v>
   <v>      -0.02865691      -0.02444033      -0.00639515 </v>
   <v>      -0.02004868      -0.01247451      -0.00090042 </v>
   <v>       0.03069505       0.02527800       0.02063006 </v>
   <v>       0.02362696       0.01980196       0.01204394 </v>
   <v>      -0.02362696       0.01980196       0.01204394 </v>
   <v>      -0.03069505       0.02527800       0.02063006 </v>
   <v>       0.02004868      -0.01247451      -0.00090042 </v>
   <v>       0.02865691      -0.02444033      -0.00639515 </v>
   <v>       0.01465746      -0.02513619      -0.00364463 </v>
   <v>       0.03069505      -0.02527800       0.02063006 </v>
   <v>       0.02362696      -0.01980196       0.01204394 </v>
   <v>      -0.01465746       0.02513619      -0.00364463 </v>
   <v>      -0.02865691       0.02444033      -0.00639515 </v>
   <v>      -0.02004868       0.01247451      -0.00090042 </v>
   <v>       0.03942502       0.00000000       0.02072378 </v>
   <v>       0.00589976      -0.00000000       0.01336054 </v>
   <v>      -0.01315262       0.00000000      -0.00876962 </v>
   <v>      -0.00413257      -0.00000000      -0.00942639 </v>
   <v>       0.00515774      -0.00000000      -0.00586082 </v>
   <v>       0.01315262       0.00000000      -0.00876962 </v>
   <v>      -0.00589976      -0.00000000       0.01336054 </v>
   <v>      -0.03942502      -0.00000000       0.02072378 </v>
   <v>      -0.00515774      -0.00000000      -0.00586082 </v>
   <v>       0.00413257       0.00000000      -0.00942639 </v>
   <v>       0.00610954      -0.00000000       0.01156174 </v>
   <v>      -0.01092840       0.00000000      -0.00355833 </v>
   <v>      -0.00051449       0.00000000       0.00038871 </v>
   <v>       0.00639684       0.00000000      -0.01042954 </v>
   <v>       0.01344253      -0.00000000      -0.00796946 </v>
   <v>       0.00051449      -0.00000000       0.00038871 </v>
   <v>       0.01092840      -0.00000000      -0.00355833 </v>
   <v>      -0.00610954       0.00000000       0.01156174 </v>
   <v>      -0.01344253      -0.00000000      -0.00796946 </v>
   <v>      -0.00639684      -0.00000000      -0.01042954 </v>
  </varray>
  <varray name="stress" >
   <v>      -0.29830892       0.00000000       0.00000000 </v>
   <v>       0.00000000      -0.55252334       0.00000000 </v>
   <v>       0.00000000       0.00000000      -0.54181001 </v>
  </varray>
  <energy>
   <i name="e_fr_energy">   -237.26184048 </i>
   <i name="e_wo_entrp">   -237.26184048 </i>
   <i name="e_0_energy">     -0.00000000 </i>
  </energy>
  <time name="totalsc">  742.51  754.63</time>
  <eigenvalues>
   <array>
    <dimension dim="1">band</dimension>
    <dimension dim="2">kpoint</dimension>
    <dimension dim="3">spin</dimension>
    <field>eigene</field>
    <field>occ</field>
    <set>
     <set comment="spin 1">
      <set comment="kpoint 1">
       <r>  -27.7776    1.0000 </r>
       <r>  -27.7775    1.0000 </r>
       <r>  -26.8054    1.0000 </r>
       <r>  -26.8051    1.0000 </r>
       <r>  -26.7919    1.0000 </r>
       <r>  -26.7916    1.0000 </r>
       <r>  -26.7649    1.0000 </r>
       <r>  -26.7647    1.0000 </r>
       <r>  -26.7133    1.0000 </r>
       <r>  -26.7118    1.0000 </r>
       <r>  -26.7028    1.0000 </r>
       <r>  -26.7006    1.0000 </r>
       <r>  -26.6479    1.0000 </r>
       <r>  -26.6472    1.0000 </r>
       <r>  -26.6431    1.0000 </r>
       <r>  -26.6430    1.0000 </r>
       <r>  -26.6238    1.0000 </r>
       <r>  -26.6207    1.0000 </r>
       <r>  -26.5870    1.0000 </r>
       <r>  -26.5870    1.0000 </r>
       <r>  -13.1527    1.0000 </r>
       <r>  -13.1526    1.0000 </r>
       <r>  -13.0799    1.0000 </r>
       <r>  -13.0798    1.0000 </r>
       <r>  -12.9892    1.0000 </r>
       <r>  -12.9891    1.0000 </r>
       <r>  -12.4011    1.0000 </r>
       <r>  -12.4000    1.0000 </r>
       <r>  -12.3329    1.0000 </r>
       <r>  -12.3184    1.0000 </r>
       <r>  -12.2866    1.0000 </r>
       <r>  -12.2748    1.0000 </r>
       <r>  -12.2624    1.0000 </r>
       <r>  -12.2506    1.0000 </r>
       <r>  -12.2440    1.0000 </r>
       <r>  -12.2138    1.0000 </r>
       <r>  -12.1987    1.0000 </r>
       <r>  -12.1972    1.0000 </r>
       <r>  -12.1950    1.0000 </r>
       <r>  -12.1701    1.0000 </r>
       <r>  -12.1671    1.0000 </r>
       <r>  -12.1660    1.0000 </r>
       <r>  -12.1606    1.0000 </r>
       <r>  -12.1498    1.0000 </r>
       <r>  -12.1498    1.0000 </r>
       <r>  -12.1392    1.0000 </r>
       <r>  -12.1284    1.0000 </r>
       <r>  -12.1282    1.0000 </r>
       <r>  -12.1209    1.0000 </r>
       <r>  -12.1209    1.0000 </r>
       <r>  -12.1199    1.0000 </r>
       <r>  -12.1175    1.0000 </r>
       <r>  -12.1001    1.0000 </r>
       <r>  -12.0989    1.0000 </r>
       <r>  -12.0944    1.0000 </r>
       <r>  -12.0833    1.0000 </r>
       <r>  -12.0498    1.0000 </r>
       <r>  -12.0482    1.0000 </r>
       <r>  -11.9918    1.0000 </r>
       <r>  -11.9819    1.0000 </r>
       <r>  -11.9698    1.0000 </r>
       <r>  -11.9582    1.0000 </r>
       <r>  -11.9527    1.0000 </r>
       <r>  -11.9512    1.0000 </r>
       <r>  -11.9447    1.0000 </r>
       <r>  -11.9395    1.0000 </r>
       <r>  -11.9377    1.0000 </r>
       <r>  -11.9254    1.0000 </r>
       <r>  -11.9130    1.0000 </r>
       <r>  -11.9105    1.0000 </r>
       <r>  -11.9089    1.0000 </r>
       <r>  -11.9016    1.0000 </r>
       <r>  -11.8982    1.0000 </r>
       <r>  -11.8966    1.0000 </r>
       <r>  -11.8893    1.0000 </r>
       <r>  -11.8873    1.0000 </r>
       <r>  -11.8826    1.0000 </r>
       <r>  -11.8778    1.0000 </r>
       <r>  -11.8710    1.0000 </r>
       <r>  -11.8702    1.0000 </r>
       <r>   -9.9977    1.0000 </r>
       <r>   -9.8941    1.0000 </r>
       <r>   -9.7813    1.0000 </r>
       <r>   -9.7481    1.0000 </r>
       <r>   -9.7222    1.0000 </r>
       <r>   -9.7209    1.0000 </r>
       <r>   -9.7126    1.0000 </r>
       <r>   -9.6895    1.0000 </r>
       <r>   -9.3333    1.0000 </r>
       <r>   -9.3328    1.0000 </r>
       <r>   -5.3996    1.0000 </r>
       <r>   -5.3468    1.0000 </r>
       <r>   -5.3393    1.0000 </r>
       <r>   -5.2008    1.0000 </r>
       <r>   -5.1989    1.0000 </r>
       <r>   -5.0808    1.0000 </r>
       <r>   -5.0492    1.0000 </r>
       <r>   -5.0449    1.0000 </r>
       <r>   -5.0141    1.0000 </r>
       <r>   -4.9878    1.0000 </r>
       <r>   -4.9658    1.0000 </r>
       <r>   -4.9385    1.0000 </r>
       <r>   -4.9379    1.0000 </r>
       <r>   -4.9216    1.0000 </r>
       <r>   -4.9085    1.0000 </r>
       <r>   -4.9050    1.0000 </r>
       <r>   -4.8777    1.0000 </r>
       <r>   -4.8454    1.0000 </r>
       <r>   -4.8312    1.0000 </r>
       <r>   -4.8302    1.0000 </r>
       <r>   -4.8024    1.0000 </r>
       <r>   -4.8022    1.0000 </r>
       <r>   -4.7718    1.0000 </r>
       <r>   -4.7475    1.0000 </r>
       <r>   -4.6373    1.0000 </r>
       <r>   -4.6245    1.0000 </r>
       <r>   -4.5576    1.0000 </r>
       <r>   -4.5157    1.0000 </r>
       <r>   -4.2985    1.0000 </r>
       <r>   -4.2980    1.0000 </r>
       <r>   -2.6721    1.0000 </r>
       <r>   -2.3559    1.0000 </r>
       <r>   -2.0315    1.0000 </r>
       <r>   -1.8065    1.0000 </r>
       <r>   -1.6913    1.0000 </r>
       <r>   -1.6869    1.0000 </r>
       <r>   -1.6407    1.0000 </r>
       <r>   -1.5981    1.0000 </r>
       <r>   -1.5477    1.0000 </r>
       <r>   -1.3724    1.0000 </r>
       <r>   -1.2902    1.0000 </r>
       <r>   -1.2407    1.0000 </r>
       <r>   -1.1510    1.0000 </r>
       <r>   -1.0816    1.0000 </r>
       <r>   -1.0004    1.0000 </r>
       <r>   -0.9153    1.0000 </r>
       <r>   -0.9120    1.0000 </r>
       <r>   -0.8707    1.0000 </r>
       <r>   -0.8613    1.0000 </r>
       <r>   -0.8027    1.0000 </r>
       <r>   -0.7940    1.0000 </r>
       <r>   -0.7610    1.0000 </r>
       <r>   -0.7405    1.0000 </r>
       <r>   -0.6996    1.0000 </r>
       <r>   -0.6856    1.0000 </r>
       <r>   -0.6344    1.0000 </r>
       <r>   -0.6316    1.0000 </r>
       <r>   -0.6014    1.0000 </r>
       <r>   -0.5614    1.0000 </r>
       <r>   -0.5548    1.0000 </r>
       <r>   -0.5072    1.0000 </r>
       <r>   -0.4883    1.0000 </r>
       <r>   -0.4535    1.0000 </r>
       <r>   -0.3599    1.0000 </r>
       <r>   -0.3429    1.0000 </r>
       <r>   -0.3073    1.0000 </r>
       <r>   -0.2930    1.0000 </r>
       <r>   -0.2698    1.0000 </r>
       <r>   -0.2672    1.0000 </r>
       <r>   -0.2527    1.0000 </r>
       <r>   -0.2102    1.0000 </r>
       <r>   -0.2081    1.0000 </r>
       <r>   -0.1983    1.0000 </r>
       <r>   -0.1492    1.0000 </r>
       <r>   -0.0363    1.0000 </r>
       <r>    0.0112    1.0000 </r>
       <r>    0.1125    1.0000 </r>
       <r>    0.1378    1.0000 </r>
       <r>    0.1411    1.0000 </r>
       <r>    0.1609    1.0000 </r>
       <r>    0.1665    1.0000 </r>
       <r>    0.1819    1.0000 </r>
       <r>    0.2266    1.0000 </r>
       <r>    0.3392    1.0000 </r>
       <r>    0.3725    1.0000 </r>
       <r>    0.4178    1.0000 </r>
       <r>    0.4930    1.0000 </r>
       <r>    0.5163    1.0000 </r>
       <r>    0.5208    1.0000 </r>
       <r>    0.5794    1.0000 </r>
       <r>    1.7548    0.0000 </r>
       <r>    1.8523    0.0000 </r>
       <r>    1.9114    0.0000 </r>
       <r>    1.9120    0.0000 </r>
       <r>    2.0105    0.0000 </r>
       <r>    2.0137    0.0000 </r>
       <r>    2.0307    0.0000 </r>
       <r>    2.0367    0.0000 </r>
       <r>    2.0832    0.0000 </r>
       <r>    2.1391    0.0000 </r>
       <r>    2.1955    0.0000 </r>
       <r>    2.2304    0.0000 </r>
       <r>    2.3058    0.0000 </r>
       <r>    2.3095    0.0000 </r>
       <r>    2.3227    0.0000 </r>
       <r>    2.4289    0.0000 </r>
       <r>    2.4713    0.0000 </r>
       <r>    2.5331    0.0000 </r>
       <r>    2.6332    0.0000 </r>
       <r>    2.6414    0.0000 </r>
       <r>    2.6493    0.0000 </r>
       <r>    2.6558    0.0000 </r>
       <r>    2.6929    0.0000 </r>
       <r>    2.7650    0.0000 </r>
       <r>    2.9181    0.0000 </r>
       <r>    2.9802    0.0000 </r>
       <r>    3.0456    0.0000 </r>
       <r>    3.0748    0.0000 </r>
       <r>    3.1668    0.0000 </r>
       <r>    3.1680    0.0000 </r>
       <r>    3.1975    0.0000 </r>
       <r>    3.2815    0.0000 </r>
       <r>    3.3054    0.0000 </r>
       <r>    3.3782    0.0000 </r>
       <r>    3.3883    0.0000 </r>
       <r>    3.4225    0.0000 </r>
      </set>
      <set comment="kpoint 2">
       <r>  -27.7776    1.0000 </r>
       <r>  -27.7775    1.0000 </r>
       <r>  -26.8054    1.0000 </r>
       <r>  -26.8051    1.0000 </r>
       <r>  -26.7919    1.0000 </r>
       <r>  -26.7916    1.0000 </r>
       <r>  -26.7648    1.0000 </r>
       <r>  -26.7647    1.0000 </r>
       <r>  -26.7133    1.0000 </r>
       <r>  -26.7118    1.0000 </r>
       <r>  -26.7028    1.0000 </r>
       <r>  -26.7006    1.0000 </r>
       <r>  -26.6479    1.0000 </r>
       <r>  -26.6472    1.0000 </r>
       <r>  -26.6431    1.0000 </r>
       <r>  -26.6430    1.0000 </r>
       <r>  -26.6238    1.0000 </r>
       <r>  -26.6207    1.0000 </r>
       <r>  -26.5871    1.0000 </r>
       <r>  -26.5870    1.0000 </r>
       <r>  -13.1527    1.0000 </r>
       <r>  -13.1525    1.0000 </r>
       <r>  -13.0800    1.0000 </r>
       <r>  -13.0798    1.0000 </r>
       <r>  -12.9894    1.0000 </r>
       <r>  -12.9893    1.0000 </r>
       <r>  -12.4011    1.0000 </r>
       <r>  -12.3999    1.0000 </r>
       <r>  -12.3330    1.0000 </r>
       <r>  -12.3191    1.0000 </r>
       <r>  -12.2868    1.0000 </r>
       <r>  -12.2789    1.0000 </r>
       <r>  -12.2590    1.0000 </r>
       <r>  -12.2499    1.0000 </r>
       <r>  -12.2433    1.0000 </r>
       <r>  -12.2143    1.0000 </r>
       <r>  -12.2013    1.0000 </r>
       <r>  -12.1953    1.0000 </r>
       <r>  -12.1952    1.0000 </r>
       <r>  -12.1716    1.0000 </r>
       <r>  -12.1684    1.0000 </r>
       <r>  -12.1657    1.0000 </r>
       <r>  -12.1608    1.0000 </r>
       <r>  -12.1543    1.0000 </r>
       <r>  -12.1478    1.0000 </r>
       <r>  -12.1399    1.0000 </r>
       <r>  -12.1289    1.0000 </r>
       <r>  -12.1280    1.0000 </r>
       <r>  -12.1262    1.0000 </r>
       <r>  -12.1205    1.0000 </r>
       <r>  -12.1157    1.0000 </r>
       <r>  -12.1147    1.0000 </r>
       <r>  -12.1042    1.0000 </r>
       <r>  -12.0989    1.0000 </r>
       <r>  -12.0938    1.0000 </r>
       <r>  -12.0774    1.0000 </r>
       <r>  -12.0494    1.0000 </r>
       <r>  -12.0486    1.0000 </r>
       <r>  -11.9917    1.0000 </r>
       <r>  -11.9823    1.0000 </r>
       <r>  -11.9698    1.0000 </r>
       <r>  -11.9581    1.0000 </r>
       <r>  -11.9536    1.0000 </r>
       <r>  -11.9504    1.0000 </r>
       <r>  -11.9444    1.0000 </r>
       <r>  -11.9393    1.0000 </r>
       <r>  -11.9375    1.0000 </r>
       <r>  -11.9253    1.0000 </r>
       <r>  -11.9154    1.0000 </r>
       <r>  -11.9089    1.0000 </r>
       <r>  -11.9082    1.0000 </r>
       <r>  -11.9012    1.0000 </r>
       <r>  -11.8984    1.0000 </r>
       <r>  -11.8963    1.0000 </r>
       <r>  -11.8892    1.0000 </r>
       <r>  -11.8873    1.0000 </r>
       <r>  -11.8830    1.0000 </r>
       <r>  -11.8773    1.0000 </r>
       <r>  -11.8710    1.0000 </r>
       <r>  -11.8703    1.0000 </r>
       <r>   -9.9962    1.0000 </r>
       <r>   -9.8931    1.0000 </r>
       <r>   -9.7808    1.0000 </r>
       <r>   -9.7478    1.0000 </r>
       <r>   -9.7221    1.0000 </r>
       <r>   -9.7206    1.0000 </r>
       <r>   -9.7124    1.0000 </r>
       <r>   -9.6895    1.0000 </r>
       <r>   -9.3329    1.0000 </r>
       <r>   -9.3323    1.0000 </r>
       <r>   -5.3977    1.0000 </r>
       <r>   -5.3450    1.0000 </r>
       <r>   -5.3383    1.0000 </r>
       <r>   -5.2013    1.0000 </r>
       <r>   -5.1980    1.0000 </r>
       <r>   -5.0805    1.0000 </r>
       <r>   -5.0481    1.0000 </r>
       <r>   -5.0470    1.0000 </r>
       <r>   -5.0126    1.0000 </r>
       <r>   -4.9864    1.0000 </r>
       <r>   -4.9660    1.0000 </r>
       <r>   -4.9418    1.0000 </r>
       <r>   -4.9391    1.0000 </r>
       <r>   -4.9179    1.0000 </r>
       <r>   -4.9121    1.0000 </r>
       <r>   -4.9007    1.0000 </r>
       <r>   -4.8799    1.0000 </r>
       <r>   -4.8481    1.0000 </r>
       <r>   -4.8314    1.0000 </r>
       <r>   -4.8282    1.0000 </r>
       <r>   -4.8101    1.0000 </r>
       <r>   -4.7966    1.0000 </r>
       <r>   -4.7702    1.0000 </r>
       <r>   -4.7507    1.0000 </r>
       <r>   -4.6363    1.0000 </r>
       <r>   -4.6238    1.0000 </r>
       <r>   -4.5570    1.0000 </r>
       <r>   -4.5158    1.0000 </r>
       <r>   -4.3004    1.0000 </r>
       <r>   -4.2998    1.0000 </r>
       <r>   -2.6653    1.0000 </r>
       <r>   -2.3506    1.0000 </r>
       <r>   -2.0273    1.0000 </r>
       <r>   -1.8032    1.0000 </r>
       <r>   -1.6878    1.0000 </r>
       <r>   -1.6833    1.0000 </r>
       <r>   -1.6386    1.0000 </r>
       <r>   -1.5963    1.0000 </r>
       <r>   -1.5473    1.0000 </r>
       <r>   -1.3715    1.0000 </r>
       <r>   -1.2882    1.0000 </r>
       <r>   -1.2411    1.0000 </r>
       <r>   -1.1520    1.0000 </r>
       <r>   -1.0813    1.0000 </r>
       <r>   -1.0106    1.0000 </r>
       <r>   -0.9155    1.0000 </r>
       <r>   -0.9113    1.0000 </r>
       <r>   -0.8712    1.0000 </r>
       <r>   -0.8560    1.0000 </r>
       <r>   -0.8041    1.0000 </r>
       <r>   -0.7992    1.0000 </r>
       <r>   -0.7541    1.0000 </r>
       <r>   -0.7394    1.0000 </r>
       <r>   -0.7053    1.0000 </r>
       <r>   -0.6827    1.0000 </r>
       <r>   -0.6356    1.0000 </r>
       <r>   -0.6331    1.0000 </r>
       <r>   -0.6065    1.0000 </r>
       <r>   -0.5604    1.0000 </r>
       <r>   -0.5524    1.0000 </r>
       <r>   -0.5068    1.0000 </r>
       <r>   -0.4897    1.0000 </r>
       <r>   -0.4542    1.0000 </r>
       <r>   -0.3596    1.0000 </r>
       <r>   -0.3480    1.0000 </r>
       <r>   -0.3170    1.0000 </r>
       <r>   -0.2957    1.0000 </r>
       <r>   -0.2714    1.0000 </r>
       <r>   -0.2608    1.0000 </r>
       <r>   -0.2528    1.0000 </r>
       <r>   -0.2054    1.0000 </r>
       <r>   -0.2041    1.0000 </r>
       <r>   -0.1973    1.0000 </r>
       <r>   -0.1455    1.0000 </r>
       <r>   -0.0359    1.0000 </r>
       <r>    0.0097    1.0000 </r>
       <r>    0.1162    1.0000 </r>
       <r>    0.1319    1.0000 </r>
       <r>    0.1379    1.0000 </r>
       <r>    0.1526    1.0000 </r>
       <r>    0.1719    1.0000 </r>
       <r>    0.1874    1.0000 </r>
       <r>    0.2231    1.0000 </r>
       <r>    0.3240    1.0000 </r>
       <r>    0.3722    1.0000 </r>
       <r>    0.4200    1.0000 </r>
       <r>    0.4952    1.0000 </r>
       <r>    0.5153    1.0000 </r>
       <r>    0.5275    1.0000 </r>
       <r>    0.5805    1.0000 </r>
       <r>    1.7548    0.0000 </r>
       <r>    1.8435    0.0000 </r>
       <r>    1.8972    0.0000 </r>
       <r>    1.9218    0.0000 </r>
       <r>    2.0057    0.0000 </r>
       <r>    2.0131    0.0000 </r>
       <r>    2.0232    0.0000 </r>
       <r>    2.0458    0.0000 </r>
       <r>    2.0823    0.0000 </r>
       <r>    2.1299    0.0000 </r>
       <r>    2.1987    0.0000 </r>
       <r>    2.2369    0.0000 </r>
       <r>    2.3077    0.0000 </r>
       <r>    2.3106    0.0000 </r>
       <r>    2.3223    0.0000 </r>
       <r>    2.4338    0.0000 </r>
       <r>    2.4751    0.0000 </r>
       <r>    2.5241    0.0000 </r>
       <r>    2.6202    0.0000 </r>
       <r>    2.6267    0.0000 </r>
       <r>    2.6519    0.0000 </r>
       <r>    2.6618    0.0000 </r>
       <r>    2.7009    0.0000 </r>
       <r>    2.7761    0.0000 </r>
       <r>    2.9205    0.0000 </r>
       <r>    2.9697    0.0000 </r>
       <r>    3.0552    0.0000 </r>
       <r>    3.0643    0.0000 </r>
       <r>    3.1703    0.0000 </r>
       <r>    3.1786    0.0000 </r>
       <r>    3.2049    0.0000 </r>
       <r>    3.2760    0.0000 </r>
       <r>    3.2890    0.0000 </r>
       <r>    3.3563    0.0000 </r>
       <r>    3.3962    0.0000 </r>
       <r>    3.4554    0.0000 </r>
      </set>
      <set comment="kpoint 3">
       <r>  -27.7776    1.0000 </r>
       <r>  -27.7775    1.0000 </r>
       <r>  -26.8054    1.0000 </r>
       <r>  -26.8051    1.0000 </r>
       <r>  -26.7918    1.0000 </r>
       <r>  -26.7915    1.0000 </r>
       <r>  -26.7648    1.0000 </r>
       <r>  -26.7646    1.0000 </r>
       <r>  -26.7132    1.0000 </r>
       <r>  -26.7118    1.0000 </r>
       <r>  -26.7028    1.0000 </r>
       <r>  -26.7006    1.0000 </r>
       <r>  -26.6479    1.0000 </r>
       <r>  -26.6473    1.0000 </r>
       <r>  -26.6431    1.0000 </r>
       <r>  -26.6431    1.0000 </r>
       <r>  -26.6238    1.0000 </r>
       <r>  -26.6208    1.0000 </r>
       <r>  -26.5871    1.0000 </r>
       <r>  -26.5870    1.0000 </r>
       <r>  -13.1525    1.0000 </r>
       <r>  -13.1524    1.0000 </r>
       <r>  -13.0801    1.0000 </r>
       <r>  -13.0800    1.0000 </r>
       <r>  -12.9901    1.0000 </r>
       <r>  -12.9900    1.0000 </r>
       <r>  -12.4011    1.0000 </r>
       <r>  -12.3997    1.0000 </r>
       <r>  -12.3334    1.0000 </r>
       <r>  -12.3210    1.0000 </r>
       <r>  -12.2874    1.0000 </r>
       <r>  -12.2861    1.0000 </r>
       <r>  -12.2546    1.0000 </r>
       <r>  -12.2483    1.0000 </r>
       <r>  -12.2406    1.0000 </r>
       <r>  -12.2158    1.0000 </r>
       <r>  -12.2053    1.0000 </r>
       <r>  -12.1960    1.0000 </r>
       <r>  -12.1936    1.0000 </r>
       <r>  -12.1753    1.0000 </r>
       <r>  -12.1710    1.0000 </r>
       <r>  -12.1658    1.0000 </r>
       <r>  -12.1623    1.0000 </r>
       <r>  -12.1596    1.0000 </r>
       <r>  -12.1490    1.0000 </r>
       <r>  -12.1430    1.0000 </r>
       <r>  -12.1305    1.0000 </r>
       <r>  -12.1298    1.0000 </r>
       <r>  -12.1274    1.0000 </r>
       <r>  -12.1196    1.0000 </r>
       <r>  -12.1158    1.0000 </r>
       <r>  -12.1113    1.0000 </r>
       <r>  -12.1066    1.0000 </r>
       <r>  -12.0961    1.0000 </r>
       <r>  -12.0917    1.0000 </r>
       <r>  -12.0678    1.0000 </r>
       <r>  -12.0494    1.0000 </r>
       <r>  -12.0478    1.0000 </r>
       <r>  -11.9915    1.0000 </r>
       <r>  -11.9834    1.0000 </r>
       <r>  -11.9699    1.0000 </r>
       <r>  -11.9576    1.0000 </r>
       <r>  -11.9550    1.0000 </r>
       <r>  -11.9492    1.0000 </r>
       <r>  -11.9437    1.0000 </r>
       <r>  -11.9387    1.0000 </r>
       <r>  -11.9365    1.0000 </r>
       <r>  -11.9251    1.0000 </r>
       <r>  -11.9186    1.0000 </r>
       <r>  -11.9088    1.0000 </r>
       <r>  -11.9055    1.0000 </r>
       <r>  -11.9002    1.0000 </r>
       <r>  -11.8989    1.0000 </r>
       <r>  -11.8955    1.0000 </r>
       <r>  -11.8890    1.0000 </r>
       <r>  -11.8873    1.0000 </r>
       <r>  -11.8840    1.0000 </r>
       <r>  -11.8762    1.0000 </r>
       <r>  -11.8708    1.0000 </r>
       <r>  -11.8705    1.0000 </r>
       <r>   -9.9917    1.0000 </r>
       <r>   -9.8901    1.0000 </r>
       <r>   -9.7792    1.0000 </r>
       <r>   -9.7469    1.0000 </r>
       <r>   -9.7216    1.0000 </r>
       <r>   -9.7196    1.0000 </r>
       <r>   -9.7117    1.0000 </r>
       <r>   -9.6895    1.0000 </r>
       <r>   -9.3317    1.0000 </r>
       <r>   -9.3311    1.0000 </r>
       <r>   -5.3920    1.0000 </r>
       <r>   -5.3397    1.0000 </r>
       <r>   -5.3352    1.0000 </r>
       <r>   -5.2025    1.0000 </r>
       <r>   -5.1956    1.0000 </r>
       <r>   -5.0794    1.0000 </r>
       <r>   -5.0525    1.0000 </r>
       <r>   -5.0450    1.0000 </r>
       <r>   -5.0082    1.0000 </r>
       <r>   -4.9827    1.0000 </r>
       <r>   -4.9671    1.0000 </r>
       <r>   -4.9462    1.0000 </r>
       <r>   -4.9430    1.0000 </r>
       <r>   -4.9147    1.0000 </r>
       <r>   -4.9122    1.0000 </r>
       <r>   -4.8977    1.0000 </r>
       <r>   -4.8841    1.0000 </r>
       <r>   -4.8527    1.0000 </r>
       <r>   -4.8328    1.0000 </r>
       <r>   -4.8245    1.0000 </r>
       <r>   -4.8196    1.0000 </r>
       <r>   -4.7926    1.0000 </r>
       <r>   -4.7673    1.0000 </r>
       <r>   -4.7589    1.0000 </r>
       <r>   -4.6335    1.0000 </r>
       <r>   -4.6217    1.0000 </r>
       <r>   -4.5550    1.0000 </r>
       <r>   -4.5161    1.0000 </r>
       <r>   -4.3061    1.0000 </r>
       <r>   -4.3052    1.0000 </r>
       <r>   -2.6450    1.0000 </r>
       <r>   -2.3347    1.0000 </r>
       <r>   -2.0148    1.0000 </r>
       <r>   -1.7935    1.0000 </r>
       <r>   -1.6776    1.0000 </r>
       <r>   -1.6727    1.0000 </r>
       <r>   -1.6322    1.0000 </r>
       <r>   -1.5909    1.0000 </r>
       <r>   -1.5459    1.0000 </r>
       <r>   -1.3689    1.0000 </r>
       <r>   -1.2824    1.0000 </r>
       <r>   -1.2426    1.0000 </r>
       <r>   -1.1549    1.0000 </r>
       <r>   -1.0803    1.0000 </r>
       <r>   -1.0344    1.0000 </r>
       <r>   -0.9165    1.0000 </r>
       <r>   -0.9101    1.0000 </r>
       <r>   -0.8742    1.0000 </r>
       <r>   -0.8459    1.0000 </r>
       <r>   -0.8103    1.0000 </r>
       <r>   -0.8035    1.0000 </r>
       <r>   -0.7410    1.0000 </r>
       <r>   -0.7356    1.0000 </r>
       <r>   -0.7169    1.0000 </r>
       <r>   -0.6798    1.0000 </r>
       <r>   -0.6381    1.0000 </r>
       <r>   -0.6379    1.0000 </r>
       <r>   -0.6180    1.0000 </r>
       <r>   -0.5584    1.0000 </r>
       <r>   -0.5483    1.0000 </r>
       <r>   -0.5056    1.0000 </r>
       <r>   -0.4936    1.0000 </r>
       <r>   -0.4562    1.0000 </r>
       <r>   -0.3661    1.0000 </r>
       <r>   -0.3584    1.0000 </r>
       <r>   -0.3326    1.0000 </r>
       <r>   -0.3009    1.0000 </r>
       <r>   -0.2765    1.0000 </r>
       <r>   -0.2509    1.0000 </r>
       <r>   -0.2507    1.0000 </r>
       <r>   -0.1964    1.0000 </r>
       <r>   -0.1945    1.0000 </r>
       <r>   -0.1912    1.0000 </r>
       <r>   -0.1356    1.0000 </r>
       <r>   -0.0348    1.0000 </r>
       <r>    0.0059    1.0000 </r>
       <r>    0.1197    1.0000 </r>
       <r>    0.1238    1.0000 </r>
       <r>    0.1285    1.0000 </r>
       <r>    0.1405    1.0000 </r>
       <r>    0.1776    1.0000 </r>
       <r>    0.1980    1.0000 </r>
       <r>    0.2135    1.0000 </r>
       <r>    0.2894    1.0000 </r>
       <r>    0.3715    1.0000 </r>
       <r>    0.4197    1.0000 </r>
       <r>    0.5005    1.0000 </r>
       <r>    0.5122    1.0000 </r>
       <r>    0.5454    1.0000 </r>
       <r>    0.5834    1.0000 </r>
       <r>    1.7543    0.0000 </r>
       <r>    1.8192    0.0000 </r>
       <r>    1.8754    0.0000 </r>
       <r>    1.9310    0.0000 </r>
       <r>    1.9865    0.0000 </r>
       <r>    2.0159    0.0000 </r>
       <r>    2.0166    0.0000 </r>
       <r>    2.0559    0.0000 </r>
       <r>    2.0823    0.0000 </r>
       <r>    2.1092    0.0000 </r>
       <r>    2.2066    0.0000 </r>
       <r>    2.2491    0.0000 </r>
       <r>    2.3056    0.0000 </r>
       <r>    2.3157    0.0000 </r>
       <r>    2.3297    0.0000 </r>
       <r>    2.4453    0.0000 </r>
       <r>    2.4847    0.0000 </r>
       <r>    2.4992    0.0000 </r>
       <r>    2.5922    0.0000 </r>
       <r>    2.5997    0.0000 </r>
       <r>    2.6498    0.0000 </r>
       <r>    2.6796    0.0000 </r>
       <r>    2.7166    0.0000 </r>
       <r>    2.8011    0.0000 </r>
       <r>    2.9264    0.0000 </r>
       <r>    2.9503    0.0000 </r>
       <r>    3.0434    0.0000 </r>
       <r>    3.0727    0.0000 </r>
       <r>    3.1672    0.0000 </r>
       <r>    3.2018    0.0000 </r>
       <r>    3.2171    0.0000 </r>
       <r>    3.2331    0.0000 </r>
       <r>    3.3023    0.0000 </r>
       <r>    3.3134    0.0000 </r>
       <r>    3.4040    0.0000 </r>
       <r>    3.4320    0.0000 </r>
      </set>
      <set comment="kpoint 4">
       <r>  -27.7776    1.0000 </r>
       <r>  -27.7775    1.0000 </r>
       <r>  -26.8054    1.0000 </r>
       <r>  -26.8051    1.0000 </r>
       <r>  -26.7918    1.0000 </r>
       <r>  -26.7915    1.0000 </r>
       <r>  -26.7648    1.0000 </r>
       <r>  -26.7646    1.0000 </r>
       <r>  -26.7131    1.0000 </r>
       <r>  -26.7117    1.0000 </r>
       <r>  -26.7027    1.0000 </r>
       <r>  -26.7006    1.0000 </r>
       <r>  -26.6480    1.0000 </r>
       <r>  -26.6473    1.0000 </r>
       <r>  -26.6432    1.0000 </r>
       <r>  -26.6431    1.0000 </r>
       <r>  -26.6238    1.0000 </r>
       <r>  -26.6209    1.0000 </r>
       <r>  -26.5871    1.0000 </r>
       <r>  -26.5870    1.0000 </r>
       <r>  -13.1523    1.0000 </r>
       <r>  -13.1522    1.0000 </r>
       <r>  -13.0803    1.0000 </r>
       <r>  -13.0802    1.0000 </r>
       <r>  -12.9912    1.0000 </r>
       <r>  -12.9911    1.0000 </r>
       <r>  -12.4010    1.0000 </r>
       <r>  -12.3994    1.0000 </r>
       <r>  -12.3340    1.0000 </r>
       <r>  -12.3239    1.0000 </r>
       <r>  -12.2936    1.0000 </r>
       <r>  -12.2884    1.0000 </r>
       <r>  -12.2527    1.0000 </r>
       <r>  -12.2459    1.0000 </r>
       <r>  -12.2350    1.0000 </r>
       <r>  -12.2185    1.0000 </r>
       <r>  -12.2101    1.0000 </r>
       <r>  -12.1978    1.0000 </r>
       <r>  -12.1928    1.0000 </r>
       <r>  -12.1798    1.0000 </r>
       <r>  -12.1742    1.0000 </r>
       <r>  -12.1668    1.0000 </r>
       <r>  -12.1662    1.0000 </r>
       <r>  -12.1637    1.0000 </r>
       <r>  -12.1527    1.0000 </r>
       <r>  -12.1488    1.0000 </r>
       <r>  -12.1331    1.0000 </r>
       <r>  -12.1309    1.0000 </r>
       <r>  -12.1260    1.0000 </r>
       <r>  -12.1244    1.0000 </r>
       <r>  -12.1176    1.0000 </r>
       <r>  -12.1057    1.0000 </r>
       <r>  -12.1016    1.0000 </r>
       <r>  -12.0936    1.0000 </r>
       <r>  -12.0874    1.0000 </r>
       <r>  -12.0597    1.0000 </r>
       <r>  -12.0493    1.0000 </r>
       <r>  -12.0453    1.0000 </r>
       <r>  -11.9909    1.0000 </r>
       <r>  -11.9853    1.0000 </r>
       <r>  -11.9700    1.0000 </r>
       <r>  -11.9569    1.0000 </r>
       <r>  -11.9564    1.0000 </r>
       <r>  -11.9480    1.0000 </r>
       <r>  -11.9430    1.0000 </r>
       <r>  -11.9376    1.0000 </r>
       <r>  -11.9348    1.0000 </r>
       <r>  -11.9254    1.0000 </r>
       <r>  -11.9211    1.0000 </r>
       <r>  -11.9085    1.0000 </r>
       <r>  -11.9034    1.0000 </r>
       <r>  -11.8994    1.0000 </r>
       <r>  -11.8985    1.0000 </r>
       <r>  -11.8943    1.0000 </r>
       <r>  -11.8885    1.0000 </r>
       <r>  -11.8873    1.0000 </r>
       <r>  -11.8848    1.0000 </r>
       <r>  -11.8752    1.0000 </r>
       <r>  -11.8709    1.0000 </r>
       <r>  -11.8704    1.0000 </r>
       <r>   -9.9845    1.0000 </r>
       <r>   -9.8852    1.0000 </r>
       <r>   -9.7765    1.0000 </r>
       <r>   -9.7455    1.0000 </r>
       <r>   -9.7209    1.0000 </r>
       <r>   -9.7179    1.0000 </r>
       <r>   -9.7106    1.0000 </r>
       <r>   -9.6894    1.0000 </r>
       <r>   -9.3296    1.0000 </r>
       <r>   -9.3290    1.0000 </r>
       <r>   -5.3827    1.0000 </r>
       <r>   -5.3310    1.0000 </r>
       <r>   -5.3301    1.0000 </r>
       <r>   -5.2047    1.0000 </r>
       <r>   -5.1919    1.0000 </r>
       <r>   -5.0772    1.0000 </r>
       <r>   -5.0604    1.0000 </r>
       <r>   -5.0407    1.0000 </r>
       <r>   -5.0012    1.0000 </r>
       <r>   -4.9796    1.0000 </r>
       <r>   -4.9681    1.0000 </r>
       <r>   -4.9498    1.0000 </r>
       <r>   -4.9472    1.0000 </r>
       <r>   -4.9149    1.0000 </r>
       <r>   -4.9099    1.0000 </r>
       <r>   -4.9049    1.0000 </r>
       <r>   -4.8818    1.0000 </r>
       <r>   -4.8552    1.0000 </r>
       <r>   -4.8407    1.0000 </r>
       <r>   -4.8254    1.0000 </r>
       <r>   -4.8208    1.0000 </r>
       <r>   -4.7895    1.0000 </r>
       <r>   -4.7785    1.0000 </r>
       <r>   -4.7570    1.0000 </r>
       <r>   -4.6291    1.0000 </r>
       <r>   -4.6183    1.0000 </r>
       <r>   -4.5522    1.0000 </r>
       <r>   -4.5166    1.0000 </r>
       <r>   -4.3155    1.0000 </r>
       <r>   -4.3136    1.0000 </r>
       <r>   -2.6122    1.0000 </r>
       <r>   -2.3088    1.0000 </r>
       <r>   -1.9943    1.0000 </r>
       <r>   -1.7777    1.0000 </r>
       <r>   -1.6610    1.0000 </r>
       <r>   -1.6561    1.0000 </r>
       <r>   -1.6218    1.0000 </r>
       <r>   -1.5821    1.0000 </r>
       <r>   -1.5431    1.0000 </r>
       <r>   -1.3650    1.0000 </r>
       <r>   -1.2731    1.0000 </r>
       <r>   -1.2471    1.0000 </r>
       <r>   -1.1594    1.0000 </r>
       <r>   -1.0787    1.0000 </r>
       <r>   -1.0612    1.0000 </r>
       <r>   -0.9198    1.0000 </r>
       <r>   -0.9088    1.0000 </r>
       <r>   -0.8810    1.0000 </r>
       <r>   -0.8404    1.0000 </r>
       <r>   -0.8182    1.0000 </r>
       <r>   -0.8014    1.0000 </r>
       <r>   -0.7309    1.0000 </r>
       <r>   -0.7278    1.0000 </r>
       <r>   -0.7276    1.0000 </r>
       <r>   -0.6806    1.0000 </r>
       <r>   -0.6475    1.0000 </r>
       <r>   -0.6389    1.0000 </r>
       <r>   -0.6299    1.0000 </r>
       <r>   -0.5574    1.0000 </r>
       <r>   -0.5468    1.0000 </r>
       <r>   -0.5043    1.0000 </r>
       <r>   -0.4994    1.0000 </r>
       <r>   -0.4597    1.0000 </r>
       <r>   -0.3965    1.0000 </r>
       <r>   -0.3556    1.0000 </r>
       <r>   -0.3457    1.0000 </r>
       <r>   -0.3069    1.0000 </r>
       <r>   -0.2838    1.0000 </r>
       <r>   -0.2455    1.0000 </r>
       <r>   -0.2419    1.0000 </r>
       <r>   -0.1928    1.0000 </r>
       <r>   -0.1831    1.0000 </r>
       <r>   -0.1748    1.0000 </r>
       <r>   -0.1227    1.0000 </r>
       <r>   -0.0328    1.0000 </r>
       <r>    0.0003    1.0000 </r>
       <r>    0.1070    1.0000 </r>
       <r>    0.1126    1.0000 </r>
       <r>    0.1146    1.0000 </r>
       <r>    0.1453    1.0000 </r>
       <r>    0.1777    1.0000 </r>
       <r>    0.2039    1.0000 </r>
       <r>    0.2057    1.0000 </r>
       <r>    0.2492    1.0000 </r>
       <r>    0.3701    1.0000 </r>
       <r>    0.4144    1.0000 </r>
       <r>    0.5062    1.0000 </r>
       <r>    0.5074    1.0000 </r>
       <r>    0.5691    1.0000 </r>
       <r>    0.5872    1.0000 </r>
       <r>    1.7510    0.0000 </r>
       <r>    1.7863    0.0000 </r>
       <r>    1.8472    0.0000 </r>
       <r>    1.9394    0.0000 </r>
       <r>    1.9589    0.0000 </r>
       <r>    2.0149    0.0000 </r>
       <r>    2.0161    0.0000 </r>
       <r>    2.0527    0.0000 </r>
       <r>    2.0885    0.0000 </r>
       <r>    2.0972    0.0000 </r>
       <r>    2.2157    0.0000 </r>
       <r>    2.2539    0.0000 </r>
       <r>    2.3112    0.0000 </r>
       <r>    2.3124    0.0000 </r>
       <r>    2.3508    0.0000 </r>
       <r>    2.4546    0.0000 </r>
       <r>    2.4629    0.0000 </r>
       <r>    2.4942    0.0000 </r>
       <r>    2.5590    0.0000 </r>
       <r>    2.5807    0.0000 </r>
       <r>    2.6430    0.0000 </r>
       <r>    2.7029    0.0000 </r>
       <r>    2.7346    0.0000 </r>
       <r>    2.8296    0.0000 </r>
       <r>    2.9327    0.0000 </r>
       <r>    2.9333    0.0000 </r>
       <r>    3.0212    0.0000 </r>
       <r>    3.0885    0.0000 </r>
       <r>    3.1474    0.0000 </r>
[...]
       <r>    3.1726    0.0000 </r>
       <r>    3.1987    0.0000 </r>
       <r>    3.2842    0.0000 </r>
       <r>    3.2970    0.0000 </r>
       <r>    3.3808    0.0000 </r>
       <r>    3.3947    0.0000 </r>
       <r>    3.4311    0.0000 </r>
      </set>
     </set>
    </set>
   </array>
  </eigenvalues>
  <separator name="orbital magnetization" >
   <v name="MAGDIPOLOUT">      0.00000000      0.00000000      0.00000000</v>
  </separator>
  <dos>
   <i name="efermi">      0.75215211 </i>
   <total>
    <array>
     <dimension dim="1">gridpoints</dimension>
     <dimension dim="2">spin</dimension>
     <field>energy</field>
     <field>total</field>
     <field>integrated</field>
     <set>
      <set comment="spin 1">
       <r>   -29.3425     0.0000     0.0000 </r>
       <r>   -29.2277     0.0000     0.0000 </r>
       <r>   -29.1130     0.0000     0.0000 </r>
       <r>   -28.9982     0.0000     0.0000 </r>
       <r>   -28.8835     0.0000     0.0000 </r>
       <r>   -28.7687     0.0000     0.0000 </r>
       <r>   -28.6540     0.0000     0.0000 </r>
       <r>   -28.5392     0.0000     0.0000 </r>
       <r>   -28.4245     0.0000     0.0000 </r>
       <r>   -28.3097     0.0000     0.0000 </r>
       <r>   -28.1949     0.0000     0.0000 </r>
       <r>   -28.0802     0.0000     0.0000 </r>
       <r>   -27.9654     0.0000     0.0000 </r>
       <r>   -27.8507     0.0000     0.0000 </r>
       <r>   -27.7359    34.8567     4.0000 </r>
       <r>   -27.6212     0.0000     4.0000 </r>
       <r>   -27.5064     0.0000     4.0000 </r>
       <r>   -27.3917     0.0000     4.0000 </r>
       <r>   -27.2769     0.0000     4.0000 </r>
       <r>   -27.1621     0.0000     4.0000 </r>
       <r>   -27.0474     0.0000     4.0000 </r>
       <r>   -26.9326     0.0000     4.0000 </r>
       <r>   -26.8179     1.2148     4.1394 </r>
       <r>   -26.7031    78.8584    21.0494 </r>
       <r>   -26.5884   120.1598    37.7890 </r>
       <r>   -26.4736     0.0000    40.0000 </r>
       <r>   -26.3589     0.0000    40.0000 </r>
       <r>   -26.2441     0.0000    40.0000 </r>
       <r>   -26.1293     0.0000    40.0000 </r>
       <r>   -26.0146     0.0000    40.0000 </r>
       <r>   -25.8998     0.0000    40.0000 </r>
       <r>   -25.7851     0.0000    40.0000 </r>
       <r>   -25.6703     0.0000    40.0000 </r>
       <r>   -25.5556     0.0000    40.0000 </r>
       <r>   -25.4408     0.0000    40.0000 </r>
       <r>   -25.3261     0.0000    40.0000 </r>
       <r>   -25.2113     0.0000    40.0000 </r>
       <r>   -25.0965     0.0000    40.0000 </r>
       <r>   -24.9818     0.0000    40.0000 </r>
       <r>   -24.8670     0.0000    40.0000 </r>
       <r>   -24.7523     0.0000    40.0000 </r>
       <r>   -24.6375     0.0000    40.0000 </r>
       <r>   -24.5228     0.0000    40.0000 </r>
       <r>   -24.4080     0.0000    40.0000 </r>
       <r>   -24.2933     0.0000    40.0000 </r>
       <r>   -24.1785     0.0000    40.0000 </r>
       <r>   -24.0637     0.0000    40.0000 </r>
       <r>   -23.9490     0.0000    40.0000 </r>
       <r>   -23.8342     0.0000    40.0000 </r>
       <r>   -23.7195     0.0000    40.0000 </r>
       <r>   -23.6047     0.0000    40.0000 </r>
       <r>   -23.4900     0.0000    40.0000 </r>
       <r>   -23.3752     0.0000    40.0000 </r>
       <r>   -23.2605     0.0000    40.0000 </r>
       <r>   -23.1457     0.0000    40.0000 </r>
       <r>   -23.0309     0.0000    40.0000 </r>
       <r>   -22.9162     0.0000    40.0000 </r>
       <r>   -22.8014     0.0000    40.0000 </r>
       <r>   -22.6867     0.0000    40.0000 </r>
       <r>   -22.5719     0.0000    40.0000 </r>
       <r>   -22.4572     0.0000    40.0000 </r>
       <r>   -22.3424     0.0000    40.0000 </r>
       <r>   -22.2277     0.0000    40.0000 </r>
       <r>   -22.1129     0.0000    40.0000 </r>
       <r>   -21.9981     0.0000    40.0000 </r>
       <r>   -21.8834     0.0000    40.0000 </r>
       <r>   -21.7686     0.0000    40.0000 </r>
       <r>   -21.6539     0.0000    40.0000 </r>
       <r>   -21.5391     0.0000    40.0000 </r>
       <r>   -21.4244     0.0000    40.0000 </r>
       <r>   -21.3096     0.0000    40.0000 </r>
       <r>   -21.1949     0.0000    40.0000 </r>
       <r>   -21.0801     0.0000    40.0000 </r>
       <r>   -20.9653     0.0000    40.0000 </r>
       <r>   -20.8506     0.0000    40.0000 </r>
       <r>   -20.7358     0.0000    40.0000 </r>
       <r>   -20.6211     0.0000    40.0000 </r>
       <r>   -20.5063     0.0000    40.0000 </r>
       <r>   -20.3916     0.0000    40.0000 </r>
       <r>   -20.2768     0.0000    40.0000 </r>
       <r>   -20.1621     0.0000    40.0000 </r>
       <r>   -20.0473     0.0000    40.0000 </r>
       <r>   -19.9325     0.0000    40.0000 </r>
       <r>   -19.8178     0.0000    40.0000 </r>
       <r>   -19.7030     0.0000    40.0000 </r>
       <r>   -19.5883     0.0000    40.0000 </r>
       <r>   -19.4735     0.0000    40.0000 </r>
       <r>   -19.3588     0.0000    40.0000 </r>
       <r>   -19.2440     0.0000    40.0000 </r>
       <r>   -19.1293     0.0000    40.0000 </r>
       <r>   -19.0145     0.0000    40.0000 </r>
       <r>   -18.8997     0.0000    40.0000 </r>
       <r>   -18.7850     0.0000    40.0000 </r>
       <r>   -18.6702     0.0000    40.0000 </r>
       <r>   -18.5555     0.0000    40.0000 </r>
       <r>   -18.4407     0.0000    40.0000 </r>
       <r>   -18.3260     0.0000    40.0000 </r>
       <r>   -18.2112     0.0000    40.0000 </r>
       <r>   -18.0965     0.0000    40.0000 </r>
       <r>   -17.9817     0.0000    40.0000 </r>
       <r>   -17.8669     0.0000    40.0000 </r>
       <r>   -17.7522     0.0000    40.0000 </r>
       <r>   -17.6374     0.0000    40.0000 </r>
       <r>   -17.5227     0.0000    40.0000 </r>
       <r>   -17.4079     0.0000    40.0000 </r>
       <r>   -17.2932     0.0000    40.0000 </r>
       <r>   -17.1784     0.0000    40.0000 </r>
       <r>   -17.0637     0.0000    40.0000 </r>
       <r>   -16.9489     0.0000    40.0000 </r>
       <r>   -16.8341     0.0000    40.0000 </r>
       <r>   -16.7194     0.0000    40.0000 </r>
       <r>   -16.6046     0.0000    40.0000 </r>
       <r>   -16.4899     0.0000    40.0000 </r>
       <r>   -16.3751     0.0000    40.0000 </r>
       <r>   -16.2604     0.0000    40.0000 </r>
       <r>   -16.1456     0.0000    40.0000 </r>
       <r>   -16.0309     0.0000    40.0000 </r>
       <r>   -15.9161     0.0000    40.0000 </r>
       <r>   -15.8013     0.0000    40.0000 </r>
       <r>   -15.6866     0.0000    40.0000 </r>
       <r>   -15.5718     0.0000    40.0000 </r>
       <r>   -15.4571     0.0000    40.0000 </r>
       <r>   -15.3423     0.0000    40.0000 </r>
       <r>   -15.2276     0.0000    40.0000 </r>
       <r>   -15.1128     0.0000    40.0000 </r>
       <r>   -14.9981     0.0000    40.0000 </r>
       <r>   -14.8833     0.0000    40.0000 </r>
       <r>   -14.7685     0.0000    40.0000 </r>
       <r>   -14.6538     0.0000    40.0000 </r>
       <r>   -14.5390     0.0000    40.0000 </r>
       <r>   -14.4243     0.0000    40.0000 </r>
       <r>   -14.3095     0.0000    40.0000 </r>
       <r>   -14.1948     0.0000    40.0000 </r>
       <r>   -14.0800     0.0000    40.0000 </r>
       <r>   -13.9653     0.0000    40.0000 </r>
       <r>   -13.8505     0.0000    40.0000 </r>
       <r>   -13.7357     0.0000    40.0000 </r>
       <r>   -13.6210     0.0000    40.0000 </r>
       <r>   -13.5062     0.0000    40.0000 </r>
       <r>   -13.3915     0.0000    40.0000 </r>
       <r>   -13.2767     0.0000    40.0000 </r>
       <r>   -13.1620     1.6265    40.1867 </r>
       <r>   -13.0472    34.8587    48.0002 </r>
       <r>   -12.9325    20.0426    52.0000 </r>
       <r>   -12.8177     0.0000    52.0000 </r>
       <r>   -12.7029     0.0000    52.0000 </r>
       <r>   -12.5882     0.0000    52.0000 </r>
       <r>   -12.4734     0.0000    52.0000 </r>
       <r>   -12.3587    39.9477    56.5842 </r>
       <r>   -12.2439    94.3211    71.4739 </r>
       <r>   -12.1292   162.0175    96.6174 </r>
       <r>   -12.0144    94.8419   115.2836 </r>
       <r>   -11.8997   178.1182   140.7401 </r>
       <r>   -11.7849    15.6855   160.0000 </r>
       <r>   -11.6701     0.0000   160.0000 </r>
       <r>   -11.5554     0.0000   160.0000 </r>
       <r>   -11.4406     0.0000   160.0000 </r>
       <r>   -11.3259     0.0000   160.0000 </r>
       <r>   -11.2111     0.0000   160.0000 </r>
       <r>   -11.0964     0.0000   160.0000 </r>
       <r>   -10.9816     0.0000   160.0000 </r>
       <r>   -10.8669     0.0000   160.0000 </r>
       <r>   -10.7521     0.0000   160.0000 </r>
       <r>   -10.6373     0.0000   160.0000 </r>
       <r>   -10.5226     0.0000   160.0000 </r>
       <r>   -10.4078     0.0000   160.0000 </r>
       <r>   -10.2931     0.0000   160.0000 </r>
       <r>   -10.1783     0.0000   160.0000 </r>
       <r>   -10.0636     0.0000   160.0000 </r>
       <r>    -9.9488     3.7079   160.4255 </r>
       <r>    -9.8341    10.4788   161.7775 </r>
       <r>    -9.7193    60.6108   169.4554 </r>
       <r>    -9.6045    15.9034   176.0000 </r>
       <r>    -9.4898     0.0000   176.0000 </r>
       <r>    -9.3750     0.0001   176.0000 </r>
       <r>    -9.2603    26.3346   179.6970 </r>
       <r>    -9.1455     0.0000   180.0000 </r>
       <r>    -9.0308     0.0000   180.0000 </r>
       <r>    -8.9160     0.0000   180.0000 </r>
       <r>    -8.8013     0.0000   180.0000 </r>
       <r>    -8.6865     0.0000   180.0000 </r>
       <r>    -8.5717     0.0000   180.0000 </r>
       <r>    -8.4570     0.0000   180.0000 </r>
       <r>    -8.3422     0.0000   180.0000 </r>
       <r>    -8.2275     0.0000   180.0000 </r>
       <r>    -8.1127     0.0000   180.0000 </r>
       <r>    -7.9980     0.0000   180.0000 </r>
       <r>    -7.8832     0.0000   180.0000 </r>
       <r>    -7.7685     0.0000   180.0000 </r>
       <r>    -7.6537     0.0000   180.0000 </r>
       <r>    -7.5389     0.0000   180.0000 </r>
       <r>    -7.4242     0.0000   180.0000 </r>
       <r>    -7.3094     0.0000   180.0000 </r>
       <r>    -7.1947     0.0000   180.0000 </r>
       <r>    -7.0799     0.0000   180.0000 </r>
       <r>    -6.9652     0.0000   180.0000 </r>
       <r>    -6.8504     0.0000   180.0000 </r>
       <r>    -6.7357     0.0000   180.0000 </r>
       <r>    -6.6209     0.0000   180.0000 </r>
       <r>    -6.5061     0.0000   180.0000 </r>
       <r>    -6.3914     0.0000   180.0000 </r>
       <r>    -6.2766     0.0000   180.0000 </r>
       <r>    -6.1619     0.0000   180.0000 </r>
       <r>    -6.0471     0.0000   180.0000 </r>
       <r>    -5.9324     0.0000   180.0000 </r>
       <r>    -5.8176     0.0000   180.0000 </r>
       <r>    -5.7028     0.0000   180.0000 </r>
       <r>    -5.5881     0.0000   180.0000 </r>
       <r>    -5.4733     0.0000   180.0000 </r>
       <r>    -5.3586     9.9234   181.1388 </r>
       <r>    -5.2438    36.0510   186.8871 </r>
       <r>    -5.1291    32.9770   191.6343 </r>
       <r>    -5.0143    28.5615   196.5276 </r>
       <r>    -4.8996    85.2012   209.0273 </r>
       <r>    -4.7848    85.9717   221.9657 </r>
       <r>    -4.6700    23.9188   228.0198 </r>
       <r>    -4.5553    10.9018   230.3510 </r>
       <r>    -4.4405    50.6227   237.3842 </r>
       <r>    -4.3258     5.5172   238.5581 </r>
       <r>    -4.2110     0.0000   240.0000 </r>
       <r>    -4.0963     0.0000   240.0000 </r>
       <r>    -3.9815     0.0000   240.0000 </r>
       <r>    -3.8668     0.0000   240.0000 </r>
       <r>    -3.7520     0.0000   240.0000 </r>
       <r>    -3.6372     0.0000   240.0000 </r>
       <r>    -3.5225     0.0000   240.0000 </r>
       <r>    -3.4077     0.0000   240.0000 </r>
       <r>    -3.2930     0.0000   240.0000 </r>
       <r>    -3.1782     0.0000   240.0000 </r>
       <r>    -3.0635     0.0000   240.0000 </r>
       <r>    -2.9487     0.0000   240.0000 </r>
       <r>    -2.8340     0.0000   240.0000 </r>
       <r>    -2.7192     0.0000   240.0000 </r>
       <r>    -2.6044     2.2614   240.2595 </r>
       <r>    -2.4897     1.0340   240.4187 </r>
       <r>    -2.3749     0.8478   240.5473 </r>
       <r>    -2.2602     2.4200   241.0027 </r>
       <r>    -2.1454     1.8472   241.3370 </r>
       <r>    -2.0307     3.4936   241.9259 </r>
       <r>    -1.9159     6.4803   243.1437 </r>
       <r>    -1.8012     4.4020   243.8302 </r>
       <r>    -1.6864    23.6858   247.0431 </r>
       <r>    -1.5716    24.5017   250.5367 </r>
       <r>    -1.4569    18.6657   254.0920 </r>
       <r>    -1.3421    31.8752   258.6829 </r>
       <r>    -1.2274    38.3742   263.7037 </r>
       <r>    -1.1126    21.6403   267.4333 </r>
       <r>    -0.9979    29.4373   271.7531 </r>
       <r>    -0.8831    41.1444   278.3216 </r>
       <r>    -0.7684    30.5203   284.4024 </r>
       <r>    -0.6536    50.6299   292.9851 </r>
       <r>    -0.5388    52.1831   302.5383 </r>
       <r>    -0.4241    34.5615   308.9161 </r>
       <r>    -0.3093    39.3618   314.6920 </r>
       <r>    -0.1946    46.4774   322.0585 </r>
       <r>    -0.0798    37.8860   328.9976 </r>
       <r>     0.0349    39.2216   334.1009 </r>
       <r>     0.1497    30.5075   338.9259 </r>
       <r>     0.2644    34.2100   345.3008 </r>
       <r>     0.3792    27.2585   350.3281 </r>
       <r>     0.4940    25.4807   354.7491 </r>
       <r>     0.6087    18.5069   359.7488 </r>
       <r>     0.7235     1.0893   360.0000 </r>
       <r>     0.8382     0.0000   360.0000 </r>
       <r>     0.9530     0.0000   360.0000 </r>
       <r>     1.0677     0.0000   360.0000 </r>
       <r>     1.1825     0.0000   360.0000 </r>
       <r>     1.2972     0.0000   360.0000 </r>
       <r>     1.4120     0.0000   360.0000 </r>
       <r>     1.5268     7.9169   360.9085 </r>
       <r>     1.6415    15.2448   363.1494 </r>
       <r>     1.7563    14.9519   365.5658 </r>
       <r>     1.8710    14.8401   368.4530 </r>
       <r>     1.9858    31.9527   372.6917 </r>
       <r>     2.1005    38.7466   378.6214 </r>
       <r>     2.2153    28.0182   383.2402 </r>
       <r>     2.3300    28.0005   388.7132 </r>
       <r>     2.4448    30.5834   393.2346 </r>
       <r>     2.5596    29.2133   398.1274 </r>
       <r>     2.6743    32.8813   403.3983 </r>
       <r>     2.7891    38.8920   409.1881 </r>
       <r>     2.9038    31.9950   413.8216 </r>
       <r>     3.0186    23.4282   417.9635 </r>
       <r>     3.1333    29.3785   422.8463 </r>
       <r>     3.2481    22.7034   427.0303 </r>
       <r>     3.3628    18.0478   430.0711 </r>
       <r>     3.4776     9.4445   431.8588 </r>
       <r>     3.5924     0.2179   432.0000 </r>
       <r>     3.7071     0.0000   432.0000 </r>
       <r>     3.8219     0.0000   432.0000 </r>
       <r>     3.9366     0.0000   432.0000 </r>
       <r>     4.0514     0.0000   432.0000 </r>
       <r>     4.1661     0.0000   432.0000 </r>
       <r>     4.2809     0.0000   432.0000 </r>
       <r>     4.3956     0.0000   432.0000 </r>
       <r>     4.5104     0.0000   432.0000 </r>
       <r>     4.6252     0.0000   432.0000 </r>
       <r>     4.7399     0.0000   432.0000 </r>
       <r>     4.8547     0.0000   432.0000 </r>
       <r>     4.9694     0.0000   432.0000 </r>
       <r>     5.0842     0.0000   432.0000 </r>
      </set>
     </set>
    </array>
   </total>
  </dos>
 </calculation>
 <structure name="finalpos" >
  <crystal>
   <varray name="basis" >
    <v>      37.35019360       0.00000000       0.00000000 </v>
    <v>       0.00000000       6.65980568       0.00000000 </v>
    <v>       0.00000000       0.00000000      11.40902835 </v>
   </varray>
   <i name="volume">   2837.93911359 </i>
   <varray name="rec_basis" >
    <v>       0.02677362       0.00000000       0.00000000 </v>
    <v>       0.00000000       0.15015453       0.00000000 </v>
    <v>       0.00000000       0.00000000       0.08764988 </v>
   </varray>
  </crystal>
  <varray name="positions" >
   <v>       0.00844337       0.25000000       0.70018439 </v>
   <v>       0.24426822       0.25000000       0.68978524 </v>
   <v>       0.48691319       0.25000000       0.69228185 </v>
   <v>       0.23626767       0.75000002       0.30920072 </v>
   <v>       0.47599844       0.75000002       0.30898828 </v>
   <v>       0.11333916       0.75000002       0.19228179 </v>
   <v>       0.35598413       0.75000002       0.18978518 </v>
   <v>       0.59180898       0.75000002       0.20018433 </v>
   <v>       0.12425386       0.25000000       0.80898832 </v>
   <v>       0.36398468       0.25000000       0.80920076 </v>
   <v>       0.05151740       0.75000002       0.91219630 </v>
   <v>       0.27888763       0.75000002       0.90508323 </v>
   <v>       0.51707018       0.75000002       0.89575730 </v>
   <v>       0.20060884       0.25000000       0.09301577 </v>
   <v>       0.44135902       0.25000000       0.09531693 </v>
   <v>       0.08318220       0.25000000       0.39575738 </v>
   <v>       0.32136469       0.25000000       0.40508331 </v>
   <v>       0.54873493       0.25000000       0.41219638 </v>
   <v>       0.15889331       0.75000002       0.59531691 </v>
   <v>       0.39964350       0.75000002       0.59301575 </v>
   <v>       0.04305183       0.07042511       0.14668631 </v>
   <v>       0.28568822       0.06936765       0.14578235 </v>
   <v>       0.52577464       0.07049690       0.14154373 </v>
   <v>       0.19514802       0.93104315       0.85356814 </v>
   <v>       0.43436436       0.93136958       0.85252370 </v>
   <v>       0.07447772       0.92950309       0.64154376 </v>
   <v>       0.31456413       0.93063234       0.64578237 </v>
   <v>       0.55720051       0.92957488       0.64668633 </v>
   <v>       0.16588798       0.06863041       0.35252370 </v>
   <v>       0.40510430       0.06895684       0.35356814 </v>
   <v>       0.19514802       0.56895685       0.85356814 </v>
   <v>       0.43436436       0.56863042       0.85252370 </v>
   <v>       0.04305183       0.42957488       0.14668631 </v>
   <v>       0.28568822       0.43063234       0.14578235 </v>
   <v>       0.52577464       0.42950309       0.14154373 </v>
   <v>       0.16588798       0.43136958       0.35252370 </v>
   <v>       0.40510430       0.43104315       0.35356814 </v>
   <v>       0.07447772       0.57049691       0.64154376 </v>
   <v>       0.31456413       0.56936766       0.64578237 </v>
   <v>       0.55720051       0.57042512       0.64668633 </v>
   <v>       0.01790832       0.75000002       0.61739127 </v>
   <v>       0.26066666       0.75000002       0.59207429 </v>
   <v>       0.50245122       0.75000002       0.58283216 </v>
   <v>       0.21942533       0.25000000       0.40784444 </v>
   <v>       0.45847045       0.25000000       0.40865337 </v>
   <v>       0.09780108       0.25000000       0.08283209 </v>
   <v>       0.33958569       0.25000000       0.09207423 </v>
   <v>       0.58234403       0.25000000       0.11739121 </v>
   <v>       0.14178185       0.75000002       0.90865341 </v>
   <v>       0.38082697       0.75000002       0.90784448 </v>
   <v>       0.04331757       0.25000000       0.96308589 </v>
   <v>       0.28685181       0.25000000       0.96330393 </v>
   <v>       0.53803817       0.25000000       0.96058386 </v>
   <v>       0.19338723       0.75000002       0.03703756 </v>
   <v>       0.43350267       0.75000002       0.03556367 </v>
   <v>       0.06221416       0.75000002       0.46058378 </v>
   <v>       0.31340054       0.75000002       0.46330385 </v>
   <v>       0.55693479       0.75000002       0.46308580 </v>
   <v>       0.16674969       0.25000000       0.53556365 </v>
   <v>       0.40686509       0.25000000       0.53703754 </v>
  </varray>
 </structure>
</modeling>
