 vasp.5.4.4.18Apr17-6-g9f103f2a35 (build Nov 21 2017 15:30:27) complex          
  
 executed on             LinuxIFC date 2020.12.16  16:37:40
 running on   64 total cores
 distrk:  each k-point on   32 cores,    2 groups
 distr:  one band on NCORES_PER_BAND=   4 cores,    8 groups


--------------------------------------------------------------------------------------------------------


 INCAR:
 POTCAR:   PAW_PBE Ba_sv 06Sep2000                
 POTCAR:   PAW_PBE Ge 05Jan2001                   

 ----------------------------------------------------------------------------- 
|                                                                             |
|           W    W    AA    RRRRR   N    N  II  N    N   GGGG   !!!           |
|           W    W   A  A   R    R  NN   N  II  NN   N  G    G  !!!           |
|           W    W  A    A  R    R  N N  N  II  N N  N  G       !!!           |
|           W WW W  AAAAAA  RRRRR   N  N N  II  N  N N  G  GGG   !            |
|           WW  WW  A    A  R   R   N   NN  II  N   NN  G    G                |
|           W    W  A    A  R    R  N    N  II  N    N   GGGG   !!!           |
|                                                                             |
|      You have enabled k-point parallelism (KPAR>1).                         |
|      This developmental code was originally  written by Paul Kent at ORNL,  |
|      and carefully double checked in Vienna.                                |
|      GW as well as linear response parallelism added by Martijn Marsman     |
|      and Georg Kresse.                                                      |
|      Carefully verify results versus KPAR=1.                                |
|      Report problems to Paul Kent and Vienna.                               |
|                                                                             |
 ----------------------------------------------------------------------------- 


 ----------------------------------------------------------------------------- 
|                                                                             |
|  ADVICE TO THIS USER RUNNING 'VASP/VAMP'   (HEAR YOUR MASTER'S VOICE ...):  |
|                                                                             |
|      You have switched on vdW-DFT.                                          |
|      This routine was written and supplied by Jiri Klimes.                  |
|      We recommed that you carefully read and cite the following             |
|      publication                                                            |
|      J. Klimes, D.R. Bowler, A. Michelides                                  |
|        J. Phys.: Cond Matt. 22 022201 (2010)                                |
|      J. Klimes, D.R. Bowler, A. Michelides                                  |
|        Phys. Rev. B. 83, 195131 (2011)                                      |
|      and references therein.                                                |
|                                                                             |
 ----------------------------------------------------------------------------- 

 POTCAR:   PAW_PBE Ba_sv 06Sep2000                
   VRHFIN =Ba: 5s5p6s                                                           
   LEXCH  = PE                                                                  
   EATOM  =   700.2255 eV,   51.4651 Ry                                         
                                                                                
   TITEL  = PAW_PBE Ba_sv 06Sep2000                                             
   LULTRA =        F    use ultrasoft PP ?                                      
   IUNSCR =        1    unscreen: 0-lin 1-nonlin 2-no                           
   RPACOR =    2.400    partial core radius                                     
   POMASS =  137.327; ZVAL   =   10.000    mass and valenz                      
   RCORE  =    2.800    outmost cutoff radius                                   
   RWIGS  =    3.740; RWIGS  =    1.979    wigner-seitz radius (au A)           
   ENMAX  =  187.210; ENMIN  =  140.408 eV                                      
   RCLOC  =    2.516    cutoff for local pot                                    
   LCOR   =        T    correct aug charges                                     
   LPAW   =        T    paw PP                                                  
   EAUG   =  351.165                                                            
   DEXC   =     .000                                                            
   RMAX   =    3.370    core radius for proj-oper                               
   RAUG   =    1.300    factor for augmentation sphere                          
   RDEP   =    2.976    radius for radial grids                                 
   QCUT   =   -3.709; QGAM   =    7.419    optimization parameters              
                                                                                
   Description                                                                  
     l     E      TYP  RCUT    TYP  RCUT                                        
     0   .000     23  2.800                                                     
     0   .000     23  2.800                                                     
     1   .000     23  2.700                                                     
     1  2.000     23  2.700                                                     
     2   .000     23  2.700                                                     
     2   .000     23  2.700                                                     
  local pseudopotential read in
  partial core-charges read in
  atomic valenz-charges read in
  non local Contribution for L=           0  read in
    real space projection operators read in
  non local Contribution for L=           0  read in
    real space projection operators read in
  non local Contribution for L=           1  read in
    real space projection operators read in
  non local Contribution for L=           1  read in
    real space projection operators read in
  non local Contribution for L=           2  read in
    real space projection operators read in
  non local Contribution for L=           2  read in
    real space projection operators read in
    PAW grid and wavefunctions read in
 
   number of l-projection  operators is LMAX  =           6
   number of lm-projection operators is LMMAX =          18
 
 POTCAR:   PAW_PBE Ge 05Jan2001                   
   VRHFIN =Ge: s2p2                                                             
   LEXCH  = PE                                                                  
   EATOM  =   104.9960 eV,    7.7170 Ry                                         
                                                                                
   TITEL  = PAW_PBE Ge 05Jan2001                                                
   LULTRA =        F    use ultrasoft PP ?                                      
   IUNSCR =        1    unscreen: 0-lin 1-nonlin 2-no                           
   RPACOR =    2.170    partial core radius                                     
   POMASS =   72.610; ZVAL   =    4.000    mass and valenz                      
   RCORE  =    2.300    outmost cutoff radius                                   
   RWIGS  =    2.300; RWIGS  =    1.217    wigner-seitz radius (au A)           
   ENMAX  =  173.807; ENMIN  =  130.355 eV                                      
   ICORE  =        3    local potential                                         
   LCOR   =        T    correct aug charges                                     
   LPAW   =        T    paw PP                                                  
   EAUG   =  385.843                                                            
   DEXC   =    -.138                                                            
   RMAX   =    3.497    core radius for proj-oper                               
   RAUG   =    1.300    factor for augmentation sphere                          
   RDEP   =    2.318    radius for radial grids                                 
   QCUT   =   -3.574; QGAM   =    7.148    optimization parameters              
                                                                                
   Description                                                                  
     l     E      TYP  RCUT    TYP  RCUT                                        
     0   .000     23  2.300                                                     
     0   .000     23  2.300                                                     
     1   .000     23  2.300                                                     
     1   .000     23  2.300                                                     
     2   .000     23  2.300                                                     
     3  -.100      7  2.300                                                     
  local pseudopotential read in
  partial core-charges read in
  atomic valenz-charges read in
  non local Contribution for L=           0  read in
    real space projection operators read in
  non local Contribution for L=           0  read in
    real space projection operators read in
  non local Contribution for L=           1  read in
    real space projection operators read in
  non local Contribution for L=           1  read in
    real space projection operators read in
  non local Contribution for L=           2  read in
    real space projection operators read in
    PAW grid and wavefunctions read in
 
   number of l-projection  operators is LMAX  =           5
   number of lm-projection operators is LMMAX =          13
 
 Optimization of the real space projectors (new method)

 maximal supplied QI-value         = 13.42
 optimisation between [QCUT,QGAM] = [ 11.40, 22.81] = [ 36.42,145.68] Ry 
 Optimized for a Real-space Cutoff    1.56 Angstroem

   l    n(q)    QCUT    max X(q) W(low)/X(q) W(high)/X(q)  e(spline) 
   0     11    11.404     7.198    0.14E-04    0.26E-04    0.99E-07
   0     11    11.404    15.603    0.29E-04    0.72E-04    0.44E-06
   1     10    11.404     3.746    0.20E-04    0.24E-04    0.43E-07
   1     10    11.404     4.362    0.22E-03    0.97E-04    0.22E-06
   2     10    11.404     5.782    0.83E-04    0.62E-05    0.27E-06
   2     10    11.404    65.505    0.42E-03    0.31E-04    0.12E-05
 Optimization of the real space projectors (new method)

 maximal supplied QI-value         = 16.25
 optimisation between [QCUT,QGAM] = [ 11.38, 22.75] = [ 36.24,144.96] Ry 
 Optimized for a Real-space Cutoff    1.27 Angstroem

   l    n(q)    QCUT    max X(q) W(low)/X(q) W(high)/X(q)  e(spline) 
   0      9    11.376     8.651    0.25E-04    0.12E-04    0.13E-07
   0      9    11.376    33.192    0.14E-03    0.18E-03    0.86E-07
   1      8    11.376     5.899    0.25E-04    0.48E-04    0.38E-07
   1      8    11.376    27.289    0.31E-03    0.36E-04    0.16E-06
   2      8    11.376     4.673    0.15E-03    0.22E-03    0.50E-07

 ----------------------------------------------------------------------------- 
|                                                                             |
|  ADVICE TO THIS USER RUNNING 'VASP/VAMP'   (HEAR YOUR MASTER'S VOICE ...):  |
|                                                                             |
|      You enforced a specific xc-type in the INCAR file,                     |
|      a different type was found on the POTCAR file                          |
|          I HOPE YOU KNOW, WHAT YOU ARE  DOING                               |
|                                                                             |
 ----------------------------------------------------------------------------- 

 PAW_PBE Ba_sv 06Sep2000                :
 energy of atom  1       EATOM= -700.2255
 kinetic energy error for atom=    0.0005 (will be added to EATOM!!)
 PAW_PBE Ge 05Jan2001                   :
 energy of atom  2       EATOM= -104.9960
 kinetic energy error for atom=    0.0002 (will be added to EATOM!!)
 
 
 POSCAR: ba8 ge16                                
  positions in cartesian coordinates
  No initial velocities read in
 exchange correlation table for  LEXCH =       42
   RHO(1)=    0.500       N(1)  =     2000
   RHO(2)=  100.500       N(2)  =     4000
 


--------------------------------------------------------------------------------------------------------


 ion  position               nearest neighbor table
   1  0.015  0.250  0.691-  24 3.40  18 3.40  13 3.45  10 3.45  16 3.45  11 3.45  21 3.60  17 3.63
                            17 3.63   5 4.41   5 4.41   7 4.42   4 4.71   4 4.71
   2  0.985  0.750  0.309-  23 3.40  17 3.40   9 3.45  14 3.45  12 3.45  15 3.45  22 3.60  18 3.63
                            18 3.63   6 4.41   6 4.41   8 4.42   3 4.71   3 4.71
   3  0.485  0.750  0.191-  22 3.40  20 3.40  12 3.45  15 3.45   9 3.45  14 3.45  23 3.60  19 3.63
                            19 3.63   7 4.41   7 4.41   5 4.42   2 4.71   2 4.71
   4  0.515  0.250  0.809-  21 3.40  19 3.40  16 3.45  11 3.45  13 3.45  10 3.45  24 3.60  20 3.63
                            20 3.63   8 4.41   8 4.41   6 4.42   1 4.71   1 4.71
   5  0.159  0.750  0.907-  10 3.46  13 3.46  21 3.48  21 3.48  11 3.50  16 3.50  22 3.54   9 3.55
                            14 3.55  17 3.71  20 3.82   1 4.41   1 4.41   3 4.42
   6  0.841  0.250  0.093-  14 3.46   9 3.46  22 3.48  22 3.48  15 3.50  12 3.50  21 3.54  13 3.55
                            10 3.55  18 3.71  19 3.82   2 4.41   2 4.41   4 4.42
   7  0.341  0.250  0.407-  15 3.46  12 3.46  23 3.48  23 3.48  14 3.50   9 3.50  24 3.54  16 3.55
                            11 3.55  19 3.71  18 3.82   3 4.41   3 4.41   1 4.42
   8  0.659  0.750  0.593-  11 3.46  16 3.46  24 3.48  24 3.48  10 3.50  13 3.50  23 3.54  12 3.55
                            15 3.55  20 3.71  17 3.82   4 4.41   4 4.41   2 4.42
   9  0.194  0.073  0.147-  14 2.41  21 2.41  19 2.42   2 3.45   3 3.45   6 3.46   7 3.50   5 3.55

  10  0.806  0.927  0.853-  13 2.41  22 2.41  20 2.42   1 3.45   4 3.45   5 3.46   8 3.50   6 3.55

  11  0.306  0.927  0.647-  16 2.41  23 2.41  17 2.42   4 3.45   1 3.45   8 3.46   5 3.50   7 3.55

  12  0.694  0.073  0.353-  15 2.41  24 2.41  18 2.42   3 3.45   2 3.45   7 3.46   6 3.50   8 3.55

  13  0.806  0.573  0.853-  10 2.41  22 2.41  20 2.42   1 3.45   4 3.45   5 3.46   8 3.50   6 3.55

  14  0.194  0.427  0.147-   9 2.41  21 2.41  19 2.42   2 3.45   3 3.45   6 3.46   7 3.50   5 3.55

  15  0.694  0.427  0.353-  12 2.41  24 2.41  18 2.42   3 3.45   2 3.45   7 3.46   6 3.50   8 3.55

  16  0.306  0.573  0.647-  11 2.41  23 2.41  17 2.42   4 3.45   1 3.45   8 3.46   5 3.50   7 3.55

  17  0.083  0.750  0.592-  11 2.42  16 2.42  23 2.45   2 3.40   1 3.63   1 3.63   5 3.71   8 3.82

  18  0.917  0.250  0.408-  15 2.42  12 2.42  24 2.45   1 3.40   2 3.63   2 3.63   6 3.71   7 3.82

  19  0.417  0.250  0.092-  14 2.42   9 2.42  21 2.45   4 3.40   3 3.63   3 3.63   7 3.71   6 3.82

  20  0.583  0.750  0.908-  10 2.42  13 2.42  22 2.45   3 3.40   4 3.63   4 3.63   8 3.71   5 3.82

  21  0.198  0.250  0.967-  14 2.41   9 2.41  19 2.45   4 3.40   5 3.48   5 3.48   6 3.54   1 3.60

  22  0.802  0.750  0.033-  10 2.41  13 2.41  20 2.45   3 3.40   6 3.48   6 3.48   5 3.54   2 3.60

  23  0.302  0.750  0.467-  11 2.41  16 2.41  17 2.45   2 3.40   7 3.48   7 3.48   8 3.54   3 3.60

  24  0.698  0.250  0.533-  15 2.41  12 2.41  18 2.45   1 3.40   8 3.48   8 3.48   7 3.54   4 3.60

 
  LATTYP: Found a simple orthorhombic cell.
 ALAT       =     6.7778496742
 B/A-ratio  =     1.3292516818
 C/A-ratio  =     1.7117734747
  
  Lattice vectors:
  
 A1 = (   0.0000000000,  -6.7778496742,   0.0000000000)
 A2 = (  -9.0094680786,   0.0000000000,   0.0000000000)
 A3 = (   0.0000000000,   0.0000000000, -11.6021432877)


Analysis of symmetry for initial positions (statically):
=====================================================================
 Subroutine PRICEL returns:
 Original cell was already a primitive cell.
 

 Routine SETGRP: Setting up the symmetry group for a 
 simple orthorhombic supercell.


 Subroutine GETGRP returns: Found  8 space group operations
 (whereof  2 operations were pure point group operations)
 out of a pool of  8 trial point group operations.


The static configuration has the point symmetry S_2 .
 The point group associated with its full space group is D_2h.


Analysis of symmetry for dynamics (positions and initial velocities):
=====================================================================
 Subroutine PRICEL returns:
 Original cell was already a primitive cell.
 

 Routine SETGRP: Setting up the symmetry group for a 
 simple orthorhombic supercell.


 Subroutine GETGRP returns: Found  8 space group operations
 (whereof  2 operations were pure point group operations)
 out of a pool of  8 trial point group operations.


The dynamic configuration has the point symmetry S_2 .
 The point group associated with its full space group is D_2h.


 Subroutine INISYM returns: Found  8 space group operations
 (whereof  2 operations are pure point group operations),
 and found     1 'primitive' translations

 
 
 KPOINTS: k-density: 6.0                          

Automatic generation of k-mesh.
Space group operators:
 irot       det(A)        alpha          n_x          n_y          n_z        tau_x        tau_y        tau_z
    1     1.000000     0.000000     1.000000     0.000000     0.000000     0.000000     0.000000     0.000000
    2    -1.000000     0.000000     1.000000     0.000000     0.000000     0.000000     0.000000     0.000000
    3     1.000000   180.000000     0.000000     0.000000     1.000000    -0.500000     0.000000    -0.500000
    4    -1.000000   180.000000     0.000000     0.000000     1.000000    -0.500000     0.000000    -0.500000
    5     1.000000   180.000000     1.000000     0.000000     0.000000    -0.500000    -0.500000    -0.500000
    6    -1.000000   180.000000     1.000000     0.000000     0.000000    -0.500000    -0.500000    -0.500000
    7     1.000000   180.000000     0.000000     1.000000     0.000000    -0.000000    -0.500000    -0.000000
    8    -1.000000   180.000000     0.000000     1.000000     0.000000     0.000000    -0.500000     0.000000
 
 Subroutine IBZKPT returns following result:
 ===========================================
 
 Found     36 irreducible k-points:
 
 Following reciprocal coordinates:
            Coordinates               Weight
  0.000000  0.000000  0.000000      1.000000
  0.200000  0.000000  0.000000      2.000000
  0.400000  0.000000  0.000000      2.000000
  0.000000  0.166667  0.000000      2.000000
  0.200000  0.166667  0.000000      4.000000
  0.400000  0.166667  0.000000      4.000000
  0.000000  0.333333  0.000000      2.000000
  0.200000  0.333333  0.000000      4.000000
  0.400000  0.333333  0.000000      4.000000
  0.000000  0.500000  0.000000      1.000000
  0.200000  0.500000  0.000000      2.000000
  0.400000  0.500000  0.000000      2.000000
  0.000000  0.000000  0.250000      2.000000
  0.200000  0.000000  0.250000      4.000000
  0.400000  0.000000  0.250000      4.000000
  0.000000  0.166667  0.250000      4.000000
  0.200000  0.166667  0.250000      8.000000
  0.400000  0.166667  0.250000      8.000000
  0.000000  0.333333  0.250000      4.000000
  0.200000  0.333333  0.250000      8.000000
  0.400000  0.333333  0.250000      8.000000
  0.000000  0.500000  0.250000      2.000000
  0.200000  0.500000  0.250000      4.000000
  0.400000  0.500000  0.250000      4.000000
  0.000000  0.000000  0.500000      1.000000
  0.200000  0.000000  0.500000      2.000000
  0.400000  0.000000  0.500000      2.000000
  0.000000  0.166667  0.500000      2.000000
  0.200000  0.166667  0.500000      4.000000
  0.400000  0.166667  0.500000      4.000000
  0.000000  0.333333  0.500000      2.000000
  0.200000  0.333333  0.500000      4.000000
  0.400000  0.333333  0.500000      4.000000
  0.000000  0.500000  0.500000      1.000000
  0.200000  0.500000  0.500000      2.000000
  0.400000  0.500000  0.500000      2.000000
 
 Following cartesian coordinates:
            Coordinates               Weight
  0.000000  0.000000  0.000000      1.000000
  0.022199  0.000000  0.000000      2.000000
  0.044398  0.000000  0.000000      2.000000
  0.000000  0.024590  0.000000      2.000000
  0.022199  0.024590  0.000000      4.000000
  0.044398  0.024590  0.000000      4.000000
  0.000000  0.049180  0.000000      2.000000
  0.022199  0.049180  0.000000      4.000000
  0.044398  0.049180  0.000000      4.000000
  0.000000  0.073770  0.000000      1.000000
  0.022199  0.073770  0.000000      2.000000
  0.044398  0.073770  0.000000      2.000000
  0.000000  0.000000  0.021548      2.000000
  0.022199  0.000000  0.021548      4.000000
  0.044398  0.000000  0.021548      4.000000
  0.000000  0.024590  0.021548      4.000000
  0.022199  0.024590  0.021548      8.000000
  0.044398  0.024590  0.021548      8.000000
  0.000000  0.049180  0.021548      4.000000
  0.022199  0.049180  0.021548      8.000000
  0.044398  0.049180  0.021548      8.000000
  0.000000  0.073770  0.021548      2.000000
  0.022199  0.073770  0.021548      4.000000
  0.044398  0.073770  0.021548      4.000000
  0.000000  0.000000  0.043095      1.000000
  0.022199  0.000000  0.043095      2.000000
  0.044398  0.000000  0.043095      2.000000
  0.000000  0.024590  0.043095      2.000000
  0.022199  0.024590  0.043095      4.000000
  0.044398  0.024590  0.043095      4.000000
  0.000000  0.049180  0.043095      2.000000
  0.022199  0.049180  0.043095      4.000000
  0.044398  0.049180  0.043095      4.000000
  0.000000  0.073770  0.043095      1.000000
  0.022199  0.073770  0.043095      2.000000
  0.044398  0.073770  0.043095      2.000000
 
 TETIRR: Found    360 inequivalent tetrahedra from      720


--------------------------------------------------------------------------------------------------------




 Dimension of arrays:
   k-points           NKPTS =     36   k-points in BZ     NKDIM =     36   number of bands    NBANDS=     88
   number of dos      NEDOS =    301   number of ions     NIONS =     24
   non local maximal  LDIM  =      6   non local SUM 2l+1 LMDIM =     18
   total plane-waves  NPLWV = 128000
   max r-space proj   IRMAX =   2946   max aug-charges    IRDMAX=  11507
   dimension x,y,z NGX =    50 NGY =   40 NGZ =   64
   dimension x,y,z NGXF=   100 NGYF=   80 NGZF=  128
   support grid    NGXF=   100 NGYF=   80 NGZF=  128
   ions per type =               8  16
   NGX,Y,Z   is equivalent  to a cutoff of   9.23,  9.81,  9.17 a.u.
   NGXF,Y,Z  is equivalent  to a cutoff of  18.45, 19.62, 18.34 a.u.

 SYSTEM =  unknown system                          
 POSCAR =  ba8 ge16                                

 Startparameter for this run:
   NWRITE =      2    write-flag & timer
   PREC   = normal    normal or accurate (medium, high low for compatibility)
   ISTART =      0    job   : 0-new  1-cont  2-samecut
   ICHARG =      2    charge: 1-file 2-atom 10-const
   ISPIN  =      1    spin polarized calculation?
   LNONCOLLINEAR =      F non collinear calculations
   LSORBIT =      F    spin-orbit coupling
   INIWAV =      1    electr: 0-lowe 1-rand  2-diag
   LASPH  =      T    aspherical Exc in radial PAW
   METAGGA=      F    non-selfconsistent MetaGGA calc.

 Electronic Relaxation 1
   ENCUT  =  500.0 eV  36.75 Ry    6.06 a.u.  16.43 12.36 21.15*2*pi/ulx,y,z
   ENINI  =  500.0     initial cutoff
   ENAUG  =  385.8 eV  augmentation charge cutoff
   NELM   =    100;   NELMIN=  2; NELMDL= -5     # of ELM steps 
   EDIFF  = 0.1E-05   stopping-criterion for ELM
   LREAL  =      T    real-space projection
   NLSPLINE    = F    spline interpolate recip. space projectors
   LCOMPAT=      F    compatible to vasp.4.4
   GGA_COMPAT  = T    GGA compatible to vasp.4.4-vasp.4.6
   LMAXPAW     = -100 max onsite density
   LMAXMIX     =    2 max onsite mixed and CHGCAR
   VOSKOWN=      0    Vosko Wilk Nusair interpolation
   ROPT   =   -0.00050  -0.00050
 Ionic relaxation
   EDIFFG = -.1E-01   stopping-criterion for IOM
   NSW    =    200    number of steps for IOM
   NBLOCK =      1;   KBLOCK =    200    inner block; outer block 
   IBRION =      2    ionic relax: 0-MD 1-quasi-New 2-CG
   NFREE  =      1    steps in history (QN), initial steepest desc. (CG)
   ISIF   =      3    stress and relaxation
   IWAVPR =     11    prediction:  0-non 1-charg 2-wave 3-comb
   ISYM   =      2    0-nonsym 1-usesym 2-fastsym
   LCORR  =      T    Harris-Foulkes like correction to forces

   POTIM  = 0.5000    time-step for ionic-motion
   TEIN   =    0.0    initial temperature
   TEBEG  =    0.0;   TEEND  =   0.0 temperature during run
   SMASS  =  -3.00    Nose mass-parameter (am)
   estimated Nose-frequenzy (Omega)   =  0.10E-29 period in steps =****** mass=  -0.185E-26a.u.
   SCALEE = 1.0000    scale energy and forces
   NPACO  =    256;   APACO  = 16.0  distance and # of slots for P.C.
   PSTRESS=    0.0 pullay stress

  Mass of Ions in am
   POMASS = 137.33 72.61
  Ionic Valenz
   ZVAL   =  10.00  4.00
  Atomic Wigner-Seitz radii
   RWIGS  =  -1.00 -1.00
  virtual crystal weights 
   VCA    =   1.00  1.00
   NELECT =     144.0000    total number of electrons
   NUPDOWN=      -1.0000    fix difference up-down

 DOS related values:
   EMIN   =  10.00;   EMAX   =-10.00  energy-range for DOS
   EFERMI =   0.00
   ISMEAR =    -5;   SIGMA  =   0.01  broadening in eV -4-tet -1-fermi 0-gaus

 Electronic relaxation 2 (details)
   IALGO  =     38    algorithm
   LDIAG  =      T    sub-space diagonalisation (order eigenvalues)
   LSUBROT=      F    optimize rotation matrix (better conditioning)
   TURBO    =      0    0=normal 1=particle mesh
   IRESTART =      0    0=no restart 2=restart with 2 vectors
   NREBOOT  =      0    no. of reboots
   NMIN     =      0    reboot dimension
   EREF     =   0.00    reference energy to select bands
   IMIX   =      4    mixing-type and parameters
     AMIX     =   0.40;   BMIX     =  1.00
     AMIX_MAG =   1.60;   BMIX_MAG =  1.00
     AMIN     =   0.10
     WC   =   100.;   INIMIX=   1;  MIXPRE=   1;  MAXMIX= -45

 Intra band minimization:
   WEIMIN = 0.0010     energy-eigenvalue tresh-hold
   EBREAK =  0.28E-08  absolut break condition
   DEPER  =   0.30     relativ break condition  

   TIME   =   0.40     timestep for ELM

  volume/ion in A,a.u.               =      29.52       199.21
  Fermi-wavevector in a.u.,A,eV,Ry     =   0.962541  1.818939 12.605595  0.926485
  Thomas-Fermi vector in A             =   2.092009
 
 Write flags
   LWAVE        =      T    write WAVECAR
   LDOWNSAMPLE  =      F    k-point downsampling of WAVECAR
   LCHARG       =      T    write CHGCAR
   LVTOT        =      F    write LOCPOT, total local potential
   LVHAR        =      F    write LOCPOT, Hartree potential only
   LELF         =      F    write electronic localiz. function (ELF)
   LORBIT       =      0    0 simple, 1 ext, 2 COOP (PROOUT), +10 PAW based schemes


 Dipole corrections
   LMONO  =      F    monopole corrections only (constant potential shift)
   LDIPOL =      F    correct potential (dipole corrections)
   IDIPOL =      0    1-x, 2-y, 3-z, 4-all directions 
   EPSILON=  1.0000000 bulk dielectric constant

 Exchange correlation treatment:
   GGA     =    BO    GGA type
   LEXCH   =    42    internal setting for exchange type
   VOSKOWN=      0    Vosko Wilk Nusair interpolation
   LHFCALC =     F    Hartree Fock is set to
   LHFONE  =     F    Hartree Fock one center treatment
   AEXX    =    0.0000 exact exchange contribution

 vdW DFT:
   LUSE_VDW   =     T    switch on vdW DFT
   Zab_VDW    =-.8491    correlation parameter
   PARAM1     =0.1833
   PARAM2     =0.2200
   PARAM3     =0.0000
   -- rVV10 --
   BPARAM     = 6.3000
   CPARAM     = 0.0093

 Linear response parameters
   LEPSILON=     F    determine dielectric tensor
   LRPA    =     F    only Hartree local field effects (RPA)
   LNABLA  =     F    use nabla operator in PAW spheres
   LVEL    =     F    velocity operator in full k-point grid
   LINTERFAST=   F  fast interpolation
   KINTER  =     0    interpolate to denser k-point grid
   CSHIFT  =0.1000    complex shift for real part using Kramers Kronig
   OMEGAMAX=  -1.0    maximum frequency
   DEG_THRESHOLD= 0.2000000E-02 threshold for treating states as degnerate
   RTIME   =   -0.100 relaxation time in fs
  (WPLASMAI=    0.000 imaginary part of plasma frequency in eV, 0.658/RTIME)
   DFIELD  = 0.0000000 0.0000000 0.0000000 field for delta impulse in time
 
 Orbital magnetization related:
   ORBITALMAG=     F  switch on orbital magnetization
   LCHIMAG   =     F  perturbation theory with respect to B field
   DQ        =  0.001000  dq finite difference perturbation B field
   LLRAUG    =     F  two centre corrections for induced B field



--------------------------------------------------------------------------------------------------------


 conjugate gradient relaxation of ions
 charge density and potential will be updated during run
 non-spin polarized calculation
 Variant of blocked Davidson
 Davidson routine will perform the subspace rotation
 perform sub-space diagonalisation
    after iterative eigenvector-optimisation
 modified Broyden-mixing scheme, WC =      100.0
 initial mixing is a Kerker type mixing with AMIX =  0.4000 and BMIX =      1.0000
 Hartree-type preconditioning will be used
 using additional bands           16
 real space projection scheme for non local part
 use partial core corrections
 calculate Harris-corrections to forces 
   (improved forces if not selfconsistent)
 use gradient corrections 
 use of overlap-Matrix (Vanderbilt PP)
 Fermi weights with tetrahedron method with Bloechl corrections


--------------------------------------------------------------------------------------------------------


  energy-cutoff  :      500.00
  volume of cell :      708.48
      direct lattice vectors                 reciprocal lattice vectors
     9.009468079  0.000000000  0.000000000     0.110994344  0.000000000  0.000000000
     0.000000000  6.777849674  0.000000000     0.000000000  0.147539419  0.000000000
     0.000000000  0.000000000 11.602143288     0.000000000  0.000000000  0.086190971

  length of vectors
     9.009468079  6.777849674 11.602143288     0.110994344  0.147539419  0.086190971


 
 k-points in units of 2pi/SCALE and weight: k-density: 6.0                          
   0.00000000  0.00000000  0.00000000       0.008
   0.02219887  0.00000000  0.00000000       0.017
   0.04439774  0.00000000  0.00000000       0.017
   0.00000000  0.02458990  0.00000000       0.017
   0.02219887  0.02458990  0.00000000       0.033
   0.04439774  0.02458990  0.00000000       0.033
   0.00000000  0.04917981  0.00000000       0.017
   0.02219887  0.04917981  0.00000000       0.033
   0.04439774  0.04917981  0.00000000       0.033
   0.00000000  0.07376971  0.00000000       0.008
   0.02219887  0.07376971  0.00000000       0.017
   0.04439774  0.07376971  0.00000000       0.017
   0.00000000  0.00000000  0.02154774       0.017
   0.02219887  0.00000000  0.02154774       0.033
   0.04439774  0.00000000  0.02154774       0.033
   0.00000000  0.02458990  0.02154774       0.033
   0.02219887  0.02458990  0.02154774       0.067
   0.04439774  0.02458990  0.02154774       0.067
   0.00000000  0.04917981  0.02154774       0.033
   0.02219887  0.04917981  0.02154774       0.067
   0.04439774  0.04917981  0.02154774       0.067
   0.00000000  0.07376971  0.02154774       0.017
   0.02219887  0.07376971  0.02154774       0.033
   0.04439774  0.07376971  0.02154774       0.033
   0.00000000  0.00000000  0.04309549       0.008
   0.02219887  0.00000000  0.04309549       0.017
   0.04439774  0.00000000  0.04309549       0.017
   0.00000000  0.02458990  0.04309549       0.017
   0.02219887  0.02458990  0.04309549       0.033
   0.04439774  0.02458990  0.04309549       0.033
   0.00000000  0.04917981  0.04309549       0.017
   0.02219887  0.04917981  0.04309549       0.033
   0.04439774  0.04917981  0.04309549       0.033
   0.00000000  0.07376971  0.04309549       0.008
   0.02219887  0.07376971  0.04309549       0.017
   0.04439774  0.07376971  0.04309549       0.017
 
 k-points in reciprocal lattice and weights: k-density: 6.0                          
   0.00000000  0.00000000  0.00000000       0.008
   0.20000000  0.00000000  0.00000000       0.017
   0.40000000  0.00000000  0.00000000       0.017
   0.00000000  0.16666667  0.00000000       0.017
   0.20000000  0.16666667  0.00000000       0.033
   0.40000000  0.16666667  0.00000000       0.033
   0.00000000  0.33333333  0.00000000       0.017
   0.20000000  0.33333333  0.00000000       0.033
   0.40000000  0.33333333  0.00000000       0.033
   0.00000000  0.50000000  0.00000000       0.008
   0.20000000  0.50000000  0.00000000       0.017
   0.40000000  0.50000000  0.00000000       0.017
   0.00000000  0.00000000  0.25000000       0.017
   0.20000000  0.00000000  0.25000000       0.033
   0.40000000  0.00000000  0.25000000       0.033
   0.00000000  0.16666667  0.25000000       0.033
   0.20000000  0.16666667  0.25000000       0.067
   0.40000000  0.16666667  0.25000000       0.067
   0.00000000  0.33333333  0.25000000       0.033
   0.20000000  0.33333333  0.25000000       0.067
   0.40000000  0.33333333  0.25000000       0.067
   0.00000000  0.50000000  0.25000000       0.017
   0.20000000  0.50000000  0.25000000       0.033
   0.40000000  0.50000000  0.25000000       0.033
   0.00000000  0.00000000  0.50000000       0.008
   0.20000000  0.00000000  0.50000000       0.017
   0.40000000  0.00000000  0.50000000       0.017
   0.00000000  0.16666667  0.50000000       0.017
   0.20000000  0.16666667  0.50000000       0.033
   0.40000000  0.16666667  0.50000000       0.033
   0.00000000  0.33333333  0.50000000       0.017
   0.20000000  0.33333333  0.50000000       0.033
   0.40000000  0.33333333  0.50000000       0.033
   0.00000000  0.50000000  0.50000000       0.008
   0.20000000  0.50000000  0.50000000       0.017
   0.40000000  0.50000000  0.50000000       0.017
 
 position of ions in fractional coordinates (direct lattice) 
   0.01517300  0.25000000  0.69130999
   0.98482700  0.75000002  0.30869001
   0.48482700  0.75000002  0.19130993
   0.51517300  0.25000000  0.80869005
   0.15930900  0.75000002  0.90664998
   0.84069100  0.25000000  0.09335000
   0.34069100  0.25000000  0.40665007
   0.65930900  0.75000002  0.59334998
   0.19427001  0.07254100  0.14674400
   0.80572999  0.92745899  0.85325598
   0.30572999  0.92745899  0.64674402
   0.69427001  0.07254100  0.35325598
   0.80572999  0.57254101  0.85325598
   0.19427001  0.42745899  0.14674400
   0.69427001  0.42745899  0.35325598
   0.30572999  0.57254101  0.64674402
   0.08290500  0.75000002  0.59200102
   0.91709498  0.25000000  0.40799898
   0.41709501  0.25000000  0.09200096
   0.58290502  0.75000002  0.90799902
   0.19769400  0.25000000  0.96694000
   0.80230599  0.75000002  0.03306002
   0.30230599  0.75000002  0.46693992
   0.69769401  0.25000000  0.53306000
 
 position of ions in cartesian coordinates  (Angst):
   0.13670066  1.69446242  8.02067757
   8.87276745  5.08338737  3.58146572
   4.36803341  5.08338737  2.21960521
   4.64143467  1.69446242  9.38253784
   1.43528938  5.08338737 10.51908302
   7.57417870  1.69446242  1.08306003
   3.06944466  1.69446242  4.71801233
   5.94002342  5.08338737  6.88413143
   1.75026941  0.49167198  1.70254493
   7.25919867  6.28617763  9.89959812
   2.75446463  6.28617763  7.50361681
   6.25500345  0.49167198  4.09852648
   7.25919867  3.88059688  9.89959812
   1.75026941  2.89725280  1.70254493
   6.25500345  2.89725280  4.09852648
   2.75446463  3.88059688  7.50361681
   0.74692994  5.08338737  6.86848068
   8.26253796  1.69446242  4.73366260
   3.75780416  1.69446242  1.06740832
   5.25166416  5.08338737 10.53473473
   1.78111780  1.69446242 11.21857643
   7.22835016  5.08338737  0.38356703
   2.72361612  5.08338737  5.41750383
   6.28585196  1.69446242  6.18463850
 


--------------------------------------------------------------------------------------------------------


 k-point  1 :   0.0000 0.0000 0.0000  plane waves:   18015
 k-point  2 :   0.2000 0.0000 0.0000  plane waves:   18061
 k-point  3 :   0.4000 0.0000 0.0000  plane waves:   17963
 k-point  4 :   0.0000 0.1667 0.0000  plane waves:   17981
 k-point  5 :   0.2000 0.1667 0.0000  plane waves:   17995
 k-point  6 :   0.4000 0.1667 0.0000  plane waves:   17998
 k-point  7 :   0.0000 0.3333 0.0000  plane waves:   17997
 k-point  8 :   0.2000 0.3333 0.0000  plane waves:   17955
 k-point  9 :   0.4000 0.3333 0.0000  plane waves:   17977
 k-point 10 :   0.0000 0.5000 0.0000  plane waves:   17944
 k-point 11 :   0.2000 0.5000 0.0000  plane waves:   17950
 k-point 12 :   0.4000 0.5000 0.0000  plane waves:   17980
 k-point 13 :   0.0000 0.0000 0.2500  plane waves:   18014
 k-point 14 :   0.2000 0.0000 0.2500  plane waves:   18010
 k-point 15 :   0.4000 0.0000 0.2500  plane waves:   17976
 k-point 16 :   0.0000 0.1667 0.2500  plane waves:   17994
 k-point 17 :   0.2000 0.1667 0.2500  plane waves:   18005
 k-point 18 :   0.4000 0.1667 0.2500  plane waves:   17983
 k-point 19 :   0.0000 0.3333 0.2500  plane waves:   17983
 k-point 20 :   0.2000 0.3333 0.2500  plane waves:   17976
 k-point 21 :   0.4000 0.3333 0.2500  plane waves:   17972
 k-point 22 :   0.0000 0.5000 0.2500  plane waves:   17960
 k-point 23 :   0.2000 0.5000 0.2500  plane waves:   17998
 k-point 24 :   0.4000 0.5000 0.2500  plane waves:   17972
 k-point 25 :   0.0000 0.0000 0.5000  plane waves:   17962
 k-point 26 :   0.2000 0.0000 0.5000  plane waves:   17982
 k-point 27 :   0.4000 0.0000 0.5000  plane waves:   17990
 k-point 28 :   0.0000 0.1667 0.5000  plane waves:   17998
 k-point 29 :   0.2000 0.1667 0.5000  plane waves:   17996
 k-point 30 :   0.4000 0.1667 0.5000  plane waves:   17998
 k-point 31 :   0.0000 0.3333 0.5000  plane waves:   18010
 k-point 32 :   0.2000 0.3333 0.5000  plane waves:   18006
 k-point 33 :   0.4000 0.3333 0.5000  plane waves:   17968
 k-point 34 :   0.0000 0.5000 0.5000  plane waves:   18004
 k-point 35 :   0.2000 0.5000 0.5000  plane waves:   18000
 k-point 36 :   0.4000 0.5000 0.5000  plane waves:   17992

 maximum and minimum number of plane-waves per node :      4533     4466

 maximum number of plane-waves:     18061
 maximum index in each direction: 
   IXMAX=   16   IYMAX=   12   IZMAX=   21
   IXMIN=  -16   IYMIN=  -12   IZMIN=  -21


 real space projection operators:
  total allocation   :       5631.62 KBytes
  max/ min on nodes  :       1458.02       1357.79


 parallel 3D FFT for wavefunctions:
    minimum data exchange during FFTs selected (reduces bandwidth)
 parallel 3D FFT for charge:
    minimum data exchange during FFTs selected (reduces bandwidth)


 total amount of memory used by VASP MPI-rank0    68281. kBytes
=======================================================================

   base      :      30000. kBytes
   nonlr-proj:       2987. kBytes
   fftplans  :       2347. kBytes
   grid      :       3658. kBytes
   one-center:         93. kBytes
   wavefun   :      29196. kBytes
 
     INWAV:  cpu time    0.0001: real time    0.0001
 Broyden mixing: mesh for mixing (old mesh)
   NGX = 33   NGY = 25   NGZ = 43
  (NGX  =100   NGY  = 80   NGZ  =128)
  gives a total of  35475 points

 initial charge density was supplied:
 charge density of overlapping atoms calculated
 number of electron     144.0000000 magnetization 
 keeping initial charge density in first step


--------------------------------------------------------------------------------------------------------


 Maximum index for non-local projection operator          837
 Maximum index for augmentation-charges         1190 (set IRDMAX)


--------------------------------------------------------------------------------------------------------


 First call to EWALD:  gamma=   0.199
 Maximum number of real-space cells 3x 3x 2
 Maximum number of reciprocal cells 3x 2x 3

    FEWALD:  cpu time    0.0602: real time    0.0604


--------------------------------------- Iteration      1(   1)  ---------------------------------------


vdW kernel read from vdw_kernel.bindat
  0.0000  0.2424  0.5071  0.7962  1.1119  1.4567  1.8333  2.2446  2.6937  3.1842
  3.7199  4.3049  4.9438  5.6415  6.4036  7.2358  8.1446  9.1372 10.2212 11.4050
 12.6979 14.1099 15.6519 17.3360 19.1751 21.1837 23.3773 25.7729 28.3892 31.2465
 34.3669 37.7748 41.4965 45.5611 50.0000
 
    POTLOK:  cpu time    1.2193: real time    1.2415
    SETDIJ:  cpu time    0.1508: real time    0.1513
     EDDAV:  cpu time    2.3538: real time    2.3666
 BZINTS: Fermi energy: 11.321293;144.000000 electrons
         Band energy:  29.521552;  BLOECHL correction: -0.050602
       DOS:  cpu time    0.0444: real time    0.0446
    --------------------------------------------
      LOOP:  cpu time    3.7683: real time    3.8041

 eigenvalue-minimisations  :  6336
 total energy-change (2. order) : 0.9693434E+03  (-0.5692830E+04)
 number of electron     144.0000000 magnetization 
 augmentation part      144.0000000 magnetization 

 Free energy of the ion-electron system (eV)
  ---------------------------------------------------
  alpha Z        PSCENC =       582.27802504
  Ewald energy   TEWEN  =     -6374.53395873
  -Hartree energ DENC   =      -916.11639501
  -exchange      EXHF   =         0.00000000
  -V(xc)+E(xc)   XCENC  =        70.21636523
  PAW double counting   =      3833.62165505    -3573.12530153
  entropy T*S    EENTRO =         0.00000000
  eigenvalues    EBANDS =        29.52155155
  atomic energy  EATOM  =      7317.48149664
  Solvation  Ediel_sol  =         0.00000000
  ---------------------------------------------------
  free energy    TOTEN  =       969.34343825 eV

  energy without entropy =      969.34343825  energy(sigma->0) =      969.34343825


--------------------------------------------------------------------------------------------------------




--------------------------------------- Iteration      1(   2)  ---------------------------------------


     EDDAV:  cpu time    2.9339: real time    2.9422
 BZINTS: Fermi energy:  4.126233;144.000000 electrons
         Band energy:-935.457866;  BLOECHL correction: -0.000267
       DOS:  cpu time    0.0337: real time    0.0338
    --------------------------------------------
      LOOP:  cpu time    2.9677: real time    2.9760

 eigenvalue-minimisations  :  8416
 total energy-change (2. order) :-0.9649794E+03  (-0.9347668E+03)
 number of electron     144.0000000 magnetization 
 augmentation part      144.0000000 magnetization 

 Free energy of the ion-electron system (eV)
  ---------------------------------------------------
  alpha Z        PSCENC =       582.27802504
  Ewald energy   TEWEN  =     -6374.53395873
  -Hartree energ DENC   =      -916.11639501
  -exchange      EXHF   =         0.00000000
  -V(xc)+E(xc)   XCENC  =        70.21636523
  PAW double counting   =      3833.62165505    -3573.12530153
  entropy T*S    EENTRO =         0.00000000
  eigenvalues    EBANDS =      -935.45786571
  atomic energy  EATOM  =      7317.48149664
  Solvation  Ediel_sol  =         0.00000000
  ---------------------------------------------------
  free energy    TOTEN  =         4.36402098 eV

  energy without entropy =        4.36402098  energy(sigma->0) =        4.36402098


--------------------------------------------------------------------------------------------------------




--------------------------------------- Iteration      1(   3)  ---------------------------------------


     EDDAV:  cpu time    2.7068: real time    2.7149
 BZINTS: Fermi energy:  2.283208;144.000000 electrons
         Band energy:***********;  BLOECHL correction:  0.000000
       DOS:  cpu time    0.0093: real time    0.0093
    --------------------------------------------
      LOOP:  cpu time    2.7161: real time    2.7242

 eigenvalue-minimisations  :  7664
 total energy-change (2. order) :-0.8977823E+02  (-0.8879296E+02)
 number of electron     144.0000000 magnetization 
 augmentation part      144.0000000 magnetization 

 Free energy of the ion-electron system (eV)
  ---------------------------------------------------
  alpha Z        PSCENC =       582.27802504
  Ewald energy   TEWEN  =     -6374.53395873
  -Hartree energ DENC   =      -916.11639501
  -exchange      EXHF   =         0.00000000
  -V(xc)+E(xc)   XCENC  =        70.21636523
  PAW double counting   =      3833.62165505    -3573.12530153
  entropy T*S    EENTRO =         0.00000000
  eigenvalues    EBANDS =     -1025.23609513
  atomic energy  EATOM  =      7317.48149664
  Solvation  Ediel_sol  =         0.00000000
  ---------------------------------------------------
  free energy    TOTEN  =       -85.41420843 eV

  energy without entropy =      -85.41420843  energy(sigma->0) =      -85.41420843


--------------------------------------------------------------------------------------------------------




--------------------------------------- Iteration      1(   4)  ---------------------------------------


     EDDAV:  cpu time    3.1329: real time    3.1412
 BZINTS: Fermi energy:  2.265417;144.000000 electrons
         Band energy:***********;  BLOECHL correction:  0.000000
       DOS:  cpu time    0.0092: real time    0.0092
    --------------------------------------------
      LOOP:  cpu time    3.1420: real time    3.1504

 eigenvalue-minimisations  :  9112
 total energy-change (2. order) :-0.2659446E+01  (-0.2650216E+01)
 number of electron     144.0000000 magnetization 
 augmentation part      144.0000000 magnetization 

 Free energy of the ion-electron system (eV)
  ---------------------------------------------------
  alpha Z        PSCENC =       582.27802504
  Ewald energy   TEWEN  =     -6374.53395873
  -Hartree energ DENC   =      -916.11639501
  -exchange      EXHF   =         0.00000000
  -V(xc)+E(xc)   XCENC  =        70.21636523
  PAW double counting   =      3833.62165505    -3573.12530153
  entropy T*S    EENTRO =         0.00000000
  eigenvalues    EBANDS =     -1027.89554086
  atomic energy  EATOM  =      7317.48149664
  Solvation  Ediel_sol  =         0.00000000
  ---------------------------------------------------
  free energy    TOTEN  =       -88.07365416 eV

  energy without entropy =      -88.07365416  energy(sigma->0) =      -88.07365416


--------------------------------------------------------------------------------------------------------




--------------------------------------- Iteration      1(   5)  ---------------------------------------


     EDDAV:  cpu time    2.9598: real time    2.9677
 BZINTS: Fermi energy:  2.225306;144.000000 electrons
         Band energy:***********;  BLOECHL correction:  0.000000
       DOS:  cpu time    0.0080: real time    0.0080
    CHARGE:  cpu time    0.0825: real time    0.0831
    MIXING:  cpu time    0.0029: real time    0.0033
    --------------------------------------------
      LOOP:  cpu time    3.0532: real time    3.0620

 eigenvalue-minimisations  :  8272
 total energy-change (2. order) :-0.8837560E-01  (-0.8832593E-01)
 number of electron     143.9999998 magnetization 
 augmentation part      -25.0366624 magnetization 

 Broyden mixing:
  rms(total) = 0.82803E+00    rms(broyden)= 0.82803E+00
  rms(prec ) = 0.11867E+01
  weight for this iteration     100.00

 Free energy of the ion-electron system (eV)
  ---------------------------------------------------
  alpha Z        PSCENC =       582.27802504
  Ewald energy   TEWEN  =     -6374.53395873
  -Hartree energ DENC   =      -916.11639501
  -exchange      EXHF   =         0.00000000
  -V(xc)+E(xc)   XCENC  =        70.21636523
  PAW double counting   =      3833.62165505    -3573.12530153
  entropy T*S    EENTRO =         0.00000000
  eigenvalues    EBANDS =     -1027.98391646
  atomic energy  EATOM  =      7317.48149664
  Solvation  Ediel_sol  =         0.00000000
  ---------------------------------------------------
  free energy    TOTEN  =       -88.16202977 eV

  energy without entropy =      -88.16202977  energy(sigma->0) =      -88.16202977


--------------------------------------------------------------------------------------------------------




--------------------------------------- Iteration      1(   6)  ---------------------------------------


    POTLOK:  cpu time    0.8665: real time    0.8698
    SETDIJ:  cpu time    0.1420: real time    0.1424
     EDDAV:  cpu time    2.6139: real time    2.6200
 BZINTS: Fermi energy:  2.614780;144.000000 electrons
         Band energy:***********;  BLOECHL correction:  0.000000
       DOS:  cpu time    0.0081: real time    0.0082
    CHARGE:  cpu time    0.0761: real time    0.0763
    MIXING:  cpu time    0.0033: real time    0.0033
    --------------------------------------------
      LOOP:  cpu time    3.7099: real time    3.7200

 eigenvalue-minimisations  :  7192
 total energy-change (2. order) : 0.2788579E+01  (-0.6358650E+00)
 number of electron     143.9999997 magnetization 
 augmentation part      -24.7287604 magnetization 

 Broyden mixing:
  rms(total) = 0.45581E+00    rms(broyden)= 0.45581E+00
  rms(prec ) = 0.58087E+00
  weight for this iteration     100.00

 eigenvalues of (default mixing * dielectric matrix)
  average eigenvalue GAMMA=   1.9967
  1.9967

 Free energy of the ion-electron system (eV)
  ---------------------------------------------------
  alpha Z        PSCENC =       582.27802504
  Ewald energy   TEWEN  =     -6374.53395873
  -Hartree energ DENC   =      -920.12457327
  -exchange      EXHF   =         0.00000000
  -V(xc)+E(xc)   XCENC  =        72.42532169
  PAW double counting   =      3947.90213582    -3695.81151544
  entropy T*S    EENTRO =         0.00000000
  eigenvalues    EBANDS =     -1014.99038292
  atomic energy  EATOM  =      7317.48149664
  Solvation  Ediel_sol  =         0.00000000
  ---------------------------------------------------
  free energy    TOTEN  =       -85.37345117 eV

  energy without entropy =      -85.37345117  energy(sigma->0) =      -85.37345117


--------------------------------------------------------------------------------------------------------




--------------------------------------- Iteration      1(   7)  ---------------------------------------


    POTLOK:  cpu time    0.8513: real time    0.8544
    SETDIJ:  cpu time    0.1492: real time    0.1496
     EDDAV:  cpu time    2.7581: real time    2.7645
 BZINTS: Fermi energy:  2.803949;144.000000 electrons
         Band energy:***********;  BLOECHL correction:  0.000000
       DOS:  cpu time    0.0081: real time    0.0081
    CHARGE:  cpu time    0.0756: real time    0.0758
    MIXING:  cpu time    0.0028: real time    0.0030
    --------------------------------------------
      LOOP:  cpu time    3.8452: real time    3.8555

 eigenvalue-minimisations  :  7904
 total energy-change (2. order) : 0.2107763E+00  (-0.3183467E+00)
 number of electron     143.9999997 magnetization 
 augmentation part      -24.6024506 magnetization 

 Broyden mixing:
  rms(total) = 0.16450E+00    rms(broyden)= 0.16450E+00
  rms(prec ) = 0.20556E+00
  weight for this iteration     100.00

 eigenvalues of (default mixing * dielectric matrix)
  average eigenvalue GAMMA=   1.9822
  1.5837  2.3807

 Free energy of the ion-electron system (eV)
  ---------------------------------------------------
  alpha Z        PSCENC =       582.27802504
  Ewald energy   TEWEN  =     -6374.53395873
  -Hartree energ DENC   =      -920.93101072
  -exchange      EXHF   =         0.00000000
  -V(xc)+E(xc)   XCENC  =        74.78458019
  PAW double counting   =      4074.53680068    -3830.38361219
  entropy T*S    EENTRO =         0.00000000
  eigenvalues    EBANDS =     -1008.39499576
  atomic energy  EATOM  =      7317.48149664
  Solvation  Ediel_sol  =         0.00000000
  ---------------------------------------------------
  free energy    TOTEN  =       -85.16267485 eV

  energy without entropy =      -85.16267485  energy(sigma->0) =      -85.16267485


--------------------------------------------------------------------------------------------------------




--------------------------------------- Iteration      1(   8)  ---------------------------------------


    POTLOK:  cpu time    0.8530: real time    0.8561
    SETDIJ:  cpu time    0.1478: real time    0.1481
     EDDAV:  cpu time    2.5880: real time    2.5941
 BZINTS: Fermi energy:  2.731400;144.000000 electrons
         Band energy:***********;  BLOECHL correction:  0.000000
       DOS:  cpu time    0.0082: real time    0.0082
    CHARGE:  cpu time    0.0768: real time    0.0769
    MIXING:  cpu time    0.0030: real time    0.0032
    --------------------------------------------
      LOOP:  cpu time    3.6767: real time    3.6867

 eigenvalue-minimisations  :  7168
 total energy-change (2. order) :-0.3830069E-01  (-0.7321986E-01)
 number of electron     143.9999997 magnetization 
 augmentation part      -24.7182704 magnetization 

 Broyden mixing:
  rms(total) = 0.47533E-01    rms(broyden)= 0.47532E-01
  rms(prec ) = 0.81072E-01
  weight for this iteration     100.00

 eigenvalues of (default mixing * dielectric matrix)
  average eigenvalue GAMMA=   1.7408
  2.6577  1.2824  1.2824

 Free energy of the ion-electron system (eV)
  ---------------------------------------------------
  alpha Z        PSCENC =       582.27802504
  Ewald energy   TEWEN  =     -6374.53395873
  -Hartree energ DENC   =      -920.82417822
  -exchange      EXHF   =         0.00000000
  -V(xc)+E(xc)   XCENC  =        75.85465479
  PAW double counting   =      4137.01181200    -3895.46042085
  entropy T*S    EENTRO =         0.00000000
  eigenvalues    EBANDS =     -1007.00840620
  atomic energy  EATOM  =      7317.48149664
  Solvation  Ediel_sol  =         0.00000000
  ---------------------------------------------------
  free energy    TOTEN  =       -85.20097554 eV

  energy without entropy =      -85.20097554  energy(sigma->0) =      -85.20097554


--------------------------------------------------------------------------------------------------------




--------------------------------------- Iteration      1(   9)  ---------------------------------------


    POTLOK:  cpu time    0.8529: real time    0.8557
    SETDIJ:  cpu time    0.1493: real time    0.1496
     EDDAV:  cpu time    2.6555: real time    2.6618
 BZINTS: Fermi energy:  2.820612;144.000000 electrons
         Band energy:***********;  BLOECHL correction:  0.000000
       DOS:  cpu time    0.0094: real time    0.0094
    CHARGE:  cpu time    0.0758: real time    0.0760
    MIXING:  cpu time    0.0030: real time    0.0030
    --------------------------------------------
      LOOP:  cpu time    3.7458: real time    3.7556

 eigenvalue-minimisations  :  7168
 total energy-change (2. order) : 0.1138169E-01  (-0.1407866E-01)
 number of electron     143.9999997 magnetization 
 augmentation part      -24.6750330 magnetization 

 Broyden mixing:
  rms(total) = 0.14365E-01    rms(broyden)= 0.14364E-01
  rms(prec ) = 0.17672E-01
  weight for this iteration     100.00

 eigenvalues of (default mixing * dielectric matrix)
  average eigenvalue GAMMA=   1.7789
  2.6327  2.0839  1.1996  1.1996

 Free energy of the ion-electron system (eV)
  ---------------------------------------------------
  alpha Z        PSCENC =       582.27802504
  Ewald energy   TEWEN  =     -6374.53395873
  -Hartree energ DENC   =      -922.50103177
  -exchange      EXHF   =         0.00000000
  -V(xc)+E(xc)   XCENC  =        76.23376242
  PAW double counting   =      4151.00250130    -3910.17109232
  entropy T*S    EENTRO =         0.00000000
  eigenvalues    EBANDS =     -1004.97929644
  atomic energy  EATOM  =      7317.48149664
  Solvation  Ediel_sol  =         0.00000000
  ---------------------------------------------------
  free energy    TOTEN  =       -85.18959385 eV

  energy without entropy =      -85.18959385  energy(sigma->0) =      -85.18959385


--------------------------------------------------------------------------------------------------------




--------------------------------------- Iteration      1(  10)  ---------------------------------------


    POTLOK:  cpu time    0.8520: real time    0.8551
    SETDIJ:  cpu time    0.1482: real time    0.1486
     EDDAV:  cpu time    2.8306: real time    2.8372
 BZINTS: Fermi energy:  2.821699;144.000000 electrons
         Band energy:***********;  BLOECHL correction:  0.000000
       DOS:  cpu time    0.0091: real time    0.0091
    CHARGE:  cpu time    0.0758: real time    0.0760
    MIXING:  cpu time    0.0030: real time    0.0031
    --------------------------------------------
      LOOP:  cpu time    3.9188: real time    3.9291

 eigenvalue-minimisations  :  8048
 total energy-change (2. order) :-0.1478694E-02  (-0.1202520E-02)
 number of electron     143.9999997 magnetization 
 augmentation part      -24.6789606 magnetization 

 Broyden mixing:
  rms(total) = 0.65312E-02    rms(broyden)= 0.65311E-02
  rms(prec ) = 0.10005E-01
  weight for this iteration     100.00

 eigenvalues of (default mixing * dielectric matrix)
  average eigenvalue GAMMA=   1.7060
  2.8752  2.4317  1.1784  1.1784  0.8662

 Free energy of the ion-electron system (eV)
  ---------------------------------------------------
  alpha Z        PSCENC =       582.27802504
  Ewald energy   TEWEN  =     -6374.53395873
  -Hartree energ DENC   =      -922.96102922
  -exchange      EXHF   =         0.00000000
  -V(xc)+E(xc)   XCENC  =        76.24125165
  PAW double counting   =      4148.23824073    -3907.09160757
  entropy T*S    EENTRO =         0.00000000
  eigenvalues    EBANDS =     -1004.84349109
  atomic energy  EATOM  =      7317.48149664
  Solvation  Ediel_sol  =         0.00000000
  ---------------------------------------------------
  free energy    TOTEN  =       -85.19107255 eV

  energy without entropy =      -85.19107255  energy(sigma->0) =      -85.19107255


--------------------------------------------------------------------------------------------------------




--------------------------------------- Iteration      1(  11)  ---------------------------------------


    POTLOK:  cpu time    0.8479: real time    0.8510
    SETDIJ:  cpu time    0.1500: real time    0.1504
     EDDAV:  cpu time    2.6696: real time    2.6759
 BZINTS: Fermi energy:  2.822580;144.000000 electrons
         Band energy:***********;  BLOECHL correction:  0.000000
       DOS:  cpu time    0.0092: real time    0.0092
    CHARGE:  cpu time    0.0760: real time    0.0762
    MIXING:  cpu time    0.0035: real time    0.0036
    --------------------------------------------
      LOOP:  cpu time    3.7562: real time    3.7662

 eigenvalue-minimisations  :  7608
 total energy-change (2. order) :-0.2186837E-04  (-0.1386712E-03)
 number of electron     143.9999997 magnetization 
 augmentation part      -24.6813648 magnetization 

 Broyden mixing:
  rms(total) = 0.18704E-02    rms(broyden)= 0.18704E-02
  rms(prec ) = 0.25576E-02
  weight for this iteration     100.00

 eigenvalues of (default mixing * dielectric matrix)
  average eigenvalue GAMMA=   1.6685
  2.9368  2.3996  1.2930  1.0821  1.1496  1.1496

 Free energy of the ion-electron system (eV)
  ---------------------------------------------------
  alpha Z        PSCENC =       582.27802504
  Ewald energy   TEWEN  =     -6374.53395873
  -Hartree energ DENC   =      -923.13169418
  -exchange      EXHF   =         0.00000000
  -V(xc)+E(xc)   XCENC  =        76.26515294
  PAW double counting   =      4148.55548464    -3907.34992431
  entropy T*S    EENTRO =         0.00000000
  eigenvalues    EBANDS =     -1004.75567646
  atomic energy  EATOM  =      7317.48149664
  Solvation  Ediel_sol  =         0.00000000
  ---------------------------------------------------
  free energy    TOTEN  =       -85.19109441 eV

  energy without entropy =      -85.19109441  energy(sigma->0) =      -85.19109441


--------------------------------------------------------------------------------------------------------




--------------------------------------- Iteration      1(  12)  ---------------------------------------


    POTLOK:  cpu time    0.8508: real time    0.8539
    SETDIJ:  cpu time    0.1488: real time    0.1491
     EDDAV:  cpu time    3.0917: real time    3.0990
 BZINTS: Fermi energy:  2.821596;144.000000 electrons
         Band energy:***********;  BLOECHL correction:  0.000000
       DOS:  cpu time    0.0094: real time    0.0094
    CHARGE:  cpu time    0.0761: real time    0.0762
    MIXING:  cpu time    0.0029: real time    0.0030
    --------------------------------------------
      LOOP:  cpu time    4.1797: real time    4.1907

 eigenvalue-minimisations  :  8952
 total energy-change (2. order) :-0.3252057E-04  (-0.2184796E-04)
 number of electron     143.9999997 magnetization 
 augmentation part      -24.6797717 magnetization 

 Broyden mixing:
  rms(total) = 0.75492E-03    rms(broyden)= 0.75491E-03
  rms(prec ) = 0.10282E-02
  weight for this iteration     100.00

 eigenvalues of (default mixing * dielectric matrix)
  average eigenvalue GAMMA=   1.6788
  3.0547  2.4571  1.8015  1.2661  1.0039  1.0844  1.0844

 Free energy of the ion-electron system (eV)
  ---------------------------------------------------
  alpha Z        PSCENC =       582.27802504
  Ewald energy   TEWEN  =     -6374.53395873
  -Hartree energ DENC   =      -923.17518664
  -exchange      EXHF   =         0.00000000
  -V(xc)+E(xc)   XCENC  =        76.26826174
  PAW double counting   =      4148.24732310    -3907.02042144
  entropy T*S    EENTRO =         0.00000000
  eigenvalues    EBANDS =     -1004.73666664
  atomic energy  EATOM  =      7317.48149664
  Solvation  Ediel_sol  =         0.00000000
  ---------------------------------------------------
  free energy    TOTEN  =       -85.19112694 eV

  energy without entropy =      -85.19112694  energy(sigma->0) =      -85.19112694


--------------------------------------------------------------------------------------------------------




--------------------------------------- Iteration      1(  13)  ---------------------------------------


    POTLOK:  cpu time    0.8587: real time    0.8621
    SETDIJ:  cpu time    0.1470: real time    0.1473
     EDDAV:  cpu time    2.5135: real time    2.5194
 BZINTS: Fermi energy:  2.820642;144.000000 electrons
         Band energy:***********;  BLOECHL correction:  0.000000
       DOS:  cpu time    0.0093: real time    0.0093
    CHARGE:  cpu time    0.0760: real time    0.0762
    MIXING:  cpu time    0.0030: real time    0.0030
    --------------------------------------------
      LOOP:  cpu time    3.6075: real time    3.6174

 eigenvalue-minimisations  :  6816
 total energy-change (2. order) :-0.3323077E-05  (-0.1948596E-05)
 number of electron     143.9999997 magnetization 
 augmentation part      -24.6796581 magnetization 

 Broyden mixing:
  rms(total) = 0.48365E-03    rms(broyden)= 0.48365E-03
  rms(prec ) = 0.84358E-03
  weight for this iteration     100.00

 eigenvalues of (default mixing * dielectric matrix)
  average eigenvalue GAMMA=   1.6543
  3.0791  2.3407  2.3407  1.1147  1.1147  1.1684  1.1684  0.9077

 Free energy of the ion-electron system (eV)
  ---------------------------------------------------
  alpha Z        PSCENC =       582.27802504
  Ewald energy   TEWEN  =     -6374.53395873
  -Hartree energ DENC   =      -923.17120622
  -exchange      EXHF   =         0.00000000
  -V(xc)+E(xc)   XCENC  =        76.26782063
  PAW double counting   =      4148.03582349    -3906.80239337
  entropy T*S    EENTRO =         0.00000000
  eigenvalues    EBANDS =     -1004.74673774
  atomic energy  EATOM  =      7317.48149664
  Solvation  Ediel_sol  =         0.00000000
  ---------------------------------------------------
  free energy    TOTEN  =       -85.19113026 eV

  energy without entropy =      -85.19113026  energy(sigma->0) =      -85.19113026


--------------------------------------------------------------------------------------------------------




--------------------------------------- Iteration      1(  14)  ---------------------------------------


    POTLOK:  cpu time    0.8620: real time    0.8652
    SETDIJ:  cpu time    0.1431: real time    0.1434
     EDDAV:  cpu time    2.2681: real time    2.2734
 BZINTS: Fermi energy:  2.819550;144.000000 electrons
         Band energy:***********;  BLOECHL correction:  0.000000
       DOS:  cpu time    0.0092: real time    0.0092
    CHARGE:  cpu time    0.0760: real time    0.0762
    MIXING:  cpu time    0.0031: real time    0.0031
    --------------------------------------------
      LOOP:  cpu time    3.3614: real time    3.3705

 eigenvalue-minimisations  :  6096
 total energy-change (2. order) : 0.1339881E-05  (-0.1228694E-05)
 number of electron     143.9999997 magnetization 
 augmentation part      -24.6790616 magnetization 

 Broyden mixing:
  rms(total) = 0.12274E-03    rms(broyden)= 0.12274E-03
  rms(prec ) = 0.16830E-03
  weight for this iteration     100.00

 eigenvalues of (default mixing * dielectric matrix)
  average eigenvalue GAMMA=   1.6279
  3.1209  2.5207  2.1856  1.3667  1.1550  1.1550  1.0845  1.0315  1.0315

 Free energy of the ion-electron system (eV)
  ---------------------------------------------------
  alpha Z        PSCENC =       582.27802504
  Ewald energy   TEWEN  =     -6374.53395873
  -Hartree energ DENC   =      -923.17080014
  -exchange      EXHF   =         0.00000000
  -V(xc)+E(xc)   XCENC  =        76.26755731
  PAW double counting   =      4147.95243981    -3906.72163869
  entropy T*S    EENTRO =         0.00000000
  eigenvalues    EBANDS =     -1004.74425016
  atomic energy  EATOM  =      7317.48149664
  Solvation  Ediel_sol  =         0.00000000
  ---------------------------------------------------
  free energy    TOTEN  =       -85.19112892 eV

  energy without entropy =      -85.19112892  energy(sigma->0) =      -85.19112892


--------------------------------------------------------------------------------------------------------




--------------------------------------- Iteration      1(  15)  ---------------------------------------


    POTLOK:  cpu time    0.8507: real time    0.8537
    SETDIJ:  cpu time    0.1487: real time    0.1491
     EDDAV:  cpu time    1.7536: real time    1.7577
 BZINTS: Fermi energy:  2.818705;144.000000 electrons
         Band energy:***********;  BLOECHL correction:  0.000000
       DOS:  cpu time    0.0092: real time    0.0092
    --------------------------------------------
      LOOP:  cpu time    2.7622: real time    2.7697

 eigenvalue-minimisations  :  4096
 total energy-change (2. order) : 0.9232281E-07  (-0.1014210E-06)
 number of electron     143.9999997 magnetization 
 augmentation part      -24.6790616 magnetization 

 Free energy of the ion-electron system (eV)
  ---------------------------------------------------
  alpha Z        PSCENC =       582.27802504
  Ewald energy   TEWEN  =     -6374.53395873
  -Hartree energ DENC   =      -923.17141055
  -exchange      EXHF   =         0.00000000
  -V(xc)+E(xc)   XCENC  =        76.26733241
  PAW double counting   =      4147.93584375    -3906.70515608
  entropy T*S    EENTRO =         0.00000000
  eigenvalues    EBANDS =     -1004.74330131
  atomic energy  EATOM  =      7317.48149664
  Solvation  Ediel_sol  =         0.00000000
  ---------------------------------------------------
  free energy    TOTEN  =       -85.19112883 eV

  energy without entropy =      -85.19112883  energy(sigma->0) =      -85.19112883


--------------------------------------------------------------------------------------------------------




 average (electrostatic) potential at core
  the test charge radii are     1.2192  1.1631
  (the norm of the test charge is              1.0000)
       1 -38.7705       2 -38.7705       3 -38.7705       4 -38.7705       5 -38.8168
       6 -38.8168       7 -38.8168       8 -38.8168       9 -34.6059      10 -34.6059
      11 -34.6059      12 -34.6059      13 -34.6059      14 -34.6059      15 -34.6059
      16 -34.6059      17 -34.6105      18 -34.6105      19 -34.6105      20 -34.6105
      21 -34.5495      22 -34.5495      23 -34.5495      24 -34.5495
 
 
 
 E-fermi :   2.8187     XC(G=0):  -8.9097     alpha+bet : -9.5119


 k-point     1 :       0.0000    0.0000    0.0000
  band No.  band energies     occupation 
      1     -25.0915      2.00000
      2     -25.0823      2.00000
      3     -25.0800      2.00000
      4     -25.0800      2.00000
      5     -25.0543      2.00000
      6     -25.0488      2.00000
      7     -25.0484      2.00000
      8     -25.0456      2.00000
      9     -10.6994      2.00000
     10     -10.6707      2.00000
     11     -10.6319      2.00000
     12     -10.5585      2.00000
     13     -10.5179      2.00000
     14     -10.4852      2.00000
     15     -10.4661      2.00000
     16     -10.4605      2.00000
     17     -10.4458      2.00000
     18     -10.4361      2.00000
     19     -10.4100      2.00000
     20     -10.4068      2.00000
     21     -10.3790      2.00000
     22     -10.3452      2.00000
     23     -10.3205      2.00000
     24     -10.3174      2.00000
     25     -10.3166      2.00000
     26     -10.3147      2.00000
     27     -10.2847      2.00000
     28     -10.2845      2.00000
     29     -10.2789      2.00000
     30     -10.2608      2.00000
     31     -10.2590      2.00000
     32     -10.2507      2.00000
     33      -9.2567      2.00000
     34      -8.9713      2.00000
     35      -8.9430      2.00000
     36      -8.8941      2.00000
     37      -4.2107      2.00000
     38      -4.1746      2.00000
     39      -3.9520      2.00000
     40      -3.9362      2.00000
     41      -3.8748      2.00000
     42      -3.8508      2.00000
     43      -3.8325      2.00000
     44      -3.8076      2.00000
     45      -3.7722      2.00000
     46      -3.7067      2.00000
     47      -3.6809      2.00000
     48      -3.5460      2.00000
     49      -0.8250      2.00000
     50       0.1977      2.00000
     51       0.3269      2.00000
     52       0.4090      2.00000
     53       0.4359      2.00000
     54       0.6720      2.00000
     55       0.9337      2.00000
     56       0.9584      2.00000
     57       1.0483      2.00000
     58       1.0629      2.00000
     59       1.0659      2.00000
     60       1.2338      2.00000
     61       1.2759      2.00000
     62       1.2866      2.00000
     63       1.4308      2.00000
     64       1.5215      2.00000
     65       1.6619      2.00000
     66       1.7228      2.00000
     67       1.7437      2.00000
     68       1.7671      2.00000
     69       2.1197      2.00000
     70       2.3533      2.00000
     71       2.3902      2.00000
     72       2.5495      2.00000
     73       3.8425      0.00000
     74       3.8500      0.00000
     75       4.1817      0.00000
     76       4.3375      0.00000
     77       4.3628      0.00000
     78       4.6945      0.00000
     79       4.7582      0.00000
     80       4.9337      0.00000
     81       5.1228      0.00000
     82       5.3300      0.00000
     83       5.3513      0.00000
     84       5.3659      0.00000
     85       5.4930      0.00000
     86       5.5450      0.00000
     87       5.6263      0.00000
     88       5.8658      0.00000

 k-point     2 :       0.2000    0.0000    0.0000
  band No.  band energies     occupation 
      1     -25.0906      2.00000
      2     -25.0829      2.00000
      3     -25.0803      2.00000
      4     -25.0801      2.00000
      5     -25.0538      2.00000
      6     -25.0492      2.00000
      7     -25.0481      2.00000
      8     -25.0459      2.00000
      9     -10.7090      2.00000
     10     -10.6598      2.00000
     11     -10.6379      2.00000
     12     -10.5484      2.00000
     13     -10.4950      2.00000
     14     -10.4742      2.00000
     15     -10.4610      2.00000
     16     -10.4586      2.00000
     17     -10.4521      2.00000
     18     -10.4491      2.00000
     19     -10.4155      2.00000
     20     -10.4128      2.00000
     21     -10.4035      2.00000
     22     -10.3373      2.00000
     23     -10.3341      2.00000
     24     -10.3149      2.00000
     25     -10.3117      2.00000
     26     -10.3084      2.00000
     27     -10.2974      2.00000
     28     -10.2859      2.00000
     29     -10.2731      2.00000
     30     -10.2720      2.00000
     31     -10.2706      2.00000
     32     -10.2474      2.00000
     33      -9.2055      2.00000
     34      -8.9561      2.00000
     35      -8.9557      2.00000
     36      -8.8931      2.00000
     37      -4.2083      2.00000
     38      -4.1701      2.00000
     39      -3.9930      2.00000
     40      -3.9377      2.00000
     41      -3.9365      2.00000
     42      -3.8554      2.00000
     43      -3.8108      2.00000
     44      -3.7911      2.00000
     45      -3.7524      2.00000
     46      -3.7309      2.00000
     47      -3.6987      2.00000
     48      -3.6518      2.00000
     49      -0.6957      2.00000
     50       0.2853      2.00000
     51       0.2968      2.00000
     52       0.3179      2.00000
     53       0.4355      2.00000
     54       0.8363      2.00000
     55       0.8834      2.00000
     56       0.9828      2.00000
     57       1.0990      2.00000
     58       1.1412      2.00000
     59       1.1526      2.00000
     60       1.2228      2.00000
     61       1.3885      2.00000
     62       1.3931      2.00000
     63       1.4337      2.00000
     64       1.5908      2.00000
     65       1.6610      2.00000
     66       1.6800      2.00000
     67       1.7534      2.00000
     68       1.8204      2.00000
     69       2.1009      2.00000
     70       2.3186      2.00000
     71       2.3891      2.00000
     72       2.4604      2.00000
     73       3.7847      0.00000
     74       3.8701      0.00000
     75       4.1278      0.00000
     76       4.3162      0.00000
     77       4.3360      0.00000
     78       4.6265      0.00000
     79       4.6313      0.00000
     80       4.7338      0.00000
     81       4.8115      0.00000
     82       5.1435      0.00000
     83       5.2076      0.00000
     84       5.6049      0.00000
     85       5.6937      0.00000
     86       5.6945      0.00000
     87       5.8414      0.00000
     88       5.9155      0.00000

 k-point     3 :       0.4000    0.0000    0.0000
  band No.  band energies     occupation 
      1     -25.0881      2.00000
      2     -25.0851      2.00000
      3     -25.0805      2.00000
      4     -25.0803      2.00000
      5     -25.0524      2.00000
      6     -25.0506      2.00000
      7     -25.0474      2.00000
      8     -25.0466      2.00000
      9     -10.7141      2.00000
     10     -10.6978      2.00000
     11     -10.5581      2.00000
     12     -10.5207      2.00000
     13     -10.4831      2.00000
     14     -10.4744      2.00000
     15     -10.4740      2.00000
     16     -10.4581      2.00000
     17     -10.4477      2.00000
     18     -10.4413      2.00000
     19     -10.4363      2.00000
     20     -10.4310      2.00000
     21     -10.4218      2.00000
     22     -10.4068      2.00000
     23     -10.3381      2.00000
     24     -10.3308      2.00000
     25     -10.3026      2.00000
     26     -10.2992      2.00000
     27     -10.2924      2.00000
     28     -10.2869      2.00000
     29     -10.2820      2.00000
     30     -10.2683      2.00000
     31     -10.2586      2.00000
     32     -10.2490      2.00000
     33      -9.0980      2.00000
     34      -9.0050      2.00000
     35      -8.9230      2.00000
     36      -8.8990      2.00000
     37      -4.1960      2.00000
     38      -4.1440      2.00000
     39      -4.1023      2.00000
     40      -3.9893      2.00000
     41      -3.8943      2.00000
     42      -3.8388      2.00000
     43      -3.8188      2.00000
     44      -3.8107      2.00000
     45      -3.8057      2.00000
     46      -3.7459      2.00000
     47      -3.7441      2.00000
     48      -3.7413      2.00000
     49      -0.3887      2.00000
     50      -0.0106      2.00000
     51       0.2649      2.00000
     52       0.2927      2.00000
     53       0.6799      2.00000
     54       0.8370      2.00000
     55       1.0461      2.00000
     56       1.1087      2.00000
     57       1.1200      2.00000
     58       1.1752      2.00000
     59       1.2033      2.00000
     60       1.3755      2.00000
     61       1.5006      2.00000
     62       1.5051      2.00000
     63       1.5260      2.00000
     64       1.5956      2.00000
     65       1.7407      2.00000
     66       1.7942      2.00000
     67       1.8368      2.00000
     68       1.9859      2.00000
     69       2.1086      2.00000
     70       2.1491      2.00000
     71       2.2190      2.00000
     72       2.2949      2.00000
     73       3.8861      0.00000
     74       3.9664      0.00000
     75       4.0818      0.00000
     76       4.1664      0.00000
     77       4.1674      0.00000
     78       4.2068      0.00000
     79       4.4399      0.00000
     80       4.4933      0.00000
     81       4.9925      0.00000
     82       5.1912      0.00000
     83       5.2039      0.00000
     84       5.3975      0.00000
     85       5.4602      0.00000
     86       5.5482      0.00000
     87       5.6676      0.00000
     88       5.8052      0.00000

 k-point     4 :       0.0000    0.1667    0.0000
  band No.  band energies     occupation 
      1     -25.0900      2.00000
      2     -25.0819      2.00000
      3     -25.0799      2.00000
      4     -25.0796      2.00000
      5     -25.0551      2.00000
      6     -25.0495      2.00000
      7     -25.0488      2.00000
      8     -25.0460      2.00000
      9     -10.6886      2.00000
     10     -10.6727      2.00000
     11     -10.6702      2.00000
     12     -10.5227      2.00000
     13     -10.5195      2.00000
     14     -10.5180      2.00000
     15     -10.5110      2.00000
     16     -10.4973      2.00000
     17     -10.4683      2.00000
     18     -10.4167      2.00000
     19     -10.3955      2.00000
     20     -10.3761      2.00000
     21     -10.3584      2.00000
     22     -10.3570      2.00000
     23     -10.3506      2.00000
     24     -10.3203      2.00000
     25     -10.3118      2.00000
     26     -10.3073      2.00000
     27     -10.2845      2.00000
     28     -10.2772      2.00000
     29     -10.2744      2.00000
     30     -10.2652      2.00000
     31     -10.2642      2.00000
     32     -10.2426      2.00000
     33      -9.1849      2.00000
     34      -8.9572      2.00000
     35      -8.9383      2.00000
     36      -8.8978      2.00000
     37      -4.1579      2.00000
     38      -4.1284      2.00000
     39      -3.9350      2.00000
     40      -3.9301      2.00000
     41      -3.9129      2.00000
     42      -3.8726      2.00000
     43      -3.8324      2.00000
     44      -3.7936      2.00000
     45      -3.7810      2.00000
     46      -3.7435      2.00000
     47      -3.7020      2.00000
     48      -3.5527      2.00000
     49      -0.5973      2.00000
     50       0.2647      2.00000
     51       0.3818      2.00000
     52       0.4568      2.00000
     53       0.4797      2.00000
     54       0.5903      2.00000
     55       0.6469      2.00000
     56       1.0126      2.00000
     57       1.0637      2.00000
     58       1.1038      2.00000
     59       1.1994      2.00000
     60       1.2343      2.00000
     61       1.2828      2.00000
     62       1.3578      2.00000
     63       1.4429      2.00000
[...]
     29     -10.4766      2.00000
     30     -10.4766      2.00000
     31     -10.4750      2.00000
     32     -10.4750      2.00000
     33      -7.9767      2.00000
     34      -7.9767      2.00000
     35      -7.9727      2.00000
     36      -7.9727      2.00000
     37      -4.4597      2.00000
     38      -4.4596      2.00000
     39      -4.1722      2.00000
     40      -4.1722      2.00000
     41      -4.0930      2.00000
     42      -4.0930      2.00000
     43      -4.0377      2.00000
     44      -4.0377      2.00000
     45      -3.9548      2.00000
     46      -3.9548      2.00000
     47      -3.7862      2.00000
     48      -3.7862      2.00000
     49       0.0747      2.00000
     50       0.0747      2.00000
     51       0.1740      2.00000
     52       0.1740      2.00000
     53       0.5624      2.00000
     54       0.5624      2.00000
     55       0.5892      2.00000
     56       0.5892      2.00000
     57       0.9732      2.00000
     58       0.9732      2.00000
     59       1.1647      2.00000
     60       1.1647      2.00000
     61       1.3719      2.00000
     62       1.3719      2.00000
     63       1.4050      2.00000
     64       1.4050      2.00000
     65       1.6370      2.00000
     66       1.6370      2.00000
     67       1.6873      2.00000
     68       1.6873      2.00000
     69       2.0486      2.00000
     70       2.0486      2.00000
     71       2.2722      2.00000
     72       2.2722      2.00000
     73       3.1917      0.00000
     74       3.1917      0.00000
     75       3.2825      0.00000
     76       3.2825      0.00000
     77       3.7168      0.00000
     78       3.7168      0.00000
     79       3.8964      0.00000
     80       3.8964      0.00000
     81       4.3345      0.00000
     82       4.3345      0.00000
     83       4.3567      0.00000
     84       4.3567      0.00000
     85       4.8809      0.00000
     86       4.8809      0.00000
     87       5.1965      0.00000
     88       5.1965      0.00000

 k-point    36 :       0.4000    0.5000    0.5000
  band No.  band energies     occupation 
      1     -25.3020      2.00000
      2     -25.3020      2.00000
      3     -25.3020      2.00000
      4     -25.3020      2.00000
      5     -25.2680      2.00000
      6     -25.2680      2.00000
      7     -25.2661      2.00000
      8     -25.2661      2.00000
      9     -10.8068      2.00000
     10     -10.8068      2.00000
     11     -10.7864      2.00000
     12     -10.7864      2.00000
     13     -10.7517      2.00000
     14     -10.7517      2.00000
     15     -10.7363      2.00000
     16     -10.7363      2.00000
     17     -10.6390      2.00000
     18     -10.6390      2.00000
     19     -10.5912      2.00000
     20     -10.5912      2.00000
     21     -10.5500      2.00000
     22     -10.5500      2.00000
     23     -10.5486      2.00000
     24     -10.5486      2.00000
     25     -10.5075      2.00000
     26     -10.5075      2.00000
     27     -10.4952      2.00000
     28     -10.4952      2.00000
     29     -10.4833      2.00000
     30     -10.4833      2.00000
     31     -10.4807      2.00000
     32     -10.4807      2.00000
     33      -7.9621      2.00000
     34      -7.9621      2.00000
     35      -7.9605      2.00000
     36      -7.9605      2.00000
     37      -4.4088      2.00000
     38      -4.4088      2.00000
     39      -4.3102      2.00000
     40      -4.3102      2.00000
     41      -4.0931      2.00000
     42      -4.0931      2.00000
     43      -4.0640      2.00000
     44      -4.0640      2.00000
     45      -3.9110      2.00000
     46      -3.9110      2.00000
     47      -3.8446      2.00000
     48      -3.8446      2.00000
     49       0.1951      2.00000
     50       0.1951      2.00000
     51       0.2909      2.00000
     52       0.2909      2.00000
     53       0.6462      2.00000
     54       0.6462      2.00000
     55       0.7721      2.00000
     56       0.7721      2.00000
     57       1.0188      2.00000
     58       1.0188      2.00000
     59       1.1731      2.00000
     60       1.1731      2.00000
     61       1.2238      2.00000
     62       1.2238      2.00000
     63       1.2914      2.00000
     64       1.2914      2.00000
     65       1.6603      2.00000
     66       1.6603      2.00000
     67       1.7355      2.00000
     68       1.7356      2.00000
     69       2.1521      2.00000
     70       2.1521      2.00000
     71       2.1714      2.00000
     72       2.1714      2.00000
     73       3.2422      0.00000
     74       3.2422      0.00000
     75       3.4132      0.00000
     76       3.4132      0.00000
     77       3.5621      0.00000
     78       3.5621      0.00000
     79       3.7904      0.00000
     80       3.7904      0.00000
     81       4.3244      0.00000
     82       4.3244      0.00000
     83       4.4374      0.00000
     84       4.4374      0.00000
     85       4.7550      0.00000
     86       4.7550      0.00000
     87       4.7970      0.00000
     88       4.7970      0.00000


--------------------------------------------------------------------------------------------------------


 soft charge-density along one line, spin component           1
         0         1         2         3         4         5         6         7         8         9
 total charge-density along one line
 
 pseudopotential strength for first ion, spin component:           1
  2.801  -4.688  -0.000   0.003   0.001  -0.000   0.003   0.001
 -4.688  -2.809   0.000  -0.001   0.000  -0.000   0.001   0.000
 -0.000   0.000  -7.233  -0.000  -0.000   1.311  -0.000  -0.000
  0.003  -0.001  -0.000  -7.232  -0.001  -0.000   1.313  -0.002
  0.001   0.000  -0.000  -0.001  -7.233  -0.000  -0.002   1.312
 -0.000  -0.000   1.311  -0.000  -0.000   7.360  -0.000  -0.000
  0.003   0.001  -0.000   1.313  -0.002  -0.000   7.360  -0.000
  0.001   0.000  -0.000  -0.002   1.312  -0.000  -0.000   7.360
 -0.000   0.000  -0.000  -0.000  -0.000   0.000  -0.000  -0.000
 -0.000   0.000   0.001  -0.000  -0.000   0.001  -0.000  -0.000
  0.000  -0.000   0.000   0.001   0.000   0.000   0.001  -0.000
 -0.001   0.000  -0.000   0.002   0.002  -0.000   0.001   0.001
  0.000  -0.000   0.000   0.000   0.001   0.000  -0.000   0.001
  0.000   0.000  -0.000   0.000   0.000   0.000   0.000   0.000
  0.000   0.000  -0.000   0.000   0.000  -0.000   0.000   0.000
 -0.000  -0.000  -0.000  -0.000   0.000  -0.000  -0.000  -0.000
  0.000   0.000   0.000  -0.000  -0.000   0.000  -0.000  -0.000
 -0.000  -0.000  -0.000   0.000  -0.000  -0.000   0.000  -0.000
 total augmentation occupancy for first ion, spin component:           1
  2.106  -0.247   0.000  -0.007  -0.004   0.000   0.003   0.001  -0.000   0.000   0.005  -0.014  -0.000  -0.000   0.000  -0.003
 -0.247   0.602   0.000   0.018   0.009   0.000  -0.007  -0.002   0.000   0.000  -0.009   0.027   0.002   0.000  -0.000   0.012
  0.000   0.000   2.013   0.000   0.000  -0.013   0.000  -0.000  -0.015  -0.000   0.000   0.000   0.000   0.019   0.002   0.000
 -0.007   0.018   0.000   2.009   0.003  -0.000  -0.012  -0.002   0.000   0.000   0.004   0.025   0.006   0.000   0.000   0.004
 -0.004   0.009   0.000   0.003   2.012  -0.000  -0.002  -0.013  -0.000   0.000   0.014   0.012   0.015   0.000   0.000  -0.020
 -0.000   0.000  -0.013   0.000  -0.000   0.010  -0.000   0.000   0.007   0.002   0.000   0.000   0.000  -0.010  -0.005   0.000
  0.003  -0.007   0.000  -0.012  -0.002   0.000   0.009   0.001   0.000  -0.000  -0.001  -0.009  -0.003   0.000   0.000   0.002
  0.001  -0.002  -0.000  -0.002  -0.013   0.000   0.001   0.010   0.000   0.000  -0.006  -0.004  -0.006  -0.000  -0.000   0.010
  0.000  -0.000  -0.015   0.000   0.000   0.007  -0.000   0.000   0.124  -0.038  -0.000  -0.000   0.000  -0.219   0.069   0.000
  0.000  -0.000  -0.000  -0.000   0.000   0.002   0.000   0.000  -0.038   0.079  -0.000   0.000  -0.000   0.069  -0.141  -0.000
  0.005  -0.009   0.000   0.004   0.014   0.000  -0.001  -0.006  -0.000   0.000   0.108   0.029   0.015   0.000   0.000  -0.193
 -0.014   0.027  -0.000   0.025   0.012  -0.000  -0.009  -0.004   0.000   0.000   0.029   0.116   0.030   0.000   0.000  -0.053
 -0.000   0.002   0.000   0.006   0.015   0.000  -0.003  -0.006   0.000   0.000   0.015   0.030   0.090  -0.000  -0.000  -0.020
 -0.000   0.000   0.019   0.000   0.000  -0.010   0.000  -0.000  -0.219   0.069   0.000  -0.000  -0.000   0.421  -0.142  -0.000
  0.000  -0.000   0.002   0.000   0.000  -0.005   0.000   0.000   0.069  -0.141  -0.000   0.000   0.000  -0.142   0.269   0.000
 -0.003   0.012   0.000   0.004  -0.020   0.000   0.002   0.010   0.000   0.000  -0.193  -0.053  -0.020  -0.000  -0.000   0.370
  0.010  -0.032   0.000  -0.035  -0.006  -0.000   0.015   0.005  -0.000   0.000  -0.053  -0.202  -0.050  -0.000   0.000   0.110
  0.005  -0.014   0.000  -0.004  -0.019  -0.000   0.005   0.008  -0.000   0.000  -0.020  -0.051  -0.156   0.000   0.000   0.030


------------------------ aborting loop because EDIFF is reached ----------------------------------------


    CHARGE:  cpu time    0.0775: real time    0.0777
    FORLOC:  cpu time    0.0037: real time    0.0038
    FORNL :  cpu time    0.4111: real time    0.4121
    STRESS:  cpu time    1.2324: real time    1.2353
    FORCOR:  cpu time    0.8425: real time    0.8445
    FORHAR:  cpu time    0.0076: real time    0.0076
    MIXING:  cpu time    0.0024: real time    0.0024
    OFIELD:  cpu time    0.0000: real time    0.0000

  FORCE on cell =-STRESS in cart. coord.  units (eV):
  Direction    XX          YY          ZZ          XY          YZ          ZX
  --------------------------------------------------------------------------------------
  Alpha Z   559.51893   559.51893   559.51893
  Ewald   -2125.67091 -2110.25943 -2104.90535    -0.00000    -0.00000    -0.00012
  Hartree   297.36532   311.18750   309.09686     0.00000    -0.00000     0.00001
  E(xc)    -489.55355  -489.19336  -489.20567    -0.00000    -0.00000    -0.00000
  Local     198.39282   174.98969   173.14272     0.00000    -0.00000     0.00007
  n-local     8.56128     6.05648     6.54181    -0.16299    -0.05115    -0.05679
  augment   -46.40758   -45.87440   -45.92492    -0.00000    -0.00000    -0.00000
  Kinetic  1597.76603  1593.48914  1591.82564     0.72291    -0.95740     0.08418
  Fock        0.00000     0.00000     0.00000     0.00000     0.00000     0.00000
  -------------------------------------------------------------------------------------
  Total      -0.02765    -0.08546     0.09003     0.00000     0.00000     0.00000
  in kB      -0.06009    -0.18571     0.19563     0.00000     0.00000     0.00000
  external pressure =       -0.02 kB  Pullay stress =        0.00 kB


 VOLUME and BASIS-vectors are now :
 -----------------------------------------------------------------------------
  energy-cutoff  :      500.00
  volume of cell :      737.30
      direct lattice vectors                 reciprocal lattice vectors
     9.170781702 -0.000000000  0.000000000     0.109041959 -0.000000000  0.000000000
     0.000000000  6.872859655  0.000000000     0.000000000  0.145499843  0.000000000
     0.000000000  0.000000000 11.697716614     0.000000000  0.000000000  0.085486769

  length of vectors
     9.170781702  6.872859655 11.697716614     0.109041959  0.145499843  0.085486769


 FORCES acting on ions
    electron-ion (+dipol)            ewald-force                    non-local-force                 convergence-correction
 -----------------------------------------------------------------------------------------------
   0.226E+01 0.824E-04 0.726E+01   -.255E+01 0.136E-04 -.770E+01   0.289E+00 0.379E-18 0.439E+00   0.353E-04 -.520E-09 -.810E-04
   -.226E+01 0.675E-05 -.726E+01   0.255E+01 -.190E-04 0.770E+01   -.289E+00 0.246E-18 -.439E+00   -.353E-04 -.633E-09 0.810E-04
   -.226E+01 0.271E-05 0.726E+01   0.255E+01 -.190E-04 -.770E+01   -.289E+00 0.129E-17 0.439E+00   -.353E-04 -.788E-09 -.810E-04
   0.226E+01 0.783E-04 -.726E+01   -.255E+01 0.136E-04 0.770E+01   0.289E+00 0.456E-18 -.439E+00   0.353E-04 -.675E-09 0.810E-04
   -.212E+02 0.493E-05 -.431E+01   0.204E+02 -.173E-04 0.436E+01   0.847E+00 0.105E-19 -.439E-01   -.288E-04 -.392E-09 -.184E-03
   0.212E+02 0.799E-04 0.431E+01   -.204E+02 0.165E-04 -.436E+01   -.847E+00 -.155E-18 0.439E-01   0.288E-04 -.547E-10 0.184E-03
   0.212E+02 0.795E-04 -.432E+01   -.204E+02 0.165E-04 0.436E+01   -.847E+00 -.178E-17 -.439E-01   0.288E-04 -.102E-09 -.184E-03
   -.212E+02 0.456E-05 0.431E+01   0.204E+02 -.173E-04 -.436E+01   0.847E+00 -.191E-17 0.439E-01   -.288E-04 -.440E-09 0.184E-03
   0.563E+01 0.188E+02 -.107E+02   -.629E+01 -.204E+02 0.116E+02   0.656E+00 0.159E+01 -.890E+00   -.203E-05 0.548E-04 -.269E-04
   -.563E+01 -.188E+02 0.107E+02   0.629E+01 0.204E+02 -.116E+02   -.656E+00 -.159E+01 0.890E+00   0.203E-05 -.548E-04 0.269E-04
   -.563E+01 -.188E+02 -.107E+02   0.629E+01 0.204E+02 0.116E+02   -.656E+00 -.159E+01 -.890E+00   0.203E-05 -.548E-04 -.270E-04
   0.563E+01 0.188E+02 0.107E+02   -.629E+01 -.204E+02 -.116E+02   0.656E+00 0.159E+01 0.890E+00   -.203E-05 0.548E-04 0.270E-04
   -.563E+01 0.188E+02 0.107E+02   0.629E+01 -.204E+02 -.116E+02   -.656E+00 0.159E+01 0.890E+00   0.203E-05 0.548E-04 0.269E-04
   0.563E+01 -.188E+02 -.107E+02   -.629E+01 0.204E+02 0.116E+02   0.656E+00 -.159E+01 -.890E+00   -.203E-05 -.548E-04 -.269E-04
   0.563E+01 -.188E+02 0.107E+02   -.629E+01 0.204E+02 -.116E+02   0.656E+00 -.159E+01 0.890E+00   -.202E-05 -.548E-04 0.270E-04
   -.563E+01 0.188E+02 -.107E+02   0.629E+01 -.204E+02 0.116E+02   -.656E+00 0.159E+01 -.890E+00   0.203E-05 0.548E-04 -.270E-04
   0.305E+02 -.101E-04 0.193E+01   -.325E+02 -.781E-05 -.228E+01   0.199E+01 0.141E-17 0.354E+00   -.123E-03 0.176E-09 0.326E-04
   -.305E+02 0.502E-05 -.193E+01   0.325E+02 0.791E-05 0.228E+01   -.199E+01 -.330E-18 -.354E+00   0.123E-03 0.207E-09 -.326E-04
   -.305E+02 0.111E-04 0.193E+01   0.325E+02 0.791E-05 -.228E+01   -.199E+01 0.208E-17 0.354E+00   0.123E-03 0.893E-10 0.326E-04
   0.305E+02 -.403E-05 -.193E+01   -.325E+02 -.781E-05 0.228E+01   0.199E+01 -.120E-17 -.354E+00   -.123E-03 0.573E-10 -.326E-04
   0.260E+01 0.174E-05 0.212E+02   -.298E+01 0.846E-05 -.231E+02   0.385E+00 -.873E-18 0.190E+01   -.480E-05 0.546E-10 0.120E-04
   -.260E+01 -.132E-04 -.212E+02   0.298E+01 -.898E-05 0.231E+02   -.385E+00 -.119E-17 -.190E+01   0.480E-05 -.828E-10 -.120E-04
   -.260E+01 -.200E-06 0.212E+02   0.298E+01 -.898E-05 -.231E+02   -.385E+00 -.505E-18 0.190E+01   0.480E-05 -.414E-09 0.120E-04
   0.260E+01 0.147E-04 -.212E+02   -.298E+01 0.846E-05 0.231E+02   0.385E+00 -.214E-18 -.190E+01   -.480E-05 -.276E-09 -.120E-04
 -----------------------------------------------------------------------------------------------
   -.322E-03 0.469E-03 0.120E-03   0.488E-14 -.227E-13 -.711E-14   0.222E-15 -.820E-18 -.444E-15   -.162E-08 -.356E-08 0.121E-08
 
 
 POSITION                                       TOTAL-FORCE (eV/Angst)
 -----------------------------------------------------------------------------------
      0.13848      1.71821      8.08205         0.001074     -0.000000      0.006925
      9.03230      5.15464      3.61566        -0.001074     -0.000000     -0.006925
      4.44691      5.15464      2.23319        -0.001074      0.000000      0.006925
      4.72387      1.71821      9.46452         0.001074     -0.000000     -0.006925
      1.42861      5.15464     10.61132        -0.004514     -0.000000     -0.003086
      7.74217      1.71821      1.08640         0.004514      0.000000      0.003086
      3.15678      1.71821      4.76246         0.004514     -0.000000     -0.003086
      6.01400      5.15464      6.93526        -0.004514      0.000000      0.003086
      1.75743      0.41577      1.75500         0.000486     -0.007275      0.001828
      7.41335      6.45709      9.94272        -0.000486      0.007275     -0.001828
      2.82796      6.45709      7.60386        -0.000486      0.007275      0.001828
      6.34282      0.41577      4.09386         0.000486     -0.007275     -0.001828
      7.41335      3.85220      9.94272        -0.000486     -0.007275     -0.001828
      1.75743      3.02066      1.75500         0.000486      0.007275      0.001828
      6.34282      3.02066      4.09386         0.000486      0.007275     -0.001828
      2.82796      3.85220      7.60386        -0.000486     -0.007275      0.001828
      0.66077      5.15464      6.94362         0.000910     -0.000000     -0.001919
      8.51001      1.71821      4.75410        -0.000910      0.000000      0.001919
      3.92462      1.71821      1.09476        -0.000910      0.000000     -0.001919
      5.24616      5.15464     10.60296         0.000910     -0.000000      0.001919
      1.77891      1.71821     11.19877         0.004021      0.000000      0.009057
      7.39187      5.15464      0.49895        -0.004021     -0.000000     -0.009057
      2.80648      5.15464      5.34991        -0.004021     -0.000000      0.009057
      6.36431      1.71821      6.34780         0.004021      0.000000     -0.009057
 -----------------------------------------------------------------------------------
    total drift:                               -0.000322      0.000469      0.000120


--------------------------------------------------------------------------------------------------------



  FREE ENERGIE OF THE ION-ELECTRON SYSTEM (eV)
  ---------------------------------------------------
  free  energy   TOTEN  =       -87.77886557 eV

  energy  without entropy=      -87.77886557  energy(sigma->0) =      -87.77886557
 
 d Force = 0.2315427E-03[ 0.852E-04, 0.378E-03]  d Energy = 0.2863981E-03-0.549E-04
 d Force = 0.4419262E-01[ 0.438E-01, 0.446E-01]  d Ewald  = 0.3101633E-01 0.132E-01


--------------------------------------------------------------------------------------------------------


    POTLOK:  cpu time    1.0039: real time    1.0062


--------------------------------------------------------------------------------------------------------


 Conjugate gradient step on ions:
 trial-energy change:   -0.000286  1 .order   -0.000297   -0.000486   -0.000109
  (g-gl).g = 0.139E-03      g.g   = 0.465E-03  gl.gl    = 0.739E-03
 g(Force)  = 0.373E-03   g(Stress)= 0.919E-04 ortho     =-0.808E-04
 gamma     =   0.18806
 trial     =   1.08137
 opt step  =   1.49254  (harmonic =   1.39246) maximal distance =0.00199933
 next E    =   -87.778886   (d E  =  -0.00031)


--------------------------------------------------------------------------------------------------------


  
 reached required accuracy - stopping structural energy minimisation
 writing wavefunctions
     LOOP+:  cpu time   24.2484: real time   24.7085
    4ORBIT:  cpu time    0.0000: real time    0.0000
 BZINTS: Fermi energy:  2.703295;144.000000 electrons
         Band energy:***********;  BLOECHL correction:  0.000000

 total amount of memory used by VASP MPI-rank0    68281. kBytes
=======================================================================

   base      :      30000. kBytes
   nonlr-proj:       2987. kBytes
   fftplans  :       2347. kBytes
   grid      :       3658. kBytes
   one-center:         93. kBytes
   wavefun   :      29196. kBytes
 
  
  
 General timing and accounting informations for this job:
 ========================================================
  
                  Total CPU time used (sec):      570.107
                            User time (sec):      565.924
                          System time (sec):        4.183
                         Elapsed time (sec):      574.396
  
                   Maximum memory used (kb):      265664.
                   Average memory used (kb):           0.
  
                          Minor page faults:       116206
                          Major page faults:          301
                 Voluntary context switches:        20740
