<?xml version="1.0" encoding="ISO-8859-1"?>
<modeling>
 <generator>
  <i name="program" type="string">vasp </i>
  <i name="version" type="string">5.4.4.18Apr17-6-g9f103f2a35  </i>
  <i name="subversion" type="string">(build Nov 21 2017 15:30:27) complex            parallel </i>
  <i name="platform" type="string">LinuxIFC </i>
  <i name="date" type="string">2021 02 08 </i>
  <i name="time" type="string">14:44:25 </i>
 </generator>
 <incar>
  <i type="string" name="PREC">normal</i>
  <i type="int" name="ICHARG">    11</i>
  <i type="int" name="NELM">   100</i>
  <i name="EDIFF">      0.00000100</i>
  <i name="EDIFFG">     -0.01000000</i>
  <i name="ENCUT">    500.00000000</i>
  <i name="POTIM">      0.30000000</i>
  <i type="string" name="LREAL"> Auto       ! Projection in reciprocal s</i>
  <i type="int" name="ISMEAR">     0</i>
  <i name="SIGMA">      0.01000000</i>
  <i type="logical" name="LWAVE"> T  </i>
  <i type="logical" name="LCHARG"> T  </i>
  <i type="logical" name="LASPH"> T  </i>
  <v type="int" name="KPOINT_BSE">    -1     0     0     0</v>
  <i type="int" name="NELM">   100</i>
  <i type="string" name="GGA"> MK</i>
  <i name="PARAM1">      0.12340000</i>
  <i name="PARAM2">      0.71135700</i>
  <i type="logical" name="LUSE_VDW"> T  </i>
  <i name="Zab_VDW">     -1.88670000</i>
  <i name="AGGAC">      0.00000000</i>
  <i type="logical" name="LASPH"> T  </i>
 </incar>
 <structure name="primitive_cell" >
  <crystal>
   <varray name="basis" >
    <v>       8.90583493       0.00000000       0.00000000 </v>
    <v>       0.00000000       6.72585212       0.00000000 </v>
    <v>       0.00000000       0.00000000      11.50548470 </v>
   </varray>
   <i name="volume">    689.17081132 </i>
   <varray name="rec_basis" >
    <v>       0.11228593       0.00000000       0.00000000 </v>
    <v>       0.00000000       0.14868005       0.00000000 </v>
    <v>       0.00000000       0.00000000       0.08691507 </v>
   </varray>
  </crystal>
  <varray name="positions" >
   <v>       0.01541041       0.25000000      -0.30784404 </v>
   <v>      -0.30356461       0.25000000      -0.46482951 </v>
   <v>      -0.08136522       0.25000000       0.40910779 </v>
   <v>      -0.19334513      -0.42905692      -0.14627224 </v>
   <v>      -0.19334513      -0.07094308      -0.14627224 </v>
   <v>       0.30665487      -0.42905692      -0.35372776 </v>
   <v>       0.30665487      -0.07094308      -0.35372776 </v>
   <v>       0.19643538       0.25000000      -0.03517049 </v>
   <v>       0.08136520      -0.24999998      -0.40910779 </v>
   <v>       0.16075613      -0.24999998      -0.09358670 </v>
   <v>       0.33924387       0.25000000       0.40641338 </v>
   <v>      -0.48458959       0.25000000      -0.19215592 </v>
   <v>      -0.33924387      -0.24999998      -0.40641334 </v>
   <v>      -0.16075613       0.25000000       0.09358668 </v>
   <v>       0.30356461      -0.24999998       0.46482943 </v>
   <v>      -0.30665487       0.42905692       0.35372776 </v>
   <v>      -0.30665487       0.07094307       0.35372776 </v>
   <v>      -0.19643539      -0.24999998       0.03517051 </v>
   <v>      -0.01541041      -0.24999998       0.30784404 </v>
   <v>       0.19334513       0.42905692       0.14627222 </v>
   <v>       0.19334513       0.07094307       0.14627222 </v>
   <v>      -0.41863478      -0.24999998      -0.09089217 </v>
   <v>       0.41863481       0.25000000       0.09089215 </v>
   <v>       0.48458959      -0.24999998       0.19215590 </v>
  </varray>
 </structure>
 <varray name="primitive_index" >
  <v type="int" >        1 </v>
  <v type="int" >       24 </v>
  <v type="int" >       18 </v>
  <v type="int" >       13 </v>
  <v type="int" >       10 </v>
  <v type="int" >       16 </v>
  <v type="int" >       11 </v>
  <v type="int" >       21 </v>
  <v type="int" >       17 </v>
  <v type="int" >        5 </v>
  <v type="int" >        7 </v>
  <v type="int" >        4 </v>
  <v type="int" >        8 </v>
  <v type="int" >        6 </v>
  <v type="int" >       23 </v>
  <v type="int" >       15 </v>
  <v type="int" >       12 </v>
  <v type="int" >       22 </v>
  <v type="int" >        2 </v>
  <v type="int" >       14 </v>
  <v type="int" >        9 </v>
  <v type="int" >       20 </v>
  <v type="int" >       19 </v>
  <v type="int" >        3 </v>
 </varray>
 <kpoints>
  <generation param="listgenerated">
   <i name="divisions" type="int">      20 </i>
   <v>       0.00000000       0.00000000       0.00000000 </v>
   <v>       0.00000000       0.50000000       0.00000000 </v>
   <v>       0.00000000       0.50000000       0.50000000 </v>
   <v>       0.00000000       0.00000000       0.50000000 </v>
   <v>       0.00000000       0.00000000       0.00000000 </v>
   <v>       0.50000000       0.00000000       0.00000000 </v>
  </generation>
  <varray name="kpointlist" >
   <v>       0.00000000       0.00000000       0.00000000 </v>
   <v>       0.00000000       0.02631579       0.00000000 </v>
   <v>       0.00000000       0.05263158       0.00000000 </v>
   <v>       0.00000000       0.07894737       0.00000000 </v>
   <v>       0.00000000       0.10526316       0.00000000 </v>
   <v>       0.00000000       0.13157895       0.00000000 </v>
   <v>       0.00000000       0.15789474       0.00000000 </v>
   <v>       0.00000000       0.18421053       0.00000000 </v>
   <v>       0.00000000       0.21052632       0.00000000 </v>
   <v>       0.00000000       0.23684211       0.00000000 </v>
   <v>       0.00000000       0.26315789       0.00000000 </v>
   <v>       0.00000000       0.28947368       0.00000000 </v>
   <v>       0.00000000       0.31578947       0.00000000 </v>
   <v>       0.00000000       0.34210526       0.00000000 </v>
   <v>       0.00000000       0.36842105       0.00000000 </v>
   <v>       0.00000000       0.39473684       0.00000000 </v>
   <v>       0.00000000       0.42105263       0.00000000 </v>
   <v>       0.00000000       0.44736842       0.00000000 </v>
   <v>       0.00000000       0.47368421       0.00000000 </v>
   <v>       0.00000000       0.50000000       0.00000000 </v>
   <v>       0.00000000       0.50000000       0.00000000 </v>
   <v>       0.00000000       0.50000000       0.02631579 </v>
   <v>       0.00000000       0.50000000       0.05263158 </v>
   <v>       0.00000000       0.50000000       0.07894737 </v>
   <v>       0.00000000       0.50000000       0.10526316 </v>
   <v>       0.00000000       0.50000000       0.13157895 </v>
   <v>       0.00000000       0.50000000       0.15789474 </v>
   <v>       0.00000000       0.50000000       0.18421053 </v>
   <v>       0.00000000       0.50000000       0.21052632 </v>
   <v>       0.00000000       0.50000000       0.23684211 </v>
   <v>       0.00000000       0.50000000       0.26315789 </v>
   <v>       0.00000000       0.50000000       0.28947368 </v>
   <v>       0.00000000       0.50000000       0.31578947 </v>
   <v>       0.00000000       0.50000000       0.34210526 </v>
   <v>       0.00000000       0.50000000       0.36842105 </v>
   <v>       0.00000000       0.50000000       0.39473684 </v>
   <v>       0.00000000       0.50000000       0.42105263 </v>
   <v>       0.00000000       0.50000000       0.44736842 </v>
   <v>       0.00000000       0.50000000       0.47368421 </v>
   <v>       0.00000000       0.50000000       0.50000000 </v>
   <v>       0.00000000       0.50000000       0.50000000 </v>
   <v>       0.00000000       0.47368421       0.50000000 </v>
   <v>       0.00000000       0.44736842       0.50000000 </v>
   <v>       0.00000000       0.42105263       0.50000000 </v>
   <v>       0.00000000       0.39473684       0.50000000 </v>
   <v>       0.00000000       0.36842105       0.50000000 </v>
   <v>       0.00000000       0.34210526       0.50000000 </v>
   <v>       0.00000000       0.31578947       0.50000000 </v>
   <v>       0.00000000       0.28947368       0.50000000 </v>
   <v>       0.00000000       0.26315789       0.50000000 </v>
   <v>       0.00000000       0.23684211       0.50000000 </v>
   <v>       0.00000000       0.21052632       0.50000000 </v>
   <v>       0.00000000       0.18421053       0.50000000 </v>
   <v>       0.00000000       0.15789474       0.50000000 </v>
   <v>       0.00000000       0.13157895       0.50000000 </v>
   <v>       0.00000000       0.10526316       0.50000000 </v>
   <v>       0.00000000       0.07894737       0.50000000 </v>
   <v>       0.00000000       0.05263158       0.50000000 </v>
   <v>       0.00000000       0.02631579       0.50000000 </v>
   <v>       0.00000000       0.00000000       0.50000000 </v>
   <v>       0.00000000       0.00000000       0.50000000 </v>
   <v>       0.00000000       0.00000000       0.47368421 </v>
   <v>       0.00000000       0.00000000       0.44736842 </v>
   <v>       0.00000000       0.00000000       0.42105263 </v>
   <v>       0.00000000       0.00000000       0.39473684 </v>
   <v>       0.00000000       0.00000000       0.36842105 </v>
   <v>       0.00000000       0.00000000       0.34210526 </v>
   <v>       0.00000000       0.00000000       0.31578947 </v>
   <v>       0.00000000       0.00000000       0.28947368 </v>
   <v>       0.00000000       0.00000000       0.26315789 </v>
   <v>       0.00000000       0.00000000       0.23684211 </v>
   <v>       0.00000000       0.00000000       0.21052632 </v>
   <v>       0.00000000       0.00000000       0.18421053 </v>
   <v>       0.00000000       0.00000000       0.15789474 </v>
   <v>       0.00000000       0.00000000       0.13157895 </v>
   <v>       0.00000000       0.00000000       0.10526316 </v>
   <v>       0.00000000       0.00000000       0.07894737 </v>
   <v>       0.00000000       0.00000000       0.05263158 </v>
   <v>       0.00000000       0.00000000       0.02631579 </v>
   <v>       0.00000000       0.00000000       0.00000000 </v>
   <v>       0.00000000       0.00000000       0.00000000 </v>
   <v>       0.02631579       0.00000000       0.00000000 </v>
   <v>       0.05263158       0.00000000       0.00000000 </v>
   <v>       0.07894737       0.00000000       0.00000000 </v>
   <v>       0.10526316       0.00000000       0.00000000 </v>
   <v>       0.13157895       0.00000000       0.00000000 </v>
   <v>       0.15789474       0.00000000       0.00000000 </v>
   <v>       0.18421053       0.00000000       0.00000000 </v>
   <v>       0.21052632       0.00000000       0.00000000 </v>
   <v>       0.23684211       0.00000000       0.00000000 </v>
   <v>       0.26315789       0.00000000       0.00000000 </v>
   <v>       0.28947368       0.00000000       0.00000000 </v>
   <v>       0.31578947       0.00000000       0.00000000 </v>
   <v>       0.34210526       0.00000000       0.00000000 </v>
   <v>       0.36842105       0.00000000       0.00000000 </v>
   <v>       0.39473684       0.00000000       0.00000000 </v>
   <v>       0.42105263       0.00000000       0.00000000 </v>
   <v>       0.44736842       0.00000000       0.00000000 </v>
   <v>       0.47368421       0.00000000       0.00000000 </v>
   <v>       0.50000000       0.00000000       0.00000000 </v>
  </varray>
  <varray name="weights" >
   <v>       0.01000000 </v>
   <v>       0.01000000 </v>
   <v>       0.01000000 </v>
   <v>       0.01000000 </v>
   <v>       0.01000000 </v>
   <v>       0.01000000 </v>
   <v>       0.01000000 </v>
   <v>       0.01000000 </v>
   <v>       0.01000000 </v>
   <v>       0.01000000 </v>
   <v>       0.01000000 </v>
   <v>       0.01000000 </v>
   <v>       0.01000000 </v>
   <v>       0.01000000 </v>
   <v>       0.01000000 </v>
   <v>       0.01000000 </v>
   <v>       0.01000000 </v>
   <v>       0.01000000 </v>
   <v>       0.01000000 </v>
   <v>       0.01000000 </v>
   <v>       0.01000000 </v>
   <v>       0.01000000 </v>
   <v>       0.01000000 </v>
   <v>       0.01000000 </v>
   <v>       0.01000000 </v>
   <v>       0.01000000 </v>
   <v>       0.01000000 </v>
   <v>       0.01000000 </v>
   <v>       0.01000000 </v>
   <v>       0.01000000 </v>
   <v>       0.01000000 </v>
   <v>       0.01000000 </v>
   <v>       0.01000000 </v>
   <v>       0.01000000 </v>
   <v>       0.01000000 </v>
   <v>       0.01000000 </v>
   <v>       0.01000000 </v>
   <v>       0.01000000 </v>
   <v>       0.01000000 </v>
   <v>       0.01000000 </v>
   <v>       0.01000000 </v>
   <v>       0.01000000 </v>
   <v>       0.01000000 </v>
   <v>       0.01000000 </v>
   <v>       0.01000000 </v>
   <v>       0.01000000 </v>
   <v>       0.01000000 </v>
   <v>       0.01000000 </v>
   <v>       0.01000000 </v>
   <v>       0.01000000 </v>
   <v>       0.01000000 </v>
   <v>       0.01000000 </v>
   <v>       0.01000000 </v>
   <v>       0.01000000 </v>
   <v>       0.01000000 </v>
   <v>       0.01000000 </v>
   <v>       0.01000000 </v>
   <v>       0.01000000 </v>
   <v>       0.01000000 </v>
   <v>       0.01000000 </v>
   <v>       0.01000000 </v>
   <v>       0.01000000 </v>
   <v>       0.01000000 </v>
   <v>       0.01000000 </v>
   <v>       0.01000000 </v>
   <v>       0.01000000 </v>
   <v>       0.01000000 </v>
   <v>       0.01000000 </v>
   <v>       0.01000000 </v>
   <v>       0.01000000 </v>
   <v>       0.01000000 </v>
   <v>       0.01000000 </v>
   <v>       0.01000000 </v>
   <v>       0.01000000 </v>
   <v>       0.01000000 </v>
   <v>       0.01000000 </v>
   <v>       0.01000000 </v>
   <v>       0.01000000 </v>
   <v>       0.01000000 </v>
   <v>       0.01000000 </v>
   <v>       0.01000000 </v>
   <v>       0.01000000 </v>
   <v>       0.01000000 </v>
   <v>       0.01000000 </v>
   <v>       0.01000000 </v>
   <v>       0.01000000 </v>
   <v>       0.01000000 </v>
   <v>       0.01000000 </v>
   <v>       0.01000000 </v>
   <v>       0.01000000 </v>
   <v>       0.01000000 </v>
   <v>       0.01000000 </v>
   <v>       0.01000000 </v>
   <v>       0.01000000 </v>
   <v>       0.01000000 </v>
   <v>       0.01000000 </v>
   <v>       0.01000000 </v>
   <v>       0.01000000 </v>
   <v>       0.01000000 </v>
   <v>       0.01000000 </v>
  </varray>
 </kpoints>
 <parameters>
  <separator name="general" >
   <i type="string" name="SYSTEM">unknown system</i>
   <i type="logical" name="LCOMPAT"> F  </i>
  </separator>
  <separator name="electronic" >
   <i type="string" name="PREC">normal</i>
   <i name="ENMAX">    500.00000000</i>
   <i name="ENAUG">    351.16500000</i>
   <i name="EDIFF">      0.00000100</i>
   <i type="int" name="IALGO">    38</i>
   <i type="int" name="IWAVPR">    10</i>
   <i type="int" name="NBANDS">    88</i>
   <i name="NELECT">    144.00000000</i>
   <i type="int" name="TURBO">     0</i>
   <i type="int" name="IRESTART">     0</i>
   <i type="int" name="NREBOOT">     0</i>
   <i type="int" name="NMIN">     0</i>
   <i name="EREF">      0.00000000</i>
   <separator name="electronic smearing" >
    <i type="int" name="ISMEAR">     0</i>
    <i name="SIGMA">      0.01000000</i>
    <i name="KSPACING">      0.50000000</i>
    <i type="logical" name="KGAMMA"> T  </i>
   </separator>
   <separator name="electronic projectors" >
    <i type="logical" name="LREAL"> T  </i>
    <v name="ROPT">     -0.00050000     -0.00050000</v>
    <i type="int" name="LMAXPAW">  -100</i>
    <i type="int" name="LMAXMIX">     2</i>
    <i type="logical" name="NLSPLINE"> F  </i>
   </separator>
   <separator name="electronic startup" >
    <i type="int" name="ISTART">     0</i>
    <i type="int" name="ICHARG">    11</i>
    <i type="int" name="INIWAV">     1</i>
   </separator>
   <separator name="electronic spin" >
    <i type="int" name="ISPIN">     1</i>
    <i type="logical" name="LNONCOLLINEAR"> F  </i>
    <v name="MAGMOM">      1.00000000      1.00000000      1.00000000      1.00000000      1.00000000      1.00000000      1.00000000      1.00000000      1.00000000      1.00000000      1.00000000      1.00000000      1.00000000      1.00000000      1.00000000      1.00000000      1.00000000      1.00000000      1.00000000      1.00000000
      1.00000000      1.00000000      1.00000000      1.00000000</v>
    <i name="NUPDOWN">     -1.00000000</i>
    <i type="logical" name="LSORBIT"> F  </i>
    <v name="SAXIS">      0.00000000      0.00000000      1.00000000</v>
    <i type="logical" name="LSPIRAL"> F  </i>
    <v name="QSPIRAL">      0.00000000      0.00000000      0.00000000</v>
    <i type="logical" name="LZEROZ"> F  </i>
   </separator>
   <separator name="electronic exchange-correlation" >
    <i type="logical" name="LASPH"> T  </i>
    <i type="logical" name="LMETAGGA"> F  </i>
   </separator>
   <separator name="electronic convergence" >
    <i type="int" name="NELM">   100</i>
    <i type="int" name="NELMDL">    -5</i>
    <i type="int" name="NELMIN">     2</i>
    <i name="ENINI">    500.00000000</i>
    <separator name="electronic convergence detail" >
     <i type="logical" name="LDIAG"> T  </i>
     <i type="logical" name="LSUBROT"> F  </i>
     <i name="WEIMIN">      0.00000000</i>
     <i name="EBREAK">      0.00000000</i>
     <i name="DEPER">      0.30000000</i>
     <i type="int" name="NRMM">     4</i>
     <i name="TIME">      0.40000000</i>
    </separator>
   </separator>
   <separator name="electronic mixer" >
    <i name="AMIX">      0.40000000</i>
    <i name="BMIX">      1.00000000</i>
    <i name="AMIN">      0.10000000</i>
    <i name="AMIX_MAG">      1.60000000</i>
    <i name="BMIX_MAG">      1.00000000</i>
    <separator name="electronic mixer details" >
     <i type="int" name="IMIX">     4</i>
     <i type="logical" name="MIXFIRST"> F  </i>
     <i type="int" name="MAXMIX">   -45</i>
     <i name="WC">    100.00000000</i>
     <i type="int" name="INIMIX">     1</i>
     <i type="int" name="MIXPRE">     1</i>
     <i type="int" name="MREMOVE">     5</i>
    </separator>
   </separator>
   <separator name="electronic dipolcorrection" >
    <i type="logical" name="LDIPOL"> F  </i>
    <i type="logical" name="LMONO"> F  </i>
    <i type="int" name="IDIPOL">     0</i>
    <i name="EPSILON">      1.00000000</i>
    <v name="DIPOL">   -100.00000000   -100.00000000   -100.00000000</v>
    <i name="EFIELD">      0.00000000</i>
   </separator>
  </separator>
  <separator name="grids" >
   <i type="int" name="NGX">    50</i>
   <i type="int" name="NGY">    40</i>
   <i type="int" name="NGZ">    64</i>
   <i type="int" name="NGXF">   100</i>
   <i type="int" name="NGYF">    80</i>
   <i type="int" name="NGZF">   128</i>
   <i type="logical" name="ADDGRID"> F  </i>
  </separator>
  <separator name="ionic" >
   <i type="int" name="NSW">     0</i>
   <i type="int" name="IBRION">    -1</i>
   <i type="int" name="MDALGO">     0</i>
   <i type="int" name="ISIF">     2</i>
   <i name="PSTRESS">      0.00000000</i>
   <i name="EDIFFG">     -0.01000000</i>
   <i type="int" name="NFREE">     0</i>
   <i name="POTIM">      0.30000000</i>
   <i name="SMASS">     -3.00000000</i>
   <i name="SCALEE">      1.00000000</i>
  </separator>
  <separator name="ionic md" >
   <i name="TEBEG">      0.00010000</i>
   <i name="TEEND">      0.00010000</i>
   <i type="int" name="NBLOCK">     1</i>
   <i type="int" name="KBLOCK">     1</i>
   <i type="int" name="NPACO">   256</i>
   <i name="APACO">     16.00000000</i>
  </separator>
  <separator name="symmetry" >
   <i type="int" name="ISYM">     2</i>
   <i name="SYMPREC">      0.00001000</i>
  </separator>
  <separator name="dos" >
   <i type="int" name="LORBIT">     0</i>
   <v name="RWIGS">     -1.00000000     -1.00000000</v>
   <i type="int" name="NEDOS">   301</i>
   <i name="EMIN">     10.00000000</i>
   <i name="EMAX">    -10.00000000</i>
   <i name="EFERMI">      0.00000000</i>
  </separator>
  <separator name="writing" >
   <i type="int" name="NWRITE">     2</i>
   <i type="logical" name="LWAVE"> T  </i>
   <i type="logical" name="LDOWNSAMPLE"> F  </i>
   <i type="logical" name="LCHARG"> T  </i>
   <i type="logical" name="LPARD"> F  </i>
   <i type="logical" name="LVTOT"> F  </i>
   <i type="logical" name="LVHAR"> F  </i>
   <i type="logical" name="LELF"> F  </i>
   <i type="logical" name="LOPTICS"> F  </i>
   <v name="STM">      0.00000000      0.00000000      0.00000000      0.00000000      0.00000000      0.00000000      0.00000000</v>
  </separator>
  <separator name="performance" >
   <i type="int" name="NPAR">     8</i>
   <i type="int" name="NSIM">     4</i>
   <i type="int" name="NBLK">    -1</i>
   <i type="logical" name="LPLANE"> T  </i>
   <i type="logical" name="LSCALAPACK"> T  </i>
   <i type="logical" name="LSCAAWARE"> F  </i>
   <i type="logical" name="LSCALU"> F  </i>
   <i type="logical" name="LASYNC"> F  </i>
   <i type="logical" name="LORBITALREAL"> F  </i>
  </separator>
  <separator name="miscellaneous" >
   <i type="int" name="IDIOT">     3</i>
   <i type="int" name="ISPECIAL">     0</i>
   <i type="logical" name="LMUSIC"> F  </i>
   <v name="POMASS">    137.32700000     28.08500000</v>
   <v name="DARWINR">      0.00000000      0.00000000</v>
   <v name="DARWINV">      1.00000000      1.00000000</v>
   <i type="logical" name="LCORR"> T  </i>
  </separator>
  <i type="logical" name="GGA_COMPAT"> T  </i>
  <i type="logical" name="LBERRY"> F  </i>
  <i type="int" name="ICORELEVEL">     0</i>
  <i type="logical" name="LDAU"> F  </i>
  <i type="int" name="I_CONSTRAINED_M">     0</i>
  <separator name="electronic exchange-correlation" >
   <i type="string" name="GGA">MK</i>
   <i type="int" name="VOSKOWN">     0</i>
   <i type="logical" name="LHFCALC"> F  </i>
   <i type="string" name="PRECFOCK"></i>
   <i type="logical" name="LSYMGRAD"> F  </i>
   <i type="logical" name="LHFONE"> F  </i>
   <i type="logical" name="LRHFCALC"> F  </i>
   <i type="logical" name="LTHOMAS"> F  </i>
   <i type="logical" name="LMODELHF"> F  </i>
   <i name="ENCUT4O">     -1.00000000</i>
   <i type="int" name="EXXOEP">     0</i>
   <i type="int" name="FOURORBIT">     0</i>
   <i name="AEXX">      0.00000000</i>
   <i name="HFALPHA">      0.00000000</i>
   <i name="MCALPHA">      0.00000000</i>
   <i name="ALDAX">      1.00000000</i>
   <i name="AGGAX">      1.00000000</i>
   <i name="ALDAC">      1.00000000</i>
   <i name="AGGAC">      0.00000000</i>
   <i type="int" name="NKREDX">     1</i>
   <i type="int" name="NKREDY">     1</i>
   <i type="int" name="NKREDZ">     1</i>
   <i type="logical" name="SHIFTRED"> F  </i>
   <i type="logical" name="ODDONLY"> F  </i>
   <i type="logical" name="EVENONLY"> F  </i>
   <i type="int" name="LMAXFOCK">     0</i>
   <i type="int" name="NMAXFOCKAE">     0</i>
   <i type="logical" name="LFOCKAEDFT"> F  </i>
   <i name="HFSCREEN">      0.00000000</i>
   <i name="HFSCREENC">      0.00000000</i>
   <i type="int" name="NBANDSGWLOW">     0</i>
  </separator>
  <separator name="vdW DFT" >
   <i type="logical" name="LUSE_VDW"> T  </i>
   <i name="Zab_VDW">     -1.88670000</i>
   <i name="PARAM1">      0.12340000</i>
   <i name="PARAM2">      0.71135700</i>
   <i name="PARAM3">      0.00000000</i>
  </separator>
  <separator name="model GW" >
   <i type="int" name="MODEL_GW">     0</i>
   <i name="MODEL_EPS0">     17.22927028</i>
   <i name="MODEL_ALPHA">      1.00000000</i>
  </separator>
  <separator name="linear response parameters" >
   <i type="logical" name="LEPSILON"> F  </i>
   <i type="logical" name="LRPA"> F  </i>
   <i type="logical" name="LNABLA"> F  </i>
   <i type="logical" name="LVEL"> F  </i>
   <i type="int" name="KINTER">     0</i>
   <i name="CSHIFT">      0.10000000</i>
   <i name="OMEGAMAX">     -1.00000000</i>
   <i name="DEG_THRESHOLD">      0.00200000</i>
   <i name="RTIME">     -0.10000000</i>
   <i name="WPLASMAI">      0.00000000</i>
   <v name="DFIELD">      0.00000000      0.00000000      0.00000000</v>
   <v name="WPLASMA">      0.00000000      0.00000000      0.00000000      0.00000000      0.00000000      0.00000000      0.00000000      0.00000000      0.00000000</v>
  </separator>
  <separator name="orbital magnetization" >
   <i type="logical" name="NUCIND"> F  </i>
   <v name="MAGPOS">      0.00000000      0.00000000      0.00000000</v>
   <i type="logical" name="LNICSALL"> T  </i>
   <i type="logical" name="ORBITALMAG"> F  </i>
   <i type="logical" name="LMAGBLOCH"> F  </i>
   <i type="logical" name="LCHIMAG"> F  </i>
   <i type="logical" name="LGAUGE"> T  </i>
   <i type="int" name="MAGATOM">     0</i>
   <v name="MAGDIPOL">      0.00000000      0.00000000      0.00000000</v>
   <v name="AVECCONST">      0.00000000      0.00000000      0.00000000</v>
  </separator>
  <separator name="response functions" >
   <i type="logical" name="LADDER"> F  </i>
   <i type="logical" name="LRPAFORCE"> F  </i>
   <i type="logical" name="LFXC"> F  </i>
   <i type="logical" name="LHARTREE"> T  </i>
   <i type="int" name="IBSE">     0</i>
   <v type="int" name="KPOINT">    -1     0     0     0</v>
   <i type="logical" name="LTCTE"> F  </i>
   <i type="logical" name="LTETE"> F  </i>
   <i type="logical" name="LTRIPLET"> F  </i>
   <i type="logical" name="LFXCEPS"> F  </i>
   <i type="logical" name="LFXHEG"> F  </i>
   <i type="int" name="NATURALO">     2</i>
   <i type="logical" name="L2ORDER"> F  </i>
   <i type="logical" name="LMP2LT"> F  </i>
   <i type="logical" name="LUSEW"> F  </i>
   <i name="ENCUTGW">     -2.00000000</i>
   <i name="ENCUTGWSOFT">     -2.00000000</i>
   <i name="ENCUTLF">     -1.00000000</i>
   <i type="int" name="LMAXMP2">    -1</i>
   <i name="SCISSOR">      0.00000000</i>
   <i type="int" name="NOMEGA">     0</i>
   <i type="int" name="NOMEGAR">     0</i>
   <i type="int" name="NBANDSGW">    -1</i>
   <i type="int" name="NBANDSO">    -1</i>
   <i type="int" name="NBANDSV">    -1</i>
   <i type="int" name="NELM">   100</i>
   <i type="int" name="NELMHF">     1</i>
   <i type="int" name="DIM">     3</i>
   <i type="int" name="ANTIRES">     0</i>
   <i name="OMEGAMAX">    -30.00000000</i>
   <i name="OMEGAMIN">    -30.00000000</i>
   <i name="OMEGATL">   -200.00000000</i>
   <i type="int" name="OMEGAGRID">   140</i>
   <i name="CSHIFT">     -0.10000000</i>
   <i type="logical" name="SELFENERGY"> F  </i>
   <i type="logical" name="LSPECTRAL"> F  </i>
   <i type="logical" name="LSPECTRALGW"> F  </i>
   <i type="logical" name="LSINGLES"> F  </i>
   <i type="logical" name="LFERMIGW"> F  </i>
   <i type="logical" name="ODDONLYGW"> F  </i>
   <i type="logical" name="EVENONLYGW"> F  </i>
   <i type="int" name="NKREDLFX">     1</i>
   <i type="int" name="NKREDLFY">     1</i>
   <i type="int" name="NKREDLFZ">     1</i>
   <i type="int" name="MAXMEM">  2800</i>
   <i type="int" name="TELESCOPE">     0</i>
   <i type="int" name="TAUPAR">     1</i>
   <i type="int" name="OMEGAPAR">    -1</i>
   <i name="LAMBDA">      1.00000000</i>
  </separator>
  <separator name="External order field" >
   <i name="OFIELD_KAPPA">      0.00000000</i>
   <v name="OFIELD_K">      0.00000000      0.00000000      0.00000000</v>
   <i name="OFIELD_Q6_NEAR">      0.00000000</i>
   <i name="OFIELD_Q6_FAR">      0.00000000</i>
   <i name="OFIELD_A">      0.00000000</i>
  </separator>
 </parameters>
 <atominfo>
  <atoms>      24 </atoms>
  <types>       2 </types>
  <array name="atoms" >
   <dimension dim="1">ion</dimension>
   <field type="string">element</field>
   <field type="int">atomtype</field>
   <set>
    <rc><c>Ba</c><c>   1</c></rc>
    <rc><c>Ba</c><c>   1</c></rc>
    <rc><c>Ba</c><c>   1</c></rc>
    <rc><c>Ba</c><c>   1</c></rc>
    <rc><c>Ba</c><c>   1</c></rc>
    <rc><c>Ba</c><c>   1</c></rc>
    <rc><c>Ba</c><c>   1</c></rc>
    <rc><c>Ba</c><c>   1</c></rc>
    <rc><c>Si</c><c>   2</c></rc>
    <rc><c>Si</c><c>   2</c></rc>
    <rc><c>Si</c><c>   2</c></rc>
    <rc><c>Si</c><c>   2</c></rc>
    <rc><c>Si</c><c>   2</c></rc>
    <rc><c>Si</c><c>   2</c></rc>
    <rc><c>Si</c><c>   2</c></rc>
    <rc><c>Si</c><c>   2</c></rc>
    <rc><c>Si</c><c>   2</c></rc>
    <rc><c>Si</c><c>   2</c></rc>
    <rc><c>Si</c><c>   2</c></rc>
    <rc><c>Si</c><c>   2</c></rc>
    <rc><c>Si</c><c>   2</c></rc>
    <rc><c>Si</c><c>   2</c></rc>
    <rc><c>Si</c><c>   2</c></rc>
    <rc><c>Si</c><c>   2</c></rc>
   </set>
  </array>
  <array name="atomtypes" >
   <dimension dim="1">type</dimension>
   <field type="int">atomspertype</field>
   <field type="string">element</field>
   <field>mass</field>
   <field>valence</field>
   <field type="string">pseudopotential</field>
   <set>
    <rc><c>   8</c><c>Ba</c><c>    137.32700000</c><c>     10.00000000</c><c> PAW_PBE Ba_sv 06Sep2000                </c></rc>
    <rc><c>  16</c><c>Si</c><c>     28.08500000</c><c>      4.00000000</c><c> PAW_PBE Si 05Jan2001                   </c></rc>
   </set>
  </array>
 </atominfo>
 <structure name="initialpos" >
  <crystal>
   <varray name="basis" >
    <v>       8.90583493       0.00000000       0.00000000 </v>
    <v>       0.00000000       6.72585212       0.00000000 </v>
    <v>       0.00000000       0.00000000      11.50548470 </v>
   </varray>
   <i name="volume">    689.17081132 </i>
   <varray name="rec_basis" >
    <v>       0.11228593       0.00000000       0.00000000 </v>
    <v>       0.00000000       0.14868005       0.00000000 </v>
    <v>       0.00000000       0.00000000       0.08691507 </v>
   </varray>
  </crystal>
  <varray name="positions" >
   <v>       0.01541041       0.25000000       0.69215596 </v>
   <v>       0.98458959       0.75000002       0.30784404 </v>
   <v>       0.48458959       0.75000002       0.19215590 </v>
   <v>       0.51541041       0.25000000       0.80784408 </v>
   <v>       0.16075613       0.75000002       0.90641330 </v>
   <v>       0.83924387       0.25000000       0.09358668 </v>
   <v>       0.33924387       0.25000000       0.40641338 </v>
   <v>       0.66075613       0.75000002       0.59358666 </v>
   <v>       0.19334513       0.07094307       0.14627222 </v>
   <v>       0.80665487       0.92905692       0.85372776 </v>
   <v>       0.30665487       0.92905692       0.64627224 </v>
   <v>       0.69334513       0.07094307       0.35372776 </v>
   <v>       0.80665487       0.57094308       0.85372776 </v>
   <v>       0.19334513       0.42905692       0.14627222 </v>
   <v>       0.69334513       0.42905692       0.35372776 </v>
   <v>       0.30665487       0.57094308       0.64627224 </v>
   <v>       0.08136520       0.75000002       0.59089221 </v>
   <v>       0.91863478       0.25000000       0.40910779 </v>
   <v>       0.41863481       0.25000000       0.09089215 </v>
   <v>       0.58136522       0.75000002       0.90910783 </v>
   <v>       0.19643538       0.25000000       0.96482951 </v>
   <v>       0.80356461       0.75000002       0.03517051 </v>
   <v>       0.30356461       0.75000002       0.46482943 </v>
   <v>       0.69643539       0.25000000       0.53517049 </v>
  </varray>
 </structure>
 <calculation>
  <scstep>
   <time name="dav">    6.14    6.18</time>
   <time name="total">    7.69    7.77</time>
   <energy>
    <i name="alphaZ">    466.98394562 </i>
    <i name="ewald">  -6443.93013680 </i>
    <i name="hartreedc">   -898.99501468 </i>
    <i name="XCdc">     49.13070781 </i>
    <i name="pawpsdc">   3865.36388319 </i>
    <i name="pawaedc">  -3571.00727737 </i>
    <i name="eentropy">     -0.00043908 </i>
    <i name="bandstr">    119.85122705 </i>
    <i name="atom">   7269.15145414 </i>
    <i name="e_fr_energy">    856.54834988 </i>
    <i name="e_wo_entrp">    856.54878896 </i>
    <i name="e_0_energy">    856.54856942 </i>
   </energy>
  </scstep>
  <scstep>
   <time name="dav">    7.73    7.75</time>
   <time name="total">    7.74    7.76</time>
   <energy>
    <i name="e_fr_energy">    -15.41062175 </i>
    <i name="e_wo_entrp">    -15.41048291 </i>
    <i name="e_0_energy">    -15.41055233 </i>
   </energy>
  </scstep>
  <scstep>
   <time name="dav">    7.33    7.35</time>
   <time name="total">    7.33    7.35</time>
   <energy>
    <i name="e_fr_energy">    -95.89444371 </i>
    <i name="e_wo_entrp">    -95.89444371 </i>
    <i name="e_0_energy">    -95.89444371 </i>
   </energy>
  </scstep>
  <scstep>
   <time name="dav">    8.95    8.97</time>
   <time name="total">    8.95    8.97</time>
   <energy>
    <i name="e_fr_energy">    -98.56162431 </i>
    <i name="e_wo_entrp">    -98.56162431 </i>
    <i name="e_0_energy">    -98.56162431 </i>
   </energy>
  </scstep>
  <scstep>
   <time name="dav">    8.21    8.23</time>
   <time name="total">    8.21    8.23</time>
   <energy>
    <i name="e_fr_energy">    -98.62723360 </i>
    <i name="e_wo_entrp">    -98.62723360 </i>
    <i name="e_0_energy">    -98.62723360 </i>
   </energy>
  </scstep>
  <scstep>
   <time name="dav">   10.29   10.32</time>
   <time name="total">   10.29   10.32</time>
   <energy>
    <i name="e_fr_energy">    -98.62862447 </i>
    <i name="e_wo_entrp">    -98.62862447 </i>
    <i name="e_0_energy">    -98.62862447 </i>
   </energy>
  </scstep>
  <scstep>
   <time name="dav">    8.61    8.64</time>
   <time name="total">    8.61    8.64</time>
   <energy>
    <i name="e_fr_energy">    -98.62866333 </i>
    <i name="e_wo_entrp">    -98.62866333 </i>
    <i name="e_0_energy">    -98.62866333 </i>
   </energy>
  </scstep>
  <scstep>
   <time name="dav">    6.68    6.70</time>
   <time name="total">    6.68    6.70</time>
   <energy>
    <i name="alphaZ">    466.98394562 </i>
    <i name="ewald">  -6443.93013680 </i>
    <i name="hartreedc">   -898.99501468 </i>
    <i name="XCdc">     49.13070781 </i>
    <i name="pawpsdc">   3865.36388319 </i>
    <i name="pawaedc">  -3571.00727737 </i>
    <i name="eentropy">     -0.00000000 </i>
    <i name="bandstr">   -835.32622599 </i>
    <i name="atom">   7269.15145414 </i>
    <i name="e_fr_energy">    -98.62866409 </i>
    <i name="e_wo_entrp">    -98.62866409 </i>
    <i name="e_0_energy">    -98.62866409 </i>
   </energy>
  </scstep>
  <structure>
   <crystal>
    <varray name="basis" >
     <v>       8.90583493       0.00000000       0.00000000 </v>
     <v>       0.00000000       6.72585212       0.00000000 </v>
     <v>       0.00000000       0.00000000      11.50548470 </v>
    </varray>
    <i name="volume">    689.17081132 </i>
    <varray name="rec_basis" >
     <v>       0.11228593       0.00000000       0.00000000 </v>
     <v>       0.00000000       0.14868005       0.00000000 </v>
     <v>       0.00000000       0.00000000       0.08691507 </v>
    </varray>
   </crystal>
   <varray name="positions" >
    <v>       0.01541041       0.25000000       0.69215596 </v>
    <v>       0.98458959       0.75000002       0.30784404 </v>
    <v>       0.48458959       0.75000002       0.19215590 </v>
    <v>       0.51541041       0.25000000       0.80784408 </v>
    <v>       0.16075613       0.75000002       0.90641330 </v>
    <v>       0.83924387       0.25000000       0.09358668 </v>
    <v>       0.33924387       0.25000000       0.40641338 </v>
    <v>       0.66075613       0.75000002       0.59358666 </v>
    <v>       0.19334513       0.07094307       0.14627222 </v>
    <v>       0.80665487       0.92905692       0.85372776 </v>
    <v>       0.30665487       0.92905692       0.64627224 </v>
    <v>       0.69334513       0.07094307       0.35372776 </v>
    <v>       0.80665487       0.57094308       0.85372776 </v>
    <v>       0.19334513       0.42905692       0.14627222 </v>
    <v>       0.69334513       0.42905692       0.35372776 </v>
    <v>       0.30665487       0.57094308       0.64627224 </v>
    <v>       0.08136520       0.75000002       0.59089221 </v>
    <v>       0.91863478       0.25000000       0.40910779 </v>
    <v>       0.41863481       0.25000000       0.09089215 </v>
    <v>       0.58136522       0.75000002       0.90910783 </v>
    <v>       0.19643538       0.25000000       0.96482951 </v>
    <v>       0.80356461       0.75000002       0.03517051 </v>
    <v>       0.30356461       0.75000002       0.46482943 </v>
    <v>       0.69643539       0.25000000       0.53517049 </v>
   </varray>
  </structure>
  <varray name="forces" >
   <v>      -0.04987112      -0.00000000       0.08348011 </v>
   <v>       0.04987112       0.00000000      -0.08348011 </v>
   <v>       0.04987112       0.00000000       0.08348011 </v>
   <v>      -0.04987112      -0.00000000      -0.08348011 </v>
   <v>       0.07597383      -0.00000000      -0.03419272 </v>
   <v>      -0.07597383       0.00000000       0.03419272 </v>
   <v>      -0.07597383       0.00000000      -0.03419272 </v>
   <v>       0.07597383      -0.00000000       0.03419272 </v>
   <v>      -0.08350226      -0.01184268      -0.04302302 </v>
   <v>       0.08350226       0.01184268       0.04302302 </v>
   <v>       0.08350226       0.01184268      -0.04302302 </v>
   <v>      -0.08350226      -0.01184268       0.04302302 </v>
   <v>       0.08350226      -0.01184268       0.04302302 </v>
   <v>      -0.08350226       0.01184268      -0.04302302 </v>
   <v>      -0.08350226       0.01184268       0.04302302 </v>
   <v>       0.08350226      -0.01184268      -0.04302302 </v>
   <v>      -0.08515597       0.00000000      -0.01588210 </v>
   <v>       0.08515597      -0.00000000       0.01588210 </v>
   <v>       0.08515597       0.00000000      -0.01588210 </v>
   <v>      -0.08515597      -0.00000000       0.01588210 </v>
   <v>       0.01452598      -0.00000000       0.08172940 </v>
   <v>      -0.01452598       0.00000000      -0.08172940 </v>
   <v>      -0.01452598       0.00000000       0.08172940 </v>
   <v>       0.01452598      -0.00000000      -0.08172940 </v>
  </varray>
  <varray name="stress" >
   <v>     -21.70974549      -0.00000000       0.00000000 </v>
   <v>      -0.00000000      -2.14884925       0.00000000 </v>
   <v>       0.00000000       0.00000000       7.11101056 </v>
  </varray>
  <energy>
   <i name="e_fr_energy">    -98.62866409 </i>
   <i name="e_wo_entrp">    -98.62866409 </i>
   <i name="e_0_energy">     -0.00000000 </i>
  </energy>
  <time name="totalsc">   83.76   86.41</time>
  <eigenvalues>
   <array>
    <dimension dim="1">band</dimension>
    <dimension dim="2">kpoint</dimension>
    <dimension dim="3">spin</dimension>
    <field>eigene</field>
    <field>occ</field>
    <set>
     <set comment="spin 1">
      <set comment="kpoint 1">
       <r>  -23.9602    1.0000 </r>
       <r>  -23.9546    1.0000 </r>
       <r>  -23.9510    1.0000 </r>
       <r>  -23.9509    1.0000 </r>
       <r>  -23.8754    1.0000 </r>
       <r>  -23.8722    1.0000 </r>
       <r>  -23.8672    1.0000 </r>
       <r>  -23.8651    1.0000 </r>
       <r>   -9.5383    1.0000 </r>
       <r>   -9.5167    1.0000 </r>
       <r>   -9.4742    1.0000 </r>
       <r>   -9.4668    1.0000 </r>
       <r>   -9.4223    1.0000 </r>
       <r>   -9.3791    1.0000 </r>
       <r>   -9.3758    1.0000 </r>
       <r>   -9.3573    1.0000 </r>
       <r>   -9.3531    1.0000 </r>
       <r>   -9.3251    1.0000 </r>
       <r>   -9.3183    1.0000 </r>
       <r>   -9.3141    1.0000 </r>
       <r>   -9.2690    1.0000 </r>
       <r>   -9.2341    1.0000 </r>
       <r>   -9.1996    1.0000 </r>
       <r>   -9.1985    1.0000 </r>
       <r>   -9.1940    1.0000 </r>
       <r>   -9.1689    1.0000 </r>
       <r>   -9.1562    1.0000 </r>
       <r>   -9.1554    1.0000 </r>
       <r>   -9.1392    1.0000 </r>
       <r>   -9.1375    1.0000 </r>
       <r>   -9.1253    1.0000 </r>
       <r>   -9.1144    1.0000 </r>
       <r>   -7.2098    1.0000 </r>
       <r>   -6.9468    1.0000 </r>
       <r>   -6.9063    1.0000 </r>
       <r>   -6.8828    1.0000 </r>
       <r>   -2.5841    1.0000 </r>
       <r>   -2.5174    1.0000 </r>
       <r>   -2.2560    1.0000 </r>
       <r>   -2.2353    1.0000 </r>
       <r>   -2.1480    1.0000 </r>
       <r>   -2.1278    1.0000 </r>
       <r>   -2.1251    1.0000 </r>
       <r>   -2.0857    1.0000 </r>
       <r>   -2.0272    1.0000 </r>
       <r>   -1.9769    1.0000 </r>
       <r>   -1.9274    1.0000 </r>
       <r>   -1.7542    1.0000 </r>
       <r>    0.0106    1.0000 </r>
       <r>    1.0398    1.0000 </r>
       <r>    1.2296    1.0000 </r>
       <r>    1.2713    1.0000 </r>
       <r>    1.3257    1.0000 </r>
       <r>    1.5429    1.0000 </r>
       <r>    1.7721    1.0000 </r>
       <r>    1.8362    1.0000 </r>
       <r>    1.8443    1.0000 </r>
       <r>    1.9030    1.0000 </r>
       <r>    1.9127    1.0000 </r>
       <r>    2.1427    1.0000 </r>
       <r>    2.1553    1.0000 </r>
       <r>    2.1620    1.0000 </r>
       <r>    2.3064    1.0000 </r>
       <r>    2.4251    1.0000 </r>
       <r>    2.4861    1.0000 </r>
       <r>    2.5566    1.0000 </r>
       <r>    2.5773    1.0000 </r>
       <r>    2.6096    1.0000 </r>
       <r>    2.9532    1.0000 </r>
       <r>    3.1842    1.0000 </r>
       <r>    3.2345    1.0000 </r>
       <r>    3.3572    1.0000 </r>
       <r>    4.5442    0.0000 </r>
       <r>    4.5458    0.0000 </r>
       <r>    4.8842    0.0000 </r>
       <r>    5.0650    0.0000 </r>
       <r>    5.0741    0.0000 </r>
       <r>    5.4363    0.0000 </r>
       <r>    5.6312    0.0000 </r>
       <r>    5.8212    0.0000 </r>
       <r>    5.8588    0.0000 </r>
       <r>    6.0960    0.0000 </r>
       <r>    6.1434    0.0000 </r>
       <r>    6.1489    0.0000 </r>
       <r>    6.1649    0.0000 </r>
       <r>    6.2530    0.0000 </r>
       <r>    6.2836    0.0000 </r>
       <r>    6.6212    0.0000 </r>
      </set>
      <set comment="kpoint 2">
       <r>  -23.9602    1.0000 </r>
       <r>  -23.9546    1.0000 </r>
       <r>  -23.9510    1.0000 </r>
       <r>  -23.9509    1.0000 </r>
       <r>  -23.8754    1.0000 </r>
       <r>  -23.8722    1.0000 </r>
       <r>  -23.8672    1.0000 </r>
       <r>  -23.8651    1.0000 </r>
       <r>   -9.5379    1.0000 </r>
       <r>   -9.5169    1.0000 </r>
       <r>   -9.4797    1.0000 </r>
       <r>   -9.4610    1.0000 </r>
       <r>   -9.4223    1.0000 </r>
       <r>   -9.3824    1.0000 </r>
       <r>   -9.3771    1.0000 </r>
       <r>   -9.3579    1.0000 </r>
       <r>   -9.3500    1.0000 </r>
       <r>   -9.3310    1.0000 </r>
       <r>   -9.3236    1.0000 </r>
       <r>   -9.3016    1.0000 </r>
       <r>   -9.2696    1.0000 </r>
       <r>   -9.2347    1.0000 </r>
       <r>   -9.1996    1.0000 </r>
       <r>   -9.1986    1.0000 </r>
       <r>   -9.1935    1.0000 </r>
       <r>   -9.1694    1.0000 </r>
       <r>   -9.1557    1.0000 </r>
       <r>   -9.1552    1.0000 </r>
       <r>   -9.1392    1.0000 </r>
       <r>   -9.1380    1.0000 </r>
       <r>   -9.1253    1.0000 </r>
       <r>   -9.1144    1.0000 </r>
       <r>   -7.2083    1.0000 </r>
       <r>   -6.9464    1.0000 </r>
       <r>   -6.9063    1.0000 </r>
       <r>   -6.8828    1.0000 </r>
       <r>   -2.5824    1.0000 </r>
       <r>   -2.5160    1.0000 </r>
       <r>   -2.2555    1.0000 </r>
       <r>   -2.2343    1.0000 </r>
       <r>   -2.1602    1.0000 </r>
       <r>   -2.1244    1.0000 </r>
       <r>   -2.1145    1.0000 </r>
       <r>   -2.0851    1.0000 </r>
       <r>   -2.0318    1.0000 </r>
       <r>   -1.9766    1.0000 </r>
       <r>   -1.9314    1.0000 </r>
       <r>   -1.7541    1.0000 </r>
       <r>    0.0179    1.0000 </r>
       <r>    1.0423    1.0000 </r>
       <r>    1.2307    1.0000 </r>
       <r>    1.2727    1.0000 </r>
       <r>    1.3261    1.0000 </r>
       <r>    1.5421    1.0000 </r>
       <r>    1.7419    1.0000 </r>
       <r>    1.8450    1.0000 </r>
       <r>    1.8537    1.0000 </r>
       <r>    1.9121    1.0000 </r>
       <r>    1.9152    1.0000 </r>
       <r>    2.1440    1.0000 </r>
       <r>    2.1529    1.0000 </r>
       <r>    2.1626    1.0000 </r>
       <r>    2.3068    1.0000 </r>
       <r>    2.4274    1.0000 </r>
       <r>    2.4842    1.0000 </r>
       <r>    2.5552    1.0000 </r>
       <r>    2.5582    1.0000 </r>
       <r>    2.6279    1.0000 </r>
       <r>    2.9509    1.0000 </r>
       <r>    3.1490    1.0000 </r>
       <r>    3.2672    1.0000 </r>
       <r>    3.3581    1.0000 </r>
       <r>    4.5376    0.0000 </r>
       <r>    4.5432    0.0000 </r>
       <r>    4.8866    0.0000 </r>
       <r>    5.0693    0.0000 </r>
       <r>    5.0800    0.0000 </r>
       <r>    5.4353    0.0000 </r>
       <r>    5.6414    0.0000 </r>
       <r>    5.7571    0.0000 </r>
       <r>    5.9268    0.0000 </r>
       <r>    6.0837    0.0000 </r>
       <r>    6.0929    0.0000 </r>
       <r>    6.1289    0.0000 </r>
       <r>    6.2227    0.0000 </r>
       <r>    6.2513    0.0000 </r>
       <r>    6.2763    0.0000 </r>
       <r>    6.5688    0.0000 </r>
      </set>
      <set comment="kpoint 3">
       <r>  -23.9601    1.0000 </r>
       <r>  -23.9546    1.0000 </r>
       <r>  -23.9510    1.0000 </r>
       <r>  -23.9509    1.0000 </r>
       <r>  -23.8754    1.0000 </r>
       <r>  -23.8723    1.0000 </r>
       <r>  -23.8672    1.0000 </r>
       <r>  -23.8652    1.0000 </r>
       <r>   -9.5369    1.0000 </r>
       <r>   -9.5174    1.0000 </r>
       <r>   -9.4874    1.0000 </r>
       <r>   -9.4524    1.0000 </r>
       <r>   -9.4223    1.0000 </r>
       <r>   -9.3897    1.0000 </r>
       <r>   -9.3806    1.0000 </r>
       <r>   -9.3594    1.0000 </r>
       <r>   -9.3456    1.0000 </r>
       <r>   -9.3433    1.0000 </r>
       <r>   -9.3194    1.0000 </r>
       <r>   -9.2876    1.0000 </r>
       <r>   -9.2713    1.0000 </r>
       <r>   -9.2364    1.0000 </r>
       <r>   -9.1997    1.0000 </r>
       <r>   -9.1990    1.0000 </r>
       <r>   -9.1921    1.0000 </r>
       <r>   -9.1708    1.0000 </r>
       <r>   -9.1545    1.0000 </r>
       <r>   -9.1542    1.0000 </r>
       <r>   -9.1395    1.0000 </r>
       <r>   -9.1392    1.0000 </r>
       <r>   -9.1254    1.0000 </r>
       <r>   -9.1142    1.0000 </r>
       <r>   -7.2037    1.0000 </r>
       <r>   -6.9454    1.0000 </r>
       <r>   -6.9061    1.0000 </r>
       <r>   -6.8830    1.0000 </r>
       <r>   -2.5773    1.0000 </r>
       <r>   -2.5119    1.0000 </r>
       <r>   -2.2540    1.0000 </r>
       <r>   -2.2312    1.0000 </r>
       <r>   -2.1774    1.0000 </r>
       <r>   -2.1225    1.0000 </r>
       <r>   -2.0937    1.0000 </r>
       <r>   -2.0835    1.0000 </r>
       <r>   -2.0452    1.0000 </r>
       <r>   -1.9759    1.0000 </r>
       <r>   -1.9428    1.0000 </r>
       <r>   -1.7540    1.0000 </r>
       <r>    0.0395    1.0000 </r>
       <r>    1.0495    1.0000 </r>
       <r>    1.2341    1.0000 </r>
       <r>    1.2771    1.0000 </r>
       <r>    1.3272    1.0000 </r>
       <r>    1.5396    1.0000 </r>
       <r>    1.6895    1.0000 </r>
       <r>    1.8471    1.0000 </r>
       <r>    1.8646    1.0000 </r>
       <r>    1.9223    1.0000 </r>
       <r>    1.9428    1.0000 </r>
       <r>    2.1457    1.0000 </r>
       <r>    2.1478    1.0000 </r>
       <r>    2.1647    1.0000 </r>
       <r>    2.3081    1.0000 </r>
       <r>    2.4339    1.0000 </r>
       <r>    2.4790    1.0000 </r>
       <r>    2.5197    1.0000 </r>
       <r>    2.5629    1.0000 </r>
       <r>    2.6513    1.0000 </r>
       <r>    2.9451    1.0000 </r>
       <r>    3.0950    1.0000 </r>
       <r>    3.3137    1.0000 </r>
       <r>    3.3603    1.0000 </r>
       <r>    4.5147    0.0000 </r>
       <r>    4.5403    0.0000 </r>
       <r>    4.8938    0.0000 </r>
       <r>    5.0812    0.0000 </r>
       <r>    5.0967    0.0000 </r>
       <r>    5.4316    0.0000 </r>
       <r>    5.6708    0.0000 </r>
       <r>    5.6841    0.0000 </r>
       <r>    6.0040    0.0000 </r>
       <r>    6.0080    0.0000 </r>
       <r>    6.0845    0.0000 </r>
       <r>    6.0922    0.0000 </r>
       <r>    6.2475    0.0000 </r>
       <r>    6.2699    0.0000 </r>
       <r>    6.2805    0.0000 </r>
       <r>    6.5138    0.0000 </r>
      </set>
      <set comment="kpoint 4">
       <r>  -23.9600    1.0000 </r>
       <r>  -23.9545    1.0000 </r>
       <r>  -23.9510    1.0000 </r>
       <r>  -23.9509    1.0000 </r>
       <r>  -23.8755    1.0000 </r>
       <r>  -23.8724    1.0000 </r>
       <r>  -23.8672    1.0000 </r>
       <r>  -23.8652    1.0000 </r>
       <r>   -9.5353    1.0000 </r>
       <r>   -9.5182    1.0000 </r>
       <r>   -9.4949    1.0000 </r>
       <r>   -9.4436    1.0000 </r>
       <r>   -9.4223    1.0000 </r>
       <r>   -9.3983    1.0000 </r>
       <r>   -9.3855    1.0000 </r>
       <r>   -9.3621    1.0000 </r>
       <r>   -9.3601    1.0000 </r>
       <r>   -9.3355    1.0000 </r>
       <r>   -9.3134    1.0000 </r>
       <r>   -9.2740    1.0000 </r>
       <r>   -9.2739    1.0000 </r>
       <r>   -9.2391    1.0000 </r>
       <r>   -9.1998    1.0000 </r>
       <r>   -9.1994    1.0000 </r>
       <r>   -9.1900    1.0000 </r>
       <r>   -9.1733    1.0000 </r>
       <r>   -9.1534    1.0000 </r>
       <r>   -9.1518    1.0000 </r>
       <r>   -9.1417    1.0000 </r>
       <r>   -9.1392    1.0000 </r>
       <r>   -9.1255    1.0000 </r>
       <r>   -9.1138    1.0000 </r>
       <r>   -7.1962    1.0000 </r>
       <r>   -6.9437    1.0000 </r>
       <r>   -6.9059    1.0000 </r>
       <r>   -6.8833    1.0000 </r>
       <r>   -2.5691    1.0000 </r>
       <r>   -2.5050    1.0000 </r>
       <r>   -2.2515    1.0000 </r>
       <r>   -2.2262    1.0000 </r>
       <r>   -2.1935    1.0000 </r>
       <r>   -2.1193    1.0000 </r>
       <r>   -2.0809    1.0000 </r>
       <r>   -2.0719    1.0000 </r>
       <r>   -2.0663    1.0000 </r>
       <r>   -1.9750    1.0000 </r>
       <r>   -1.9608    1.0000 </r>
       <r>   -1.7543    1.0000 </r>
       <r>    0.0743    1.0000 </r>
       <r>    1.0607    1.0000 </r>
       <r>    1.2397    1.0000 </r>
       <r>    1.2845    1.0000 </r>
       <r>    1.3291    1.0000 </r>
       <r>    1.5358    1.0000 </r>
       <r>    1.6333    1.0000 </r>
       <r>    1.8505    1.0000 </r>
       <r>    1.8632    1.0000 </r>
       <r>    1.9332    1.0000 </r>
       <r>    1.9830    1.0000 </r>
       <r>    2.1341    1.0000 </r>
       <r>    2.1541    1.0000 </r>
       <r>    2.1687    1.0000 </r>
       <r>    2.3096    1.0000 </r>
       <r>    2.4446    1.0000 </r>
       <r>    2.4716    1.0000 </r>
       <r>    2.4801    1.0000 </r>
       <r>    2.5704    1.0000 </r>
       <r>    2.6683    1.0000 </r>
       <r>    2.9386    1.0000 </r>
       <r>    3.0381    1.0000 </r>
       <r>    3.3588    1.0000 </r>
       <r>    3.3634    1.0000 </r>
       <r>    4.4813    0.0000 </r>
       <r>    4.5357    0.0000 </r>
       <r>    4.9061    0.0000 </r>
       <r>    5.0988    0.0000 </r>
       <r>    5.1224    0.0000 </r>
       <r>    5.4235    0.0000 </r>
       <r>    5.6198    0.0000 </r>
       <r>    5.7154    0.0000 </r>
       <r>    5.9164    0.0000 </r>
       <r>    6.0113    0.0000 </r>
       <r>    6.0683    0.0000 </r>
       <r>    6.1127    0.0000 </r>
       <r>    6.2455    0.0000 </r>
       <r>    6.2504    0.0000 </r>
       <r>    6.3502    0.0000 </r>
       <r>    6.4474    0.0000 </r>
      </set>
      <set comment="kpoint 5">
       <r>  -23.9598    1.0000 </r>
       <r>  -23.9545    1.0000 </r>
       <r>  -23.9510    1.0000 </r>
       <r>  -23.9509    1.0000 </r>
       <r>  -23.8755    1.0000 </r>
       <r>  -23.8725    1.0000 </r>
       <r>  -23.8672    1.0000 </r>
       <r>  -23.8652    1.0000 </r>
       <r>   -9.5331    1.0000 </r>
       <r>   -9.5193    1.0000 </r>
       <r>   -9.5018    1.0000 </r>
       <r>   -9.4348    1.0000 </r>
       <r>   -9.4223    1.0000 </r>
       <r>   -9.4073    1.0000 </r>
       <r>   -9.3910    1.0000 </r>
       <r>   -9.3749    1.0000 </r>
       <r>   -9.3652    1.0000 </r>
       <r>   -9.3277    1.0000 </r>
       <r>   -9.3065    1.0000 </r>
       <r>   -9.2774    1.0000 </r>
       <r>   -9.2612    1.0000 </r>
       <r>   -9.2424    1.0000 </r>
       <r>   -9.2000    1.0000 </r>
       <r>   -9.1998    1.0000 </r>
       <r>   -9.1873    1.0000 </r>
       <r>   -9.1770    1.0000 </r>
       <r>   -9.1519    1.0000 </r>
       <r>   -9.1487    1.0000 </r>
       <r>   -9.1442    1.0000 </r>
       <r>   -9.1390    1.0000 </r>
       <r>   -9.1259    1.0000 </r>
       <r>   -9.1133    1.0000 </r>
       <r>   -7.1860    1.0000 </r>
       <r>   -6.9414    1.0000 </r>
       <r>   -6.9055    1.0000 </r>
       <r>   -6.8837    1.0000 </r>
       <r>   -2.5578    1.0000 </r>
       <r>   -2.4956    1.0000 </r>
       <r>   -2.2479    1.0000 </r>
       <r>   -2.2195    1.0000 </r>
       <r>   -2.2078    1.0000 </r>
       <r>   -2.1151    1.0000 </r>
       <r>   -2.0936    1.0000 </r>
       <r>   -2.0775    1.0000 </r>
       <r>   -2.0498    1.0000 </r>
       <r>   -1.9842    1.0000 </r>
       <r>   -1.9741    1.0000 </r>
       <r>   -1.7556    1.0000 </r>
       <r>    0.1210    1.0000 </r>
       <r>    1.0748    1.0000 </r>
       <r>    1.2474    1.0000 </r>
       <r>    1.2952    1.0000 </r>
       <r>    1.3317    1.0000 </r>
       <r>    1.5311    1.0000 </r>
       <r>    1.5772    1.0000 </r>
       <r>    1.8550    1.0000 </r>
       <r>    1.8571    1.0000 </r>
       <r>    1.9464    1.0000 </r>
       <r>    2.0224    1.0000 </r>
       <r>    2.1184    1.0000 </r>
       <r>    2.1629    1.0000 </r>
       <r>    2.1750    1.0000 </r>
       <r>    2.3108    1.0000 </r>
       <r>    2.4371    1.0000 </r>
       <r>    2.4587    1.0000 </r>
       <r>    2.4641    1.0000 </r>
       <r>    2.5800    1.0000 </r>
       <r>    2.6758    1.0000 </r>
       <r>    2.9345    1.0000 </r>
       <r>    2.9804    1.0000 </r>
       <r>    3.3662    1.0000 </r>
       <r>    3.4009    1.0000 </r>
       <r>    4.4429    0.0000 </r>
       <r>    4.5295    0.0000 </r>
       <r>    4.9238    0.0000 </r>
       <r>    5.1185    0.0000 </r>
       <r>    5.1541    0.0000 </r>
       <r>    5.4083    0.0000 </r>
       <r>    5.5671    0.0000 </r>
       <r>    5.7708    0.0000 </r>
       <r>    5.8209    0.0000 </r>
       <r>    5.9419    0.0000 </r>
       <r>    6.0449    0.0000 </r>
       <r>    6.1901    0.0000 </r>
       <r>    6.2275    0.0000 </r>
       <r>    6.2325    0.0000 </r>
       <r>    6.3090    0.0000 </r>
       <r>    6.4040    0.0000 </r>
      </set>
      <set comment="kpoint 6">
       <r>  -23.9595    1.0000 </r>
       <r>  -23.9544    1.0000 </r>
       <r>  -23.9510    1.0000 </r>
       <r>  -23.9509    1.0000 </r>
       <r>  -23.8756    1.0000 </r>
       <r>  -23.8727    1.0000 </r>
       <r>  -23.8672    1.0000 </r>
       <r>  -23.8653    1.0000 </r>
       <r>   -9.5304    1.0000 </r>
       <r>   -9.5207    1.0000 </r>
       <r>   -9.5080    1.0000 </r>
       <r>   -9.4262    1.0000 </r>
       <r>   -9.4224    1.0000 </r>
       <r>   -9.4163    1.0000 </r>
       <r>   -9.3968    1.0000 </r>
       <r>   -9.3891    1.0000 </r>
       <r>   -9.3690    1.0000 </r>
       <r>   -9.3203    1.0000 </r>
       <r>   -9.2992    1.0000 </r>
       <r>   -9.2817    1.0000 </r>
       <r>   -9.2494    1.0000 </r>
       <r>   -9.2463    1.0000 </r>
       <r>   -9.2002    1.0000 </r>
       <r>   -9.1999    1.0000 </r>
       <r>   -9.1843    1.0000 </r>
       <r>   -9.1820    1.0000 </r>
       <r>   -9.1499    1.0000 </r>
       <r>   -9.1469    1.0000 </r>
       <r>   -9.1452    1.0000 </r>
       <r>   -9.1388    1.0000 </r>
       <r>   -9.1265    1.0000 </r>
       <r>   -9.1126    1.0000 </r>
       <r>   -7.1733    1.0000 </r>
       <r>   -6.9387    1.0000 </r>
       <r>   -6.9051    1.0000 </r>
       <r>   -6.8841    1.0000 </r>
       <r>   -2.5439    1.0000 </r>
       <r>   -2.4838    1.0000 </r>
       <r>   -2.2433    1.0000 </r>
       <r>   -2.2197    1.0000 </r>
       <r>   -2.2119    1.0000 </r>
       <r>   -2.1252    1.0000 </r>
       <r>   -2.1102    1.0000 </r>
       <r>   -2.0734    1.0000 </r>
       <r>   -2.0282    1.0000 </r>
       <r>   -2.0118    1.0000 </r>
       <r>   -1.9730    1.0000 </r>
       <r>   -1.7581    1.0000 </r>
       <r>    0.1777    1.0000 </r>
       <r>    1.0903    1.0000 </r>
       <r>    1.2571    1.0000 </r>
       <r>    1.3091    1.0000 </r>
       <r>    1.3345    1.0000 </r>
       <r>    1.5233    1.0000 </r>
       <r>    1.5258    1.0000 </r>
       <r>    1.8488    1.0000 </r>
       <r>    1.8602    1.0000 </r>
       <r>    1.9604    1.0000 </r>
       <r>    2.0580    1.0000 </r>
       <r>    2.0990    1.0000 </r>
       <r>    2.1743    1.0000 </r>
       <r>    2.1839    1.0000 </r>
       <r>    2.3107    1.0000 </r>
       <r>    2.3904    1.0000 </r>
       <r>    2.4591    1.0000 </r>
       <r>    2.4755    1.0000 </r>
       <r>    2.5912    1.0000 </r>
       <r>    2.6735    1.0000 </r>
       <r>    2.9234    1.0000 </r>
       <r>    2.9344    1.0000 </r>
       <r>    3.3678    1.0000 </r>
       <r>    3.4396    1.0000 </r>
       <r>    4.4047    0.0000 </r>
       <r>    4.5217    0.0000 </r>
       <r>    4.9475    0.0000 </r>
       <r>    5.1352    0.0000 </r>
       <r>    5.1887    0.0000 </r>
       <r>    5.3824    0.0000 </r>
       <r>    5.5285    0.0000 </r>
       <r>    5.7200    0.0000 </r>
       <r>    5.8323    0.0000 </r>
       <r>    5.8668    0.0000 </r>
       <r>    6.0149    0.0000 </r>
       <r>    6.2003    0.0000 </r>
       <r>    6.2265    0.0000 </r>
       <r>    6.2534    0.0000 </r>
       <r>    6.2697    0.0000 </r>
       <r>    6.4087    0.0000 </r>
      </set>
      <set comment="kpoint 7">
       <r>  -23.9592    1.0000 </r>
       <r>  -23.9543    1.0000 </r>
       <r>  -23.9510    1.0000 </r>
       <r>  -23.9510    1.0000 </r>
       <r>  -23.8757    1.0000 </r>
       <r>  -23.8729    1.0000 </r>
       <r>  -23.8672    1.0000 </r>
       <r>  -23.8653    1.0000 </r>
       <r>   -9.5273    1.0000 </r>
       <r>   -9.5223    1.0000 </r>
       <r>   -9.5135    1.0000 </r>
       <r>   -9.4251    1.0000 </r>
       <r>   -9.4226    1.0000 </r>
       <r>   -9.4179    1.0000 </r>
       <r>   -9.4028    1.0000 </r>
       <r>   -9.4025    1.0000 </r>
       <r>   -9.3733    1.0000 </r>
       <r>   -9.3135    1.0000 </r>
       <r>   -9.2917    1.0000 </r>
       <r>   -9.2863    1.0000 </r>
       <r>   -9.2505    1.0000 </r>
       <r>   -9.2390    1.0000 </r>
       <r>   -9.2005    1.0000 </r>
       <r>   -9.1993    1.0000 </r>
       <r>   -9.1881    1.0000 </r>
       <r>   -9.1810    1.0000 </r>
       <r>   -9.1494    1.0000 </r>
       <r>   -9.1476    1.0000 </r>
       <r>   -9.1415    1.0000 </r>
       <r>   -9.1384    1.0000 </r>
       <r>   -9.1274    1.0000 </r>
       <r>   -9.1119    1.0000 </r>
       <r>   -7.1585    1.0000 </r>
       <r>   -6.9356    1.0000 </r>
       <r>   -6.9045    1.0000 </r>
       <r>   -6.8847    1.0000 </r>
       <r>   -2.5278    1.0000 </r>
       <r>   -2.4697    1.0000 </r>
       <r>   -2.2377    1.0000 </r>
       <r>   -2.2292    1.0000 </r>
       <r>   -2.2058    1.0000 </r>
       <r>   -2.1574    1.0000 </r>
       <r>   -2.1048    1.0000 </r>
       <r>   -2.0688    1.0000 </r>
       <r>   -2.0423    1.0000 </r>
       <r>   -2.0074    1.0000 </r>
       <r>   -1.9719    1.0000 </r>
       <r>   -1.7622    1.0000 </r>
       <r>    0.2426    1.0000 </r>
       <r>    1.1059    1.0000 </r>
       <r>    1.2686    1.0000 </r>
       <r>    1.3262    1.0000 </r>
       <r>    1.3368    1.0000 </r>
       <r>    1.4737    1.0000 </r>
       <r>    1.5206    1.0000 </r>
       <r>    1.8392    1.0000 </r>
       <r>    1.8657    1.0000 </r>
       <r>    1.9740    1.0000 </r>
       <r>    2.0763    1.0000 </r>
       <r>    2.0891    1.0000 </r>
       <r>    2.1879    1.0000 </r>
       <r>    2.1943    1.0000 </r>
       <r>    2.3085    1.0000 </r>
       <r>    2.3402    1.0000 </r>
       <r>    2.4601    1.0000 </r>
       <r>    2.4938    1.0000 </r>
       <r>    2.6032    1.0000 </r>
       <r>    2.6635    1.0000 </r>
       <r>    2.8683    1.0000 </r>
       <r>    2.9372    1.0000 </r>
       <r>    3.3676    1.0000 </r>
       <r>    3.4745    1.0000 </r>
       <r>    4.3714    0.0000 </r>
       <r>    4.5119    0.0000 </r>
       <r>    4.9775    0.0000 </r>
       <r>    5.1420    0.0000 </r>
       <r>    5.2226    0.0000 </r>
       <r>    5.3416    0.0000 </r>
       <r>    5.5062    0.0000 </r>
       <r>    5.6194    0.0000 </r>
       <r>    5.7992    0.0000 </r>
       <r>    5.8964    0.0000 </r>
       <r>    5.9770    0.0000 </r>
       <r>    6.1689    0.0000 </r>
       <r>    6.1947    0.0000 </r>
       <r>    6.2324    0.0000 </r>
       <r>    6.3462    0.0000 </r>
       <r>    6.4764    0.0000 </r>
      </set>
      <set comment="kpoint 8">
       <r>  -23.9588    1.0000 </r>
       <r>  -23.9541    1.0000 </r>
       <r>  -23.9511    1.0000 </r>
       <r>  -23.9510    1.0000 </r>
       <r>  -23.8758    1.0000 </r>
       <r>  -23.8731    1.0000 </r>
       <r>  -23.8672    1.0000 </r>
       <r>  -23.8654    1.0000 </r>
       <r>   -9.5241    1.0000 </r>
       <r>   -9.5239    1.0000 </r>
       <r>   -9.5181    1.0000 </r>
       <r>   -9.4335    1.0000 </r>
       <r>   -9.4230    1.0000 </r>
       <r>   -9.4160    1.0000 </r>
       <r>   -9.4103    1.0000 </r>
       <r>   -9.4080    1.0000 </r>
       <r>   -9.3776    1.0000 </r>
       <r>   -9.3074    1.0000 </r>
       <r>   -9.2912    1.0000 </r>
       <r>   -9.2845    1.0000 </r>
       <r>   -9.2549    1.0000 </r>
       <r>   -9.2308    1.0000 </r>
       <r>   -9.2008    1.0000 </r>
       <r>   -9.1974    1.0000 </r>
       <r>   -9.1949    1.0000 </r>
       <r>   -9.1776    1.0000 </r>
       <r>   -9.1518    1.0000 </r>
       <r>   -9.1450    1.0000 </r>
       <r>   -9.1379    1.0000 </r>
       <r>   -9.1376    1.0000 </r>
       <r>   -9.1286    1.0000 </r>
       <r>   -9.1112    1.0000 </r>
       <r>   -7.1419    1.0000 </r>
       <r>   -6.9322    1.0000 </r>
       <r>   -6.9040    1.0000 </r>
       <r>   -6.8854    1.0000 </r>
       <r>   -2.5101    1.0000 </r>
       <r>   -2.4537    1.0000 </r>
       <r>   -2.2360    1.0000 </r>
       <r>   -2.2312    1.0000 </r>
       <r>   -2.2160    1.0000 </r>
       <r>   -2.1743    1.0000 </r>
       <r>   -2.0993    1.0000 </r>
       <r>   -2.0743    1.0000 </r>
       <r>   -2.0638    1.0000 </r>
       <r>   -1.9879    1.0000 </r>
       <r>   -1.9707    1.0000 </r>
       <r>   -1.7677    1.0000 </r>
       <r>    0.3134    1.0000 </r>
       <r>    1.1202    1.0000 </r>
       <r>    1.2816    1.0000 </r>
       <r>    1.3358    1.0000 </r>
       <r>    1.3456    1.0000 </r>
       <r>    1.4325    1.0000 </r>
       <r>    1.5160    1.0000 </r>
       <r>    1.8289    1.0000 </r>
       <r>    1.8704    1.0000 </r>
       <r>    1.9870    1.0000 </r>
       <r>    2.0505    1.0000 </r>
       <r>    2.1156    1.0000 </r>
       <r>    2.2031    1.0000 </r>
       <r>    2.2041    1.0000 </r>
       <r>    2.2879    1.0000 </r>
       <r>    2.3042    1.0000 </r>
       <r>    2.4707    1.0000 </r>
       <r>    2.5125    1.0000 </r>
       <r>    2.6154    1.0000 </r>
       <r>    2.6490    1.0000 </r>
       <r>    2.8166    1.0000 </r>
       <r>    2.9400    1.0000 </r>
       <r>    3.3650    1.0000 </r>
       <r>    3.5052    1.0000 </r>
       <r>    4.3470    0.0000 </r>
       <r>    4.4999    0.0000 </r>
       <r>    5.0142    0.0000 </r>
       <r>    5.1315    0.0000 </r>
       <r>    5.2530    0.0000 </r>
       <r>    5.2823    0.0000 </r>
       <r>    5.5012    0.0000 </r>
       <r>    5.5256    0.0000 </r>
       <r>    5.7481    0.0000 </r>
       <r>    5.9290    0.0000 </r>
       <r>    5.9554    0.0000 </r>
       <r>    6.1332    0.0000 </r>
       <r>    6.1352    0.0000 </r>
       <r>    6.1859    0.0000 </r>
       <r>    6.3784    0.0000 </r>
       <r>    6.3935    0.0000 </r>
      </set>
      <set comment="kpoint 9">
       <r>  -23.9584    1.0000 </r>
       <r>  -23.9540    1.0000 </r>
       <r>  -23.9511    1.0000 </r>
       <r>  -23.9510    1.0000 </r>
       <r>  -23.8759    1.0000 </r>
       <r>  -23.8733    1.0000 </r>
       <r>  -23.8672    1.0000 </r>
       <r>  -23.8655    1.0000 </r>
       <r>   -9.5260    1.0000 </r>
       <r>   -9.5218    1.0000 </r>
       <r>   -9.5205    1.0000 </r>
       <r>   -9.4414    1.0000 </r>
       <r>   -9.4285    1.0000 </r>
       <r>   -9.4236    1.0000 </r>
       <r>   -9.4135    1.0000 </r>
       <r>   -9.4034    1.0000 </r>
       <r>   -9.3818    1.0000 </r>
       <r>   -9.3024    1.0000 </r>
       <r>   -9.2959    1.0000 </r>
       <r>   -9.2779    1.0000 </r>
       <r>   -9.2591    1.0000 </r>
       <r>   -9.2253    1.0000 </r>
       <r>   -9.2020    1.0000 </r>
       <r>   -9.2012    1.0000 </r>
       <r>   -9.1936    1.0000 </r>
       <r>   -9.1739    1.0000 </r>
       <r>   -9.1540    1.0000 </r>
       <r>   -9.1422    1.0000 </r>
       <r>   -9.1372    1.0000 </r>
       <r>   -9.1338    1.0000 </r>
       <r>   -9.1301    1.0000 </r>
       <r>   -9.1105    1.0000 </r>
       <r>   -7.1239    1.0000 </r>
       <r>   -6.9288    1.0000 </r>
       <r>   -6.9033    1.0000 </r>
       <r>   -6.8861    1.0000 </r>
       <r>   -2.4917    1.0000 </r>
       <r>   -2.4360    1.0000 </r>
       <r>   -2.2489    1.0000 </r>
       <r>   -2.2401    1.0000 </r>
       <r>   -2.2241    1.0000 </r>
       <r>   -2.1685    1.0000 </r>
       <r>   -2.1063    1.0000 </r>
       <r>   -2.0942    1.0000 </r>
       <r>   -2.0582    1.0000 </r>
       <r>   -1.9702    1.0000 </r>
       <r>   -1.9692    1.0000 </r>
       <r>   -1.7747    1.0000 </r>
       <r>    0.3882    1.0000 </r>
       <r>    1.1322    1.0000 </r>
       <r>    1.2959    1.0000 </r>
       <r>    1.3246    1.0000 </r>
       <r>    1.3665    1.0000 </r>
       <r>    1.4074    1.0000 </r>
       <r>    1.5124    1.0000 </r>
       <r>    1.8184    1.0000 </r>
       <r>    1.8728    1.0000 </r>
       <r>    1.9998    1.0000 </r>
       <r>    2.0222    1.0000 </r>
       <r>    2.1378    1.0000 </r>
       <r>    2.2107    1.0000 </r>
       <r>    2.2178    1.0000 </r>
       <r>    2.2354    1.0000 </r>
       <r>    2.2991    1.0000 </r>
       <r>    2.4935    1.0000 </r>
       <r>    2.5305    1.0000 </r>
       <r>    2.6273    1.0000 </r>
       <r>    2.6329    1.0000 </r>
       <r>    2.7693    1.0000 </r>
       <r>    2.9405    1.0000 </r>
       <r>    3.3602    1.0000 </r>
       <r>    3.5314    1.0000 </r>
       <r>    4.3339    0.0000 </r>
       <r>    4.4854    0.0000 </r>
       <r>    5.0575    0.0000 </r>
       <r>    5.0996    0.0000 </r>
       <r>    5.2043    0.0000 </r>
       <r>    5.2775    0.0000 </r>
       <r>    5.4425    0.0000 </r>
       <r>    5.5119    0.0000 </r>
       <r>    5.7207    0.0000 </r>
       <r>    5.8699    0.0000 </r>
       <r>    6.0025    0.0000 </r>
       <r>    6.0782    0.0000 </r>
       <r>    6.1124    0.0000 </r>
       <r>    6.1495    0.0000 </r>
       <r>    6.3245    0.0000 </r>
       <r>    6.4120    0.0000 </r>
      </set>
      <set comment="kpoint 10">
       <r>  -23.9580    1.0000 </r>
       <r>  -23.9538    1.0000 </r>
       <r>  -23.9511    1.0000 </r>
       <r>  -23.9511    1.0000 </r>
       <r>  -23.8760    1.0000 </r>
       <r>  -23.8736    1.0000 </r>
       <r>  -23.8672    1.0000 </r>
       <r>  -23.8656    1.0000 </r>
       <r>   -9.5280    1.0000 </r>
       <r>   -9.5245    1.0000 </r>
       <r>   -9.5172    1.0000 </r>
       <r>   -9.4488    1.0000 </r>
       <r>   -9.4402    1.0000 </r>
       <r>   -9.4244    1.0000 </r>
       <r>   -9.4187    1.0000 </r>
       <r>   -9.3977    1.0000 </r>
       <r>   -9.3855    1.0000 </r>
       <r>   -9.3001    1.0000 </r>
       <r>   -9.2990    1.0000 </r>
       <r>   -9.2723    1.0000 </r>
       <r>   -9.2628    1.0000 </r>
       <r>   -9.2225    1.0000 </r>
       <r>   -9.2086    1.0000 </r>
       <r>   -9.2017    1.0000 </r>
       <r>   -9.1880    1.0000 </r>
       <r>   -9.1703    1.0000 </r>
       <r>   -9.1560    1.0000 </r>
       <r>   -9.1391    1.0000 </r>
       <r>   -9.1363    1.0000 </r>
       <r>   -9.1317    1.0000 </r>
       <r>   -9.1301    1.0000 </r>
       <r>   -9.1101    1.0000 </r>
       <r>   -7.1049    1.0000 </r>
       <r>   -6.9254    1.0000 </r>
       <r>   -6.9027    1.0000 </r>
       <r>   -6.8869    1.0000 </r>
       <r>   -2.4738    1.0000 </r>
       <r>   -2.4170    1.0000 </r>
       <r>   -2.2863    1.0000 </r>
       <r>   -2.2413    1.0000 </r>
       <r>   -2.2168    1.0000 </r>
       <r>   -2.1573    1.0000 </r>
       <r>   -2.1368    1.0000 </r>
       <r>   -2.0898    1.0000 </r>
       <r>   -2.0520    1.0000 </r>
       <r>   -1.9676    1.0000 </r>
       <r>   -1.9545    1.0000 </r>
       <r>   -1.7829    1.0000 </r>
       <r>    0.4648    1.0000 </r>
       <r>    1.1412    1.0000 </r>
       <r>    1.3005    1.0000 </r>
       <r>    1.3108    1.0000 </r>
       <r>    1.3877    1.0000 </r>
       <r>    1.4023    1.0000 </r>
       <r>    1.5102    1.0000 </r>
       <r>    1.8078    1.0000 </r>
       <r>    1.8697    1.0000 </r>
       <r>    1.9928    1.0000 </r>
       <r>    2.0137    1.0000 </r>
       <r>    2.1558    1.0000 </r>
       <r>    2.1861    1.0000 </r>
       <r>    2.2132    1.0000 </r>
       <r>    2.2264    1.0000 </r>
       <r>    2.2989    1.0000 </r>
       <r>    2.5289    1.0000 </r>
       <r>    2.5470    1.0000 </r>
       <r>    2.6169    1.0000 </r>
       <r>    2.6386    1.0000 </r>
       <r>    2.7271    1.0000 </r>
       <r>    2.9370    1.0000 </r>
       <r>    3.3535    1.0000 </r>
       <r>    3.5524    1.0000 </r>
       <r>    4.3339    0.0000 </r>
       <r>    4.4684    0.0000 </r>
       <r>    5.0488    0.0000 </r>
       <r>    5.1071    0.0000 </r>
       <r>    5.1127    0.0000 </r>
       <r>    5.2947    0.0000 </r>
       <r>    5.3684    0.0000 </r>
       <r>    5.5340    0.0000 </r>
       <r>    5.7182    0.0000 </r>
       <r>    5.7983    0.0000 </r>
       <r>    6.0114    0.0000 </r>
       <r>    6.0241    0.0000 </r>
       <r>    6.1007    0.0000 </r>
       <r>    6.1170    0.0000 </r>
       <r>    6.2337    0.0000 </r>
       <r>    6.3597    0.0000 </r>
      </set>
      <set comment="kpoint 11">
       <r>  -23.9576    1.0000 </r>
       <r>  -23.9537    1.0000 </r>
       <r>  -23.9512    1.0000 </r>
       <r>  -23.9511    1.0000 </r>
       <r>  -23.8761    1.0000 </r>
       <r>  -23.8739    1.0000 </r>
       <r>  -23.8671    1.0000 </r>
       <r>  -23.8657    1.0000 </r>
       <r>   -9.5300    1.0000 </r>
       <r>   -9.5262    1.0000 </r>
       <r>   -9.5144    1.0000 </r>
       <r>   -9.4555    1.0000 </r>
       <r>   -9.4507    1.0000 </r>
       <r>   -9.4263    1.0000 </r>
       <r>   -9.4231    1.0000 </r>
       <r>   -9.3933    1.0000 </r>
       <r>   -9.3884    1.0000 </r>
       <r>   -9.3034    1.0000 </r>
       <r>   -9.2978    1.0000 </r>
       <r>   -9.2682    1.0000 </r>
       <r>   -9.2651    1.0000 </r>
       <r>   -9.2217    1.0000 </r>
       <r>   -9.2140    1.0000 </r>
       <r>   -9.2023    1.0000 </r>
       <r>   -9.1814    1.0000 </r>
       <r>   -9.1666    1.0000 </r>
       <r>   -9.1578    1.0000 </r>
       <r>   -9.1360    1.0000 </r>
       <r>   -9.1352    1.0000 </r>
       <r>   -9.1336    1.0000 </r>
       <r>   -9.1267    1.0000 </r>
       <r>   -9.1098    1.0000 </r>
       <r>   -7.0854    1.0000 </r>
       <r>   -6.9224    1.0000 </r>
       <r>   -6.9020    1.0000 </r>
       <r>   -6.8877    1.0000 </r>
       <r>   -2.4579    1.0000 </r>
       <r>   -2.3970    1.0000 </r>
       <r>   -2.3233    1.0000 </r>
       <r>   -2.2396    1.0000 </r>
       <r>   -2.2097    1.0000 </r>
       <r>   -2.1636    1.0000 </r>
       <r>   -2.1451    1.0000 </r>
       <r>   -2.0867    1.0000 </r>
       <r>   -2.0451    1.0000 </r>
       <r>   -1.9657    1.0000 </r>
       <r>   -1.9413    1.0000 </r>
       <r>   -1.7923    1.0000 </r>
       <r>    0.5413    1.0000 </r>
       <r>    1.1467    1.0000 </r>
       <r>    1.2721    1.0000 </r>
       <r>    1.3258    1.0000 </r>
       <r>    1.4083    1.0000 </r>
       <r>    1.4094    1.0000 </r>
       <r>    1.5096    1.0000 </r>
       <r>    1.7972    1.0000 </r>
       <r>    1.8561    1.0000 </r>
       <r>    1.9660    1.0000 </r>
       <r>    2.0294    1.0000 </r>
       <r>    2.1430    1.0000 </r>
       <r>    2.1697    1.0000 </r>
       <r>    2.2123    1.0000 </r>
       <r>    2.2218    1.0000 </r>
       <r>    2.3112    1.0000 </r>
       <r>    2.5610    1.0000 </r>
       <r>    2.5745    1.0000 </r>
       <r>    2.6019    1.0000 </r>
       <r>    2.6498    1.0000 </r>
       <r>    2.6903    1.0000 </r>
       <r>    2.9295    1.0000 </r>
       <r>    3.3457    1.0000 </r>
       <r>    3.5676    1.0000 </r>
       <r>    4.3471    0.0000 </r>
       <r>    4.4488    0.0000 </r>
       <r>    4.9865    0.0000 </r>
       <r>    5.0152    0.0000 </r>
       <r>    5.1617    0.0000 </r>
       <r>    5.2992    0.0000 </r>
       <r>    5.3045    0.0000 </r>
       <r>    5.5622    0.0000 </r>
       <r>    5.7154    0.0000 </r>
       <r>    5.7373    0.0000 </r>
       <r>    5.9719    0.0000 </r>
       <r>    5.9939    0.0000 </r>
       <r>    6.0408    0.0000 </r>
       <r>    6.1476    0.0000 </r>
       <r>    6.1888    0.0000 </r>
       <r>    6.3832    0.0000 </r>
      </set>
      <set comment="kpoint 12">
       <r>  -23.9571    1.0000 </r>
       <r>  -23.9535    1.0000 </r>
       <r>  -23.9513    1.0000 </r>
       <r>  -23.9512    1.0000 </r>
       <r>  -23.8762    1.0000 </r>
       <r>  -23.8741    1.0000 </r>
       <r>  -23.8671    1.0000 </r>
       <r>  -23.8658    1.0000 </r>
       <r>   -9.5318    1.0000 </r>
       <r>   -9.5267    1.0000 </r>
       <r>   -9.5124    1.0000 </r>
       <r>   -9.4616    1.0000 </r>
       <r>   -9.4600    1.0000 </r>
       <r>   -9.4312    1.0000 </r>
       <r>   -9.4246    1.0000 </r>
       <r>   -9.3906    1.0000 </r>
       <r>   -9.3903    1.0000 </r>
       <r>   -9.3055    1.0000 </r>
       <r>   -9.2993    1.0000 </r>
       <r>   -9.2660    1.0000 </r>
       <r>   -9.2654    1.0000 </r>
       <r>   -9.2221    1.0000 </r>
       <r>   -9.2174    1.0000 </r>
       <r>   -9.2030    1.0000 </r>
       <r>   -9.1747    1.0000 </r>
       <r>   -9.1629    1.0000 </r>
       <r>   -9.1595    1.0000 </r>
       <r>   -9.1356    1.0000 </r>
       <r>   -9.1340    1.0000 </r>
       <r>   -9.1329    1.0000 </r>
       <r>   -9.1236    1.0000 </r>
       <r>   -9.1098    1.0000 </r>
       <r>   -7.0657    1.0000 </r>
       <r>   -6.9199    1.0000 </r>
       <r>   -6.9013    1.0000 </r>
       <r>   -6.8885    1.0000 </r>
       <r>   -2.4460    1.0000 </r>
       <r>   -2.3766    1.0000 </r>
       <r>   -2.3582    1.0000 </r>
       <r>   -2.2352    1.0000 </r>
       <r>   -2.2034    1.0000 </r>
       <r>   -2.1846    1.0000 </r>
       <r>   -2.1332    1.0000 </r>
       <r>   -2.0850    1.0000 </r>
       <r>   -2.0373    1.0000 </r>
       <r>   -1.9633    1.0000 </r>
       <r>   -1.9307    1.0000 </r>
       <r>   -1.8027    1.0000 </r>
       <r>    0.6158    1.0000 </r>
       <r>    1.1481    1.0000 </r>
       <r>    1.2460    1.0000 </r>
       <r>    1.3398    1.0000 </r>
       <r>    1.4229    1.0000 </r>
       <r>    1.4276    1.0000 </r>
       <r>    1.5106    1.0000 </r>
       <r>    1.7867    1.0000 </r>
       <r>    1.8278    1.0000 </r>
       <r>    1.9451    1.0000 </r>
       <r>    2.0473    1.0000 </r>
       <r>    2.1090    1.0000 </r>
       <r>    2.1795    1.0000 </r>
       <r>    2.2063    1.0000 </r>
       <r>    2.2095    1.0000 </r>
       <r>    2.3343    1.0000 </r>
       <r>    2.5715    1.0000 </r>
       <r>    2.5884    1.0000 </r>
       <r>    2.6268    1.0000 </r>
       <r>    2.6593    1.0000 </r>
       <r>    2.6616    1.0000 </r>
       <r>    2.9186    1.0000 </r>
       <r>    3.3378    1.0000 </r>
       <r>    3.5764    1.0000 </r>
       <r>    4.3730    0.0000 </r>
       <r>    4.4266    0.0000 </r>
       <r>    4.9173    0.0000 </r>
       <r>    4.9213    0.0000 </r>
       <r>    5.2186    0.0000 </r>
       <r>    5.2320    0.0000 </r>
       <r>    5.3071    0.0000 </r>
       <r>    5.5911    0.0000 </r>
       <r>    5.6258    0.0000 </r>
       <r>    5.7730    0.0000 </r>
       <r>    5.9230    0.0000 </r>
       <r>    5.9697    0.0000 </r>
       <r>    5.9732    0.0000 </r>
       <r>    6.1492    0.0000 </r>
       <r>    6.1658    0.0000 </r>
       <r>    6.3436    0.0000 </r>
      </set>
      <set comment="kpoint 13">
       <r>  -23.9566    1.0000 </r>
       <r>  -23.9534    1.0000 </r>
       <r>  -23.9514    1.0000 </r>
       <r>  -23.9513    1.0000 </r>
       <r>  -23.8763    1.0000 </r>
       <r>  -23.8744    1.0000 </r>
       <r>  -23.8671    1.0000 </r>
       <r>  -23.8659    1.0000 </r>
       <r>   -9.5335    1.0000 </r>
       <r>   -9.5262    1.0000 </r>
       <r>   -9.5117    1.0000 </r>
       <r>   -9.4677    1.0000 </r>
       <r>   -9.4669    1.0000 </r>
       <r>   -9.4374    1.0000 </r>
       <r>   -9.4250    1.0000 </r>
       <r>   -9.3909    1.0000 </r>
       <r>   -9.3898    1.0000 </r>
       <r>   -9.3061    1.0000 </r>
       <r>   -9.3035    1.0000 </r>
       <r>   -9.2661    1.0000 </r>
       <r>   -9.2639    1.0000 </r>
       <r>   -9.2233    1.0000 </r>
       <r>   -9.2187    1.0000 </r>
       <r>   -9.2038    1.0000 </r>
       <r>   -9.1685    1.0000 </r>
       <r>   -9.1607    1.0000 </r>
       <r>   -9.1594    1.0000 </r>
       <r>   -9.1378    1.0000 </r>
       <r>   -9.1326    1.0000 </r>
       <r>   -9.1298    1.0000 </r>
       <r>   -9.1209    1.0000 </r>
       <r>   -9.1101    1.0000 </r>
       <r>   -7.0462    1.0000 </r>
       <r>   -6.9180    1.0000 </r>
       <r>   -6.9006    1.0000 </r>
       <r>   -6.8894    1.0000 </r>
       <r>   -2.4401    1.0000 </r>
       <r>   -2.3902    1.0000 </r>
       <r>   -2.3561    1.0000 </r>
       <r>   -2.2280    1.0000 </r>
       <r>   -2.1985    1.0000 </r>
       <r>   -2.1974    1.0000 </r>
       <r>   -2.1224    1.0000 </r>
       <r>   -2.0849    1.0000 </r>
       <r>   -2.0286    1.0000 </r>
       <r>   -1.9602    1.0000 </r>
       <r>   -1.9230    1.0000 </r>
       <r>   -1.8139    1.0000 </r>
       <r>    0.6866    1.0000 </r>
       <r>    1.1453    1.0000 </r>
       <r>    1.2250    1.0000 </r>
       <r>    1.3515    1.0000 </r>
       <r>    1.4407    1.0000 </r>
       <r>    1.4453    1.0000 </r>
       <r>    1.5131    1.0000 </r>
       <r>    1.7762    1.0000 </r>
       <r>    1.7886    1.0000 </r>
       <r>    1.9267    1.0000 </r>
       <r>    2.0672    1.0000 </r>
       <r>    2.0860    1.0000 </r>
       <r>    2.1853    1.0000 </r>
       <r>    2.1864    1.0000 </r>
       <r>    2.2067    1.0000 </r>
       <r>    2.3621    1.0000 </r>
       <r>    2.5766    1.0000 </r>
       <r>    2.5778    1.0000 </r>
       <r>    2.6345    1.0000 </r>
       <r>    2.6749    1.0000 </r>
       <r>    2.6819    1.0000 </r>
       <r>    2.9053    1.0000 </r>
       <r>    3.3309    1.0000 </r>
       <r>    3.5783    1.0000 </r>
       <r>    4.4016    0.0000 </r>
       <r>    4.4103    0.0000 </r>
       <r>    4.8223    0.0000 </r>
       <r>    4.8610    0.0000 </r>
       <r>    5.1657    0.0000 </r>
       <r>    5.2708    0.0000 </r>
       <r>    5.3043    0.0000 </r>
       <r>    5.5384    0.0000 </r>
       <r>    5.6171    0.0000 </r>
       <r>    5.8205    0.0000 </r>
       <r>    5.8795    0.0000 </r>
       <r>    5.8948    0.0000 </r>
       <r>    5.9580    0.0000 </r>
       <r>    6.1312    0.0000 </r>
       <r>    6.1765    0.0000 </r>
       <r>    6.2860    0.0000 </r>
[...]
       <r>   -9.3316    1.0000 </r>
       <r>   -9.3316    1.0000 </r>
       <r>   -9.3003    1.0000 </r>
       <r>   -9.3003    1.0000 </r>
       <r>   -9.1991    1.0000 </r>
       <r>   -9.1991    1.0000 </r>
       <r>   -9.1738    1.0000 </r>
       <r>   -9.1738    1.0000 </r>
       <r>   -9.1700    1.0000 </r>
       <r>   -9.1700    1.0000 </r>
       <r>   -9.1445    1.0000 </r>
       <r>   -9.1445    1.0000 </r>
       <r>   -9.1300    1.0000 </r>
       <r>   -9.1300    1.0000 </r>
       <r>   -7.0174    1.0000 </r>
       <r>   -7.0174    1.0000 </r>
       <r>   -6.8892    1.0000 </r>
       <r>   -6.8892    1.0000 </r>
       <r>   -2.5386    1.0000 </r>
       <r>   -2.5386    1.0000 </r>
       <r>   -2.3876    1.0000 </r>
       <r>   -2.3876    1.0000 </r>
       <r>   -2.1489    1.0000 </r>
       <r>   -2.1489    1.0000 </r>
       <r>   -2.1173    1.0000 </r>
       <r>   -2.1173    1.0000 </r>
       <r>   -2.0352    1.0000 </r>
       <r>   -2.0352    1.0000 </r>
       <r>   -2.0184    1.0000 </r>
       <r>   -2.0184    1.0000 </r>
       <r>    0.6946    1.0000 </r>
       <r>    0.6946    1.0000 </r>
       <r>    1.1345    1.0000 </r>
       <r>    1.1345    1.0000 </r>
       <r>    1.6406    1.0000 </r>
       <r>    1.6406    1.0000 </r>
       <r>    1.9701    1.0000 </r>
       <r>    1.9701    1.0000 </r>
       <r>    2.0253    1.0000 </r>
       <r>    2.0253    1.0000 </r>
       <r>    2.2286    1.0000 </r>
       <r>    2.2286    1.0000 </r>
       <r>    2.4158    1.0000 </r>
       <r>    2.4158    1.0000 </r>
       <r>    2.4211    1.0000 </r>
       <r>    2.4211    1.0000 </r>
       <r>    2.5778    1.0000 </r>
       <r>    2.5778    1.0000 </r>
       <r>    2.7641    1.0000 </r>
       <r>    2.7641    1.0000 </r>
       <r>    2.9950    1.0000 </r>
       <r>    2.9950    1.0000 </r>
       <r>    3.0324    1.0000 </r>
       <r>    3.0324    1.0000 </r>
       <r>    4.7664    0.0000 </r>
       <r>    4.7664    0.0000 </r>
       <r>    4.8205    0.0000 </r>
       <r>    4.8205    0.0000 </r>
       <r>    4.8414    0.0000 </r>
       <r>    4.8414    0.0000 </r>
       <r>    5.2285    0.0000 </r>
       <r>    5.2285    0.0000 </r>
       <r>    5.9069    0.0000 </r>
       <r>    5.9069    0.0000 </r>
       <r>    6.0072    0.0000 </r>
       <r>    6.0072    0.0000 </r>
       <r>    6.0938    0.0000 </r>
       <r>    6.0938    0.0000 </r>
       <r>    6.7462    0.0000 </r>
       <r>    6.7637    0.0000 </r>
      </set>
     </set>
    </set>
   </array>
  </eigenvalues>
  <separator name="orbital magnetization" >
   <v name="MAGDIPOLOUT">      0.00000000      0.00000000      0.00000000</v>
  </separator>
  <dos>
   <i name="efermi">      3.63097635 </i>
   <total>
    <array>
     <dimension dim="1">gridpoints</dimension>
     <dimension dim="2">spin</dimension>
     <field>energy</field>
     <field>total</field>
     <field>integrated</field>
     <set>
      <set comment="spin 1">
       <r>   -25.4968     0.0000     0.0000 </r>
       <r>   -25.3841     0.0000     0.0000 </r>
       <r>   -25.2714     0.0000     0.0000 </r>
       <r>   -25.1587     0.0000     0.0000 </r>
       <r>   -25.0461     0.0000     0.0000 </r>
       <r>   -24.9334     0.0000     0.0000 </r>
       <r>   -24.8207     0.0000     0.0000 </r>
       <r>   -24.7080     0.0000     0.0000 </r>
       <r>   -24.5953     0.0000     0.0000 </r>
       <r>   -24.4827     0.0000     0.0000 </r>
       <r>   -24.3700     0.0000     0.0000 </r>
       <r>   -24.2573     0.0000     0.0000 </r>
       <r>   -24.1446     0.0000     0.0000 </r>
       <r>   -24.0319     0.0000     0.0000 </r>
       <r>   -23.9193    70.9975     8.0000 </r>
       <r>   -23.8066    70.9976    16.0000 </r>
       <r>   -23.6939     0.0000    16.0000 </r>
       <r>   -23.5812     0.0000    16.0000 </r>
       <r>   -23.4685     0.0000    16.0000 </r>
       <r>   -23.3559     0.0000    16.0000 </r>
       <r>   -23.2432     0.0000    16.0000 </r>
       <r>   -23.1305     0.0000    16.0000 </r>
       <r>   -23.0178     0.0000    16.0000 </r>
       <r>   -22.9051     0.0000    16.0000 </r>
       <r>   -22.7925     0.0000    16.0000 </r>
       <r>   -22.6798     0.0000    16.0000 </r>
       <r>   -22.5671     0.0000    16.0000 </r>
       <r>   -22.4544     0.0000    16.0000 </r>
       <r>   -22.3417     0.0000    16.0000 </r>
       <r>   -22.2291     0.0000    16.0000 </r>
       <r>   -22.1164     0.0000    16.0000 </r>
       <r>   -22.0037     0.0000    16.0000 </r>
       <r>   -21.8910     0.0000    16.0000 </r>
       <r>   -21.7783     0.0000    16.0000 </r>
       <r>   -21.6657     0.0000    16.0000 </r>
       <r>   -21.5530     0.0000    16.0000 </r>
       <r>   -21.4403     0.0000    16.0000 </r>
       <r>   -21.3276     0.0000    16.0000 </r>
       <r>   -21.2149     0.0000    16.0000 </r>
       <r>   -21.1023     0.0000    16.0000 </r>
       <r>   -20.9896     0.0000    16.0000 </r>
       <r>   -20.8769     0.0000    16.0000 </r>
       <r>   -20.7642     0.0000    16.0000 </r>
       <r>   -20.6515     0.0000    16.0000 </r>
       <r>   -20.5389     0.0000    16.0000 </r>
       <r>   -20.4262     0.0000    16.0000 </r>
       <r>   -20.3135     0.0000    16.0000 </r>
       <r>   -20.2008     0.0000    16.0000 </r>
       <r>   -20.0881     0.0000    16.0000 </r>
       <r>   -19.9755     0.0000    16.0000 </r>
       <r>   -19.8628     0.0000    16.0000 </r>
       <r>   -19.7501     0.0000    16.0000 </r>
       <r>   -19.6374     0.0000    16.0000 </r>
       <r>   -19.5247     0.0000    16.0000 </r>
       <r>   -19.4121     0.0000    16.0000 </r>
       <r>   -19.2994     0.0000    16.0000 </r>
       <r>   -19.1867     0.0000    16.0000 </r>
       <r>   -19.0740     0.0000    16.0000 </r>
       <r>   -18.9613     0.0000    16.0000 </r>
       <r>   -18.8487     0.0000    16.0000 </r>
       <r>   -18.7360     0.0000    16.0000 </r>
       <r>   -18.6233     0.0000    16.0000 </r>
       <r>   -18.5106     0.0000    16.0000 </r>
       <r>   -18.3979     0.0000    16.0000 </r>
       <r>   -18.2853     0.0000    16.0000 </r>
       <r>   -18.1726     0.0000    16.0000 </r>
       <r>   -18.0599     0.0000    16.0000 </r>
       <r>   -17.9472     0.0000    16.0000 </r>
       <r>   -17.8345     0.0000    16.0000 </r>
       <r>   -17.7219     0.0000    16.0000 </r>
       <r>   -17.6092     0.0000    16.0000 </r>
       <r>   -17.4965     0.0000    16.0000 </r>
       <r>   -17.3838     0.0000    16.0000 </r>
       <r>   -17.2711     0.0000    16.0000 </r>
       <r>   -17.1585     0.0000    16.0000 </r>
       <r>   -17.0458     0.0000    16.0000 </r>
       <r>   -16.9331     0.0000    16.0000 </r>
       <r>   -16.8204     0.0000    16.0000 </r>
       <r>   -16.7077     0.0000    16.0000 </r>
       <r>   -16.5951     0.0000    16.0000 </r>
       <r>   -16.4824     0.0000    16.0000 </r>
       <r>   -16.3697     0.0000    16.0000 </r>
       <r>   -16.2570     0.0000    16.0000 </r>
       <r>   -16.1443     0.0000    16.0000 </r>
       <r>   -16.0317     0.0000    16.0000 </r>
       <r>   -15.9190     0.0000    16.0000 </r>
       <r>   -15.8063     0.0000    16.0000 </r>
       <r>   -15.6936     0.0000    16.0000 </r>
       <r>   -15.5809     0.0000    16.0000 </r>
       <r>   -15.4683     0.0000    16.0000 </r>
       <r>   -15.3556     0.0000    16.0000 </r>
       <r>   -15.2429     0.0000    16.0000 </r>
       <r>   -15.1302     0.0000    16.0000 </r>
       <r>   -15.0175     0.0000    16.0000 </r>
       <r>   -14.9049     0.0000    16.0000 </r>
       <r>   -14.7922     0.0000    16.0000 </r>
       <r>   -14.6795     0.0000    16.0000 </r>
       <r>   -14.5668     0.0000    16.0000 </r>
       <r>   -14.4541     0.0000    16.0000 </r>
       <r>   -14.3415     0.0000    16.0000 </r>
       <r>   -14.2288     0.0000    16.0000 </r>
       <r>   -14.1161     0.0000    16.0000 </r>
       <r>   -14.0034     0.0000    16.0000 </r>
       <r>   -13.8907     0.0000    16.0000 </r>
       <r>   -13.7781     0.0000    16.0000 </r>
       <r>   -13.6654     0.0000    16.0000 </r>
       <r>   -13.5527     0.0000    16.0000 </r>
       <r>   -13.4400     0.0000    16.0000 </r>
       <r>   -13.3274     0.0000    16.0000 </r>
       <r>   -13.2147     0.0000    16.0000 </r>
       <r>   -13.1020     0.0000    16.0000 </r>
       <r>   -12.9893     0.0000    16.0000 </r>
       <r>   -12.8766     0.0000    16.0000 </r>
       <r>   -12.7640     0.0000    16.0000 </r>
       <r>   -12.6513     0.0000    16.0000 </r>
       <r>   -12.5386     0.0000    16.0000 </r>
       <r>   -12.4259     0.0000    16.0000 </r>
       <r>   -12.3132     0.0000    16.0000 </r>
       <r>   -12.2006     0.0000    16.0000 </r>
       <r>   -12.0879     0.0000    16.0000 </r>
       <r>   -11.9752     0.0000    16.0000 </r>
       <r>   -11.8625     0.0000    16.0000 </r>
       <r>   -11.7498     0.0000    16.0000 </r>
       <r>   -11.6372     0.0000    16.0000 </r>
       <r>   -11.5245     0.0000    16.0000 </r>
       <r>   -11.4118     0.0000    16.0000 </r>
       <r>   -11.2991     0.0000    16.0000 </r>
       <r>   -11.1864     0.0000    16.0000 </r>
       <r>   -11.0738     0.0000    16.0000 </r>
       <r>   -10.9611     0.0000    16.0000 </r>
       <r>   -10.8484     0.0000    16.0000 </r>
       <r>   -10.7357     0.0000    16.0000 </r>
       <r>   -10.6230     0.0000    16.0000 </r>
       <r>   -10.5104     0.0000    16.0000 </r>
       <r>   -10.3977     0.0000    16.0000 </r>
       <r>   -10.2850     0.0000    16.0000 </r>
       <r>   -10.1723     0.0000    16.0000 </r>
       <r>   -10.0596     0.0000    16.0000 </r>
       <r>    -9.9470     0.0000    16.0000 </r>
       <r>    -9.8343     0.0000    16.0000 </r>
       <r>    -9.7216     0.0000    16.0000 </r>
       <r>    -9.6089     0.0000    16.0000 </r>
       <r>    -9.4962    39.6053    20.4627 </r>
       <r>    -9.3836    59.6550    30.0219 </r>
       <r>    -9.2709    62.6811    40.4829 </r>
       <r>    -9.1582    91.4498    53.2846 </r>
       <r>    -9.0455    38.5162    64.0000 </r>
       <r>    -8.9328     0.0000    64.0000 </r>
       <r>    -8.8202     0.0000    64.0000 </r>
       <r>    -8.7075     0.0000    64.0000 </r>
       <r>    -8.5948     0.0000    64.0000 </r>
       <r>    -8.4821     0.0000    64.0000 </r>
       <r>    -8.3694     0.0000    64.0000 </r>
       <r>    -8.2568     0.0000    64.0000 </r>
       <r>    -8.1441     0.0000    64.0000 </r>
       <r>    -8.0314     0.0000    64.0000 </r>
       <r>    -7.9187     0.0000    64.0000 </r>
       <r>    -7.8060     0.0000    64.0000 </r>
       <r>    -7.6934     0.0000    64.0000 </r>
       <r>    -7.5807     0.0000    64.0000 </r>
       <r>    -7.4680     0.0000    64.0000 </r>
       <r>    -7.3553     0.0000    64.0000 </r>
       <r>    -7.2426     0.0000    64.0000 </r>
       <r>    -7.1300     5.8076    64.6544 </r>
       <r>    -7.0173     6.0755    65.4846 </r>
       <r>    -6.9046    33.8870    69.5984 </r>
       <r>    -6.7919     0.0000    72.0000 </r>
       <r>    -6.6792     0.0000    72.0000 </r>
       <r>    -6.5666     0.0000    72.0000 </r>
       <r>    -6.4539     0.0000    72.0000 </r>
       <r>    -6.3412     0.0000    72.0000 </r>
       <r>    -6.2285     0.0000    72.0000 </r>
       <r>    -6.1158     0.0000    72.0000 </r>
       <r>    -6.0032     0.0000    72.0000 </r>
       <r>    -5.8905     0.0000    72.0000 </r>
       <r>    -5.7778     0.0000    72.0000 </r>
       <r>    -5.6651     0.0000    72.0000 </r>
       <r>    -5.5524     0.0000    72.0000 </r>
       <r>    -5.4398     0.0000    72.0000 </r>
       <r>    -5.3271     0.0000    72.0000 </r>
       <r>    -5.2144     0.0000    72.0000 </r>
       <r>    -5.1017     0.0000    72.0000 </r>
       <r>    -4.9890     0.0000    72.0000 </r>
       <r>    -4.8764     0.0000    72.0000 </r>
       <r>    -4.7637     0.0000    72.0000 </r>
       <r>    -4.6510     0.0000    72.0000 </r>
       <r>    -4.5383     0.0000    72.0000 </r>
       <r>    -4.4256     0.0000    72.0000 </r>
       <r>    -4.3130     0.0000    72.0000 </r>
       <r>    -4.2003     0.0000    72.0000 </r>
       <r>    -4.0876     0.0000    72.0000 </r>
       <r>    -3.9749     0.0000    72.0000 </r>
       <r>    -3.8622     0.0000    72.0000 </r>
       <r>    -3.7496     0.0000    72.0000 </r>
       <r>    -3.6369     0.0000    72.0000 </r>
       <r>    -3.5242     0.0000    72.0000 </r>
       <r>    -3.4115     0.0000    72.0000 </r>
       <r>    -3.2988     0.0000    72.0000 </r>
       <r>    -3.1862     0.0000    72.0000 </r>
       <r>    -3.0735     0.0000    72.0000 </r>
       <r>    -2.9608     0.0000    72.0000 </r>
       <r>    -2.8481     0.0000    72.0000 </r>
       <r>    -2.7354     0.0000    72.0000 </r>
       <r>    -2.6228     0.0000    72.0000 </r>
       <r>    -2.5101    16.6336    74.0743 </r>
       <r>    -2.3974     8.9510    75.8486 </r>
       <r>    -2.2847     7.2854    77.0809 </r>
       <r>    -2.1720    36.3350    81.7142 </r>
       <r>    -2.0594    31.3135    87.5084 </r>
       <r>    -1.9467    31.4610    92.3250 </r>
       <r>    -1.8340    13.1028    94.6764 </r>
       <r>    -1.7213     8.1647    96.0000 </r>
       <r>    -1.6086     0.0000    96.0000 </r>
       <r>    -1.4960     0.0000    96.0000 </r>
       <r>    -1.3833     0.0000    96.0000 </r>
       <r>    -1.2706     0.0000    96.0000 </r>
       <r>    -1.1579     0.0000    96.0000 </r>
       <r>    -1.0452     0.0000    96.0000 </r>
       <r>    -0.9326     0.0000    96.0000 </r>
       <r>    -0.8199     0.0000    96.0000 </r>
       <r>    -0.7072     0.0000    96.0000 </r>
       <r>    -0.5945     0.0000    96.0000 </r>
       <r>    -0.4818     0.0000    96.0000 </r>
       <r>    -0.3692     0.0000    96.0000 </r>
       <r>    -0.2565     0.0000    96.0000 </r>
       <r>    -0.1438     0.0000    96.0000 </r>
       <r>    -0.0311     0.0000    96.0000 </r>
       <r>     0.0816     2.7190    96.3064 </r>
       <r>     0.1942     1.4006    96.4978 </r>
       <r>     0.3069     0.8146    96.6318 </r>
       <r>     0.4196     0.7515    96.7647 </r>
       <r>     0.5323     0.7363    96.8830 </r>
       <r>     0.6450     2.0599    97.1721 </r>
       <r>     0.7576     1.8984    97.4739 </r>
       <r>     0.8703     1.6848    97.7298 </r>
       <r>     0.9830     1.7553    98.0178 </r>
       <r>     1.0957    14.1291    99.7321 </r>
       <r>     1.2084    11.0074   101.4603 </r>
       <r>     1.3210    14.6083   103.5461 </r>
       <r>     1.4337    10.7823   105.7550 </r>
       <r>     1.5464    14.4478   108.2280 </r>
       <r>     1.6591     8.3730   109.5635 </r>
       <r>     1.7718    13.3546   111.2248 </r>
       <r>     1.8844    18.5910   113.9948 </r>
       <r>     1.9971    12.6224   116.5423 </r>
       <r>     2.1098    16.1150   119.1158 </r>
       <r>     2.2225    20.4660   122.3661 </r>
       <r>     2.3352    18.1745   124.9079 </r>
       <r>     2.4478    17.1188   127.4889 </r>
       <r>     2.5605    23.3767   131.2141 </r>
       <r>     2.6732    17.5161   134.8137 </r>
       <r>     2.7859     5.9519   135.8507 </r>
       <r>     2.8986     9.1662   137.6729 </r>
       <r>     3.0112     8.3381   138.9395 </r>
       <r>     3.1239     4.6128   139.6998 </r>
       <r>     3.2366     5.6322   140.5746 </r>
       <r>     3.3493    11.1855   142.3604 </r>
       <r>     3.4620     5.1219   143.7571 </r>
       <r>     3.5746     1.4402   143.9623 </r>
       <r>     3.6873     0.0000   144.0000 </r>
       <r>     3.8000     0.0000   144.0000 </r>
       <r>     3.9127     0.0000   144.0000 </r>
       <r>     4.0254     0.0000   144.0000 </r>
       <r>     4.1380     0.0000   144.0000 </r>
       <r>     4.2507     0.4256   144.0480 </r>
       <r>     4.3634     7.5545   145.1312 </r>
       <r>     4.4761     6.8042   146.1067 </r>
       <r>     4.5888    11.9209   147.6233 </r>
       <r>     4.7014     4.7972   148.4205 </r>
       <r>     4.8141    10.0021   149.8270 </r>
       <r>     4.9268    10.8229   151.4395 </r>
       <r>     5.0395     4.3351   152.1485 </r>
       <r>     5.1522    11.8152   153.8513 </r>
       <r>     5.2648     5.9171   154.7067 </r>
       <r>     5.3775    10.0198   156.7090 </r>
       <r>     5.4902     9.5358   157.9745 </r>
       <r>     5.6029     6.7349   158.9189 </r>
       <r>     5.7156    11.4259   160.8475 </r>
       <r>     5.8282    10.2214   162.6117 </r>
       <r>     5.9409    12.1131   164.4049 </r>
       <r>     6.0536    12.8626   166.6494 </r>
       <r>     6.1663    19.8334   169.4348 </r>
       <r>     6.2790    13.9499   172.0919 </r>
       <r>     6.3916     8.6952   173.4798 </r>
       <r>     6.5043     4.1340   174.4058 </r>
       <r>     6.6170     4.7594   175.2363 </r>
       <r>     6.7297     3.4535   175.8891 </r>
       <r>     6.8424     0.3550   176.0000 </r>
       <r>     6.9550     0.0000   176.0000 </r>
       <r>     7.0677     0.0000   176.0000 </r>
       <r>     7.1804     0.0000   176.0000 </r>
       <r>     7.2931     0.0000   176.0000 </r>
       <r>     7.4058     0.0000   176.0000 </r>
       <r>     7.5184     0.0000   176.0000 </r>
       <r>     7.6311     0.0000   176.0000 </r>
       <r>     7.7438     0.0000   176.0000 </r>
       <r>     7.8565     0.0000   176.0000 </r>
       <r>     7.9692     0.0000   176.0000 </r>
       <r>     8.0818     0.0000   176.0000 </r>
       <r>     8.1945     0.0000   176.0000 </r>
       <r>     8.3072     0.0000   176.0000 </r>
      </set>
     </set>
    </array>
   </total>
  </dos>
 </calculation>
 <structure name="finalpos" >
  <crystal>
   <varray name="basis" >
    <v>       8.90583493       0.00000000       0.00000000 </v>
    <v>       0.00000000       6.72585212       0.00000000 </v>
    <v>       0.00000000       0.00000000      11.50548470 </v>
   </varray>
   <i name="volume">    689.17081132 </i>
   <varray name="rec_basis" >
    <v>       0.11228593       0.00000000       0.00000000 </v>
    <v>       0.00000000       0.14868005       0.00000000 </v>
    <v>       0.00000000       0.00000000       0.08691507 </v>
   </varray>
  </crystal>
  <varray name="positions" >
   <v>       0.01541041       0.25000000       0.69215596 </v>
   <v>       0.98458959       0.75000002       0.30784404 </v>
   <v>       0.48458959       0.75000002       0.19215590 </v>
   <v>       0.51541041       0.25000000       0.80784408 </v>
   <v>       0.16075613       0.75000002       0.90641330 </v>
   <v>       0.83924387       0.25000000       0.09358668 </v>
   <v>       0.33924387       0.25000000       0.40641338 </v>
   <v>       0.66075613       0.75000002       0.59358666 </v>
   <v>       0.19334513       0.07094307       0.14627222 </v>
   <v>       0.80665487       0.92905692       0.85372776 </v>
   <v>       0.30665487       0.92905692       0.64627224 </v>
   <v>       0.69334513       0.07094307       0.35372776 </v>
   <v>       0.80665487       0.57094308       0.85372776 </v>
   <v>       0.19334513       0.42905692       0.14627222 </v>
   <v>       0.69334513       0.42905692       0.35372776 </v>
   <v>       0.30665487       0.57094308       0.64627224 </v>
   <v>       0.08136520       0.75000002       0.59089221 </v>
   <v>       0.91863478       0.25000000       0.40910779 </v>
   <v>       0.41863481       0.25000000       0.09089215 </v>
   <v>       0.58136522       0.75000002       0.90910783 </v>
   <v>       0.19643538       0.25000000       0.96482951 </v>
   <v>       0.80356461       0.75000002       0.03517051 </v>
   <v>       0.30356461       0.75000002       0.46482943 </v>
   <v>       0.69643539       0.25000000       0.53517049 </v>
  </varray>
 </structure>
</modeling>
