 vasp.5.4.4.18Apr17-6-g9f103f2a35 (build Nov 21 2017 15:30:27) complex          
  
 executed on             LinuxIFC date 2020.09.15  08:12:45
 running on   64 total cores
 distrk:  each k-point on   32 cores,    2 groups
 distr:  one band on NCORES_PER_BAND=   4 cores,    8 groups


--------------------------------------------------------------------------------------------------------


 INCAR:
 POTCAR:   PAW_PBE Ba_sv 06Sep2000                
 POTCAR:   PAW_PBE Si 05Jan2001                   

 ----------------------------------------------------------------------------- 
|                                                                             |
|           W    W    AA    RRRRR   N    N  II  N    N   GGGG   !!!           |
|           W    W   A  A   R    R  NN   N  II  NN   N  G    G  !!!           |
|           W    W  A    A  R    R  N N  N  II  N N  N  G       !!!           |
|           W WW W  AAAAAA  RRRRR   N  N N  II  N  N N  G  GGG   !            |
|           WW  WW  A    A  R   R   N   NN  II  N   NN  G    G                |
|           W    W  A    A  R    R  N    N  II  N    N   GGGG   !!!           |
|                                                                             |
|      You have enabled k-point parallelism (KPAR>1).                         |
|      This developmental code was originally  written by Paul Kent at ORNL,  |
|      and carefully double checked in Vienna.                                |
|      GW as well as linear response parallelism added by Martijn Marsman     |
|      and Georg Kresse.                                                      |
|      Carefully verify results versus KPAR=1.                                |
|      Report problems to Paul Kent and Vienna.                               |
|                                                                             |
 ----------------------------------------------------------------------------- 

 POTCAR:   PAW_PBE Ba_sv 06Sep2000                
   VRHFIN =Ba: 5s5p6s                                                           
   LEXCH  = PE                                                                  
   EATOM  =   700.2255 eV,   51.4651 Ry                                         
                                                                                
   TITEL  = PAW_PBE Ba_sv 06Sep2000                                             
   LULTRA =        F    use ultrasoft PP ?                                      
   IUNSCR =        1    unscreen: 0-lin 1-nonlin 2-no                           
   RPACOR =    2.400    partial core radius                                     
   POMASS =  137.327; ZVAL   =   10.000    mass and valenz                      
   RCORE  =    2.800    outmost cutoff radius                                   
   RWIGS  =    3.740; RWIGS  =    1.979    wigner-seitz radius (au A)           
   ENMAX  =  187.210; ENMIN  =  140.408 eV                                      
   RCLOC  =    2.516    cutoff for local pot                                    
   LCOR   =        T    correct aug charges                                     
   LPAW   =        T    paw PP                                                  
   EAUG   =  351.165                                                            
   DEXC   =     .000                                                            
   RMAX   =    3.370    core radius for proj-oper                               
   RAUG   =    1.300    factor for augmentation sphere                          
   RDEP   =    2.976    radius for radial grids                                 
   QCUT   =   -3.709; QGAM   =    7.419    optimization parameters              
                                                                                
   Description                                                                  
     l     E      TYP  RCUT    TYP  RCUT                                        
     0   .000     23  2.800                                                     
     0   .000     23  2.800                                                     
     1   .000     23  2.700                                                     
     1  2.000     23  2.700                                                     
     2   .000     23  2.700                                                     
     2   .000     23  2.700                                                     
  local pseudopotential read in
  partial core-charges read in
  atomic valenz-charges read in
  non local Contribution for L=           0  read in
    real space projection operators read in
  non local Contribution for L=           0  read in
    real space projection operators read in
  non local Contribution for L=           1  read in
    real space projection operators read in
  non local Contribution for L=           1  read in
    real space projection operators read in
  non local Contribution for L=           2  read in
    real space projection operators read in
  non local Contribution for L=           2  read in
    real space projection operators read in
    PAW grid and wavefunctions read in
 
   number of l-projection  operators is LMAX  =           6
   number of lm-projection operators is LMMAX =          18
 
 POTCAR:   PAW_PBE Si 05Jan2001                   
   VRHFIN =Si: s2p2                                                             
   LEXCH  = PE                                                                  
   EATOM  =   103.0669 eV,    7.5752 Ry                                         
                                                                                
   TITEL  = PAW_PBE Si 05Jan2001                                                
   LULTRA =        F    use ultrasoft PP ?                                      
   IUNSCR =        1    unscreen: 0-lin 1-nonlin 2-no                           
   RPACOR =    1.500    partial core radius                                     
   POMASS =   28.085; ZVAL   =    4.000    mass and valenz                      
   RCORE  =    1.900    outmost cutoff radius                                   
   RWIGS  =    2.480; RWIGS  =    1.312    wigner-seitz radius (au A)           
   ENMAX  =  245.345; ENMIN  =  184.009 eV                                      
   ICORE  =        2    local potential                                         
   LCOR   =        T    correct aug charges                                     
   LPAW   =        T    paw PP                                                  
   EAUG   =  322.069                                                            
   DEXC   =    -.007                                                            
   RMAX   =    2.944    core radius for proj-oper                               
   RAUG   =    1.300    factor for augmentation sphere                          
   RDEP   =    1.993    radius for radial grids                                 
   QCUT   =   -4.246; QGAM   =    8.493    optimization parameters              
                                                                                
   Description                                                                  
     l     E      TYP  RCUT    TYP  RCUT                                        
     0   .000     23  1.900                                                     
     0   .000     23  1.900                                                     
     1   .000     23  1.900                                                     
     1   .000     23  1.900                                                     
     2   .000      7  1.900                                                     
  local pseudopotential read in
  partial core-charges read in
  atomic valenz-charges read in
  non local Contribution for L=           0  read in
    real space projection operators read in
  non local Contribution for L=           0  read in
    real space projection operators read in
  non local Contribution for L=           1  read in
    real space projection operators read in
  non local Contribution for L=           1  read in
    real space projection operators read in
    PAW grid and wavefunctions read in
 
   number of l-projection  operators is LMAX  =           4
   number of lm-projection operators is LMMAX =           8
 
 Optimization of the real space projectors (new method)

 maximal supplied QI-value         = 13.42
 optimisation between [QCUT,QGAM] = [ 11.40, 22.81] = [ 36.42,145.68] Ry 
 Optimized for a Real-space Cutoff    1.56 Angstroem

   l    n(q)    QCUT    max X(q) W(low)/X(q) W(high)/X(q)  e(spline) 
   0     11    11.404     7.198    0.14E-04    0.26E-04    0.99E-07
   0     11    11.404    15.603    0.29E-04    0.72E-04    0.44E-06
   1     10    11.404     3.746    0.20E-04    0.24E-04    0.43E-07
   1     10    11.404     4.362    0.22E-03    0.97E-04    0.22E-06
   2     10    11.404     5.782    0.83E-04    0.62E-05    0.27E-06
   2     10    11.404    65.505    0.42E-03    0.31E-04    0.12E-05
 Optimization of the real space projectors (new method)

 maximal supplied QI-value         = 19.84
 optimisation between [QCUT,QGAM] = [ 11.31, 22.82] = [ 35.82,145.81] Ry 
 Optimized for a Real-space Cutoff    1.16 Angstroem

   l    n(q)    QCUT    max X(q) W(low)/X(q) W(high)/X(q)  e(spline) 
   0      8    11.310     8.708    0.14E-04    0.11E-04    0.43E-08
   0      8    11.310   106.241    0.27E-03    0.30E-03    0.38E-07
   1      7    11.310     5.901    0.82E-05    0.48E-04    0.19E-07
   1      7    11.310    73.241    0.27E-03    0.27E-03    0.74E-07
 PAW_PBE Ba_sv 06Sep2000                :
 energy of atom  1       EATOM= -700.2255
 kinetic energy error for atom=    0.0005 (will be added to EATOM!!)
 PAW_PBE Si 05Jan2001                   :
 energy of atom  2       EATOM= -103.0669
 kinetic energy error for atom=    0.0006 (will be added to EATOM!!)
 
 
 POSCAR: ba8 si16                                
  positions in direct lattice
  velocities in cartesian coordinates
 exchange correlation table for  LEXCH =        8
   RHO(1)=    0.500       N(1)  =     2000
   RHO(2)=  100.500       N(2)  =     4000
 


--------------------------------------------------------------------------------------------------------


 ion  position               nearest neighbor table
   1  0.006  0.250  0.704-  21 3.40  16 3.44  11 3.44  17 3.65  17 3.65   5 4.38   5 4.38   7 4.62

   2  0.384  0.750  0.296-  22 3.40  12 3.44  15 3.44  18 3.65  18 3.65   6 4.38   6 4.38   8 4.62

   3  0.182  0.750  0.186-  20 3.33   9 3.45  14 3.45  12 3.60  15 3.60  22 3.63  19 3.65  19 3.65
                            23 3.76   5 4.29   7 4.38   7 4.38
   4  0.208  0.250  0.814-  19 3.33  13 3.45  10 3.45  16 3.60  11 3.60  21 3.63  20 3.65  20 3.65
                            24 3.76   6 4.29   8 4.38   8 4.38
   5  0.060  0.750  0.916-   9 3.44  14 3.44  21 3.45  21 3.45  11 3.47  16 3.47  17 3.73   3 4.29
                             1 4.38   1 4.38
   6  0.330  0.250  0.084-  13 3.44  10 3.44  22 3.45  22 3.45  15 3.47  12 3.47  18 3.73   4 4.29
                             2 4.38   2 4.38
   7  0.128  0.250  0.396-  14 3.44   9 3.44  23 3.53  23 3.53  19 3.72  16 3.77  11 3.77  15 3.79
                            12 3.79  24 3.86   3 4.38   3 4.38   1 4.62
   8  0.262  0.750  0.604-  10 3.44  13 3.44  24 3.53  24 3.53  20 3.72  12 3.77  15 3.77  11 3.79
                            16 3.79  23 3.86   4 4.38   4 4.38   2 4.62
   9  0.073  0.073  0.143-  14 2.40  21 2.43  19 2.45   5 3.44   7 3.44   3 3.45
  10  0.317  0.927  0.857-  13 2.40  22 2.43  20 2.45   6 3.44   8 3.44   4 3.45
  11  0.115  0.929  0.660-  16 2.42  23 2.44  17 2.44   1 3.44   5 3.47   4 3.60   7 3.77   8 3.79

  12  0.275  0.071  0.340-  15 2.42  24 2.44  18 2.44   2 3.44   6 3.47   3 3.60   8 3.77   7 3.79

  13  0.317  0.573  0.857-  10 2.40  22 2.43  20 2.45   6 3.44   8 3.44   4 3.45
  14  0.073  0.427  0.143-   9 2.40  21 2.43  19 2.45   5 3.44   7 3.44   3 3.45
  15  0.275  0.429  0.340-  12 2.42  24 2.44  18 2.44   2 3.44   6 3.47   3 3.60   8 3.77   7 3.79

  16  0.115  0.571  0.660-  11 2.42  23 2.44  17 2.44   1 3.44   5 3.47   4 3.60   7 3.77   8 3.79

  17  0.031  0.750  0.600-  23 2.44  11 2.44  16 2.44   1 3.65   1 3.65   5 3.73
  18  0.359  0.250  0.400-  24 2.44  15 2.44  12 2.44   2 3.65   2 3.65   6 3.73
  19  0.157  0.250  0.081-  21 2.42  14 2.45   9 2.45   4 3.33   3 3.65   3 3.65   7 3.72
  20  0.233  0.750  0.919-  22 2.42  10 2.45  13 2.45   3 3.33   4 3.65   4 3.65   8 3.72
  21  0.074  0.250  0.960-  19 2.42  14 2.43   9 2.43   1 3.40   5 3.45   5 3.45   4 3.63
  22  0.316  0.750  0.040-  20 2.42  10 2.43  13 2.43   2 3.40   6 3.45   6 3.45   3 3.63
  23  0.113  0.750  0.477-  17 2.44  11 2.44  16 2.44   7 3.53   7 3.53   3 3.76   8 3.86
  24  0.276  0.250  0.523-  18 2.44  15 2.44  12 2.44   8 3.53   8 3.53   4 3.76   7 3.86
 
  LATTYP: Found a simple orthorhombic cell.
 ALAT       =     6.7778496742
 B/A-ratio  =     1.7117734747
 C/A-ratio  =     3.5423429602
  
  Lattice vectors:
  
 A1 = (   0.0000000000,   6.7778496742,   0.0000000000)
 A2 = (   0.0000000000,   0.0000000000, -11.6021432877)
 A3 = ( -24.0094680786,   0.0000000000,   0.0000000000)


Analysis of symmetry for initial positions (statically):
=====================================================================
 Subroutine PRICEL returns:
 Original cell was already a primitive cell.
 

 Routine SETGRP: Setting up the symmetry group for a 
 simple orthorhombic supercell.


 Subroutine GETGRP returns: Found  4 space group operations
 (whereof  1 operations were pure point group operations)
 out of a pool of  8 trial point group operations.


The static configuration has the point symmetry C_1 .
 The point group associated with its full space group is C_2h.


Analysis of symmetry for dynamics (positions and initial velocities):
=====================================================================
 Subroutine PRICEL returns:
 Original cell was already a primitive cell.
 

 Routine SETGRP: Setting up the symmetry group for a 
 simple orthorhombic supercell.


 Subroutine GETGRP returns: Found  4 space group operations
 (whereof  1 operations were pure point group operations)
 out of a pool of  8 trial point group operations.


The dynamic configuration has the point symmetry C_1 .
 The point group associated with its full space group is C_2h.


Analysis of constrained symmetry for selective dynamics:
=====================================================================
 Subroutine PRICEL returns:
 Original cell was already a primitive cell.
 

 Routine SETGRP: Setting up the symmetry group for a 
 simple orthorhombic supercell.


 Subroutine GETGRP returns: Found  4 space group operations
 (whereof  1 operations were pure point group operations)
 out of a pool of  8 trial point group operations.


The constrained configuration has the point symmetry C_1 .
 The point group associated with its full space group is C_2h.


 Subroutine INISYM returns: Found  4 space group operations
 (whereof  1 operations are pure point group operations),
 and found     1 'primitive' translations

 
 
 KPOINTS: k-density: 8.0                          

Automatic generation of k-mesh.
Space group operators:
 irot       det(A)        alpha          n_x          n_y          n_z        tau_x        tau_y        tau_z
    1     1.000000     0.000000     1.000000     0.000000     0.000000     0.000000     0.000000     0.000000
    2    -1.000000     0.000000     1.000000     0.000000     0.000000    -0.610176     0.000000     0.000000
    3     1.000000   180.000000     0.000000     1.000000     0.000000    -0.610176     0.500000     0.000000
    4    -1.000000   180.000000     0.000000     1.000000     0.000000     0.000000     0.500000     0.000000
 
 Subroutine IBZKPT returns following result:
 ===========================================
 
 Found     15 irreducible k-points:
 
 Following reciprocal coordinates:
            Coordinates               Weight
  0.000000  0.000000  0.000000      1.000000
  0.000000  0.125000  0.000000      2.000000
  0.000000  0.250000  0.000000      2.000000
  0.000000  0.375000  0.000000      2.000000
  0.000000  0.500000  0.000000      1.000000
  0.000000  0.000000  0.200000      2.000000
  0.000000  0.125000  0.200000      4.000000
  0.000000  0.250000  0.200000      4.000000
  0.000000  0.375000  0.200000      4.000000
  0.000000  0.500000  0.200000      2.000000
  0.000000  0.000000  0.400000      2.000000
  0.000000  0.125000  0.400000      4.000000
  0.000000  0.250000  0.400000      4.000000
  0.000000  0.375000  0.400000      4.000000
  0.000000  0.500000  0.400000      2.000000
 
 Following cartesian coordinates:
            Coordinates               Weight
  0.000000  0.000000  0.000000      1.000000
  0.000000  0.018442  0.000000      2.000000
  0.000000  0.036885  0.000000      2.000000
  0.000000  0.055327  0.000000      2.000000
  0.000000  0.073770  0.000000      1.000000
  0.000000  0.000000  0.017238      2.000000
  0.000000  0.018442  0.017238      4.000000
  0.000000  0.036885  0.017238      4.000000
  0.000000  0.055327  0.017238      4.000000
  0.000000  0.073770  0.017238      2.000000
  0.000000  0.000000  0.034476      2.000000
  0.000000  0.018442  0.034476      4.000000
  0.000000  0.036885  0.034476      4.000000
  0.000000  0.055327  0.034476      4.000000
  0.000000  0.073770  0.034476      2.000000
 
 TETIRR: Found    108 inequivalent tetrahedra from      240


--------------------------------------------------------------------------------------------------------




 Dimension of arrays:
   k-points           NKPTS =     15   k-points in BZ     NKDIM =     15   number of bands    NBANDS=     88
   number of dos      NEDOS =    301   number of ions     NIONS =     24
   non local maximal  LDIM  =      6   non local SUM 2l+1 LMDIM =     18
   total plane-waves  NPLWV = 358400
   max r-space proj   IRMAX =   3093   max aug-charges    IRDMAX=  12081
   dimension x,y,z NGX =   140 NGY =   40 NGZ =   64
   dimension x,y,z NGXF=   280 NGYF=   80 NGZF=  128
   support grid    NGXF=   280 NGYF=   80 NGZF=  128
   ions per type =               8  16
   NGX,Y,Z   is equivalent  to a cutoff of   9.69,  9.81,  9.17 a.u.
   NGXF,Y,Z  is equivalent  to a cutoff of  19.39, 19.62, 18.34 a.u.

 SYSTEM =  unknown system                          
 POSCAR =  ba8 si16                                

 Startparameter for this run:
   NWRITE =      2    write-flag & timer
   PREC   = normal    normal or accurate (medium, high low for compatibility)
   ISTART =      0    job   : 0-new  1-cont  2-samecut
   ICHARG =      2    charge: 1-file 2-atom 10-const
   ISPIN  =      1    spin polarized calculation?
   LNONCOLLINEAR =      F non collinear calculations
   LSORBIT =      F    spin-orbit coupling
   INIWAV =      1    electr: 0-lowe 1-rand  2-diag
   LASPH  =      F    aspherical Exc in radial PAW
   METAGGA=      F    non-selfconsistent MetaGGA calc.

 Electronic Relaxation 1
   ENCUT  =  500.0 eV  36.75 Ry    6.06 a.u.  43.77 12.36 21.15*2*pi/ulx,y,z
   ENINI  =  500.0     initial cutoff
   ENAUG  =  351.2 eV  augmentation charge cutoff
   NELM   =    100;   NELMIN=  2; NELMDL= -5     # of ELM steps 
   EDIFF  = 0.1E-05   stopping-criterion for ELM
   LREAL  =      T    real-space projection
   NLSPLINE    = F    spline interpolate recip. space projectors
   LCOMPAT=      F    compatible to vasp.4.4
   GGA_COMPAT  = T    GGA compatible to vasp.4.4-vasp.4.6
   LMAXPAW     = -100 max onsite density
   LMAXMIX     =    2 max onsite mixed and CHGCAR
   VOSKOWN=      0    Vosko Wilk Nusair interpolation
   ROPT   =   -0.00050  -0.00050
 Ionic relaxation
   EDIFFG = -.1E-02   stopping-criterion for IOM
   NSW    =      0    number of steps for IOM
   NBLOCK =      1;   KBLOCK =      1    inner block; outer block 
   IBRION =     -1    ionic relax: 0-MD 1-quasi-New 2-CG
   NFREE  =      0    steps in history (QN), initial steepest desc. (CG)
   ISIF   =      2    stress and relaxation
   IWAVPR =     10    prediction:  0-non 1-charg 2-wave 3-comb
   ISYM   =      2    0-nonsym 1-usesym 2-fastsym
   LCORR  =      T    Harris-Foulkes like correction to forces

   POTIM  = 0.3000    time-step for ionic-motion
   TEIN   =    0.0    initial temperature
   TEBEG  =    0.0;   TEEND  =   0.0 temperature during run
   SMASS  =  -3.00    Nose mass-parameter (am)
   estimated Nose-frequenzy (Omega)   =  0.10E-29 period in steps =****** mass=  -0.132E-25a.u.
   SCALEE = 1.0000    scale energy and forces
   NPACO  =    256;   APACO  = 16.0  distance and # of slots for P.C.
   PSTRESS=    0.0 pullay stress

  Mass of Ions in am
   POMASS = 137.33 28.09
  Ionic Valenz
   ZVAL   =  10.00  4.00
  Atomic Wigner-Seitz radii
   RWIGS  =  -1.00 -1.00
  virtual crystal weights 
   VCA    =   1.00  1.00
   NELECT =     144.0000    total number of electrons
   NUPDOWN=      -1.0000    fix difference up-down

 DOS related values:
   EMIN   =  10.00;   EMAX   =-10.00  energy-range for DOS
   EFERMI =   0.00
   ISMEAR =    -5;   SIGMA  =   0.01  broadening in eV -4-tet -1-fermi 0-gaus

 Electronic relaxation 2 (details)
   IALGO  =     38    algorithm
   LDIAG  =      T    sub-space diagonalisation (order eigenvalues)
   LSUBROT=      F    optimize rotation matrix (better conditioning)
   TURBO    =      0    0=normal 1=particle mesh
   IRESTART =      0    0=no restart 2=restart with 2 vectors
   NREBOOT  =      0    no. of reboots
   NMIN     =      0    reboot dimension
   EREF     =   0.00    reference energy to select bands
   IMIX   =      4    mixing-type and parameters
     AMIX     =   0.40;   BMIX     =  1.00
     AMIX_MAG =   1.60;   BMIX_MAG =  1.00
     AMIN     =   0.10
     WC   =   100.;   INIMIX=   1;  MIXPRE=   1;  MAXMIX= -45

 Intra band minimization:
   WEIMIN = 0.0000     energy-eigenvalue tresh-hold
   EBREAK =  0.28E-08  absolut break condition
   DEPER  =   0.30     relativ break condition  

   TIME   =   0.40     timestep for ELM

  volume/ion in A,a.u.               =      78.67       530.88
  Fermi-wavevector in a.u.,A,eV,Ry     =   0.694264  1.311969  6.558046  0.482003
  Thomas-Fermi vector in A             =   1.776709
 
 Write flags
   LWAVE        =      T    write WAVECAR
   LDOWNSAMPLE  =      F    k-point downsampling of WAVECAR
   LCHARG       =      T    write CHGCAR
   LVTOT        =      F    write LOCPOT, total local potential
   LVHAR        =      F    write LOCPOT, Hartree potential only
   LELF         =      F    write electronic localiz. function (ELF)
   LORBIT       =      0    0 simple, 1 ext, 2 COOP (PROOUT), +10 PAW based schemes


 Dipole corrections
   LMONO  =      F    monopole corrections only (constant potential shift)
   LDIPOL =      F    correct potential (dipole corrections)
   IDIPOL =      0    1-x, 2-y, 3-z, 4-all directions 
   EPSILON=  1.0000000 bulk dielectric constant

 Exchange correlation treatment:
   GGA     =    --    GGA type
   LEXCH   =     8    internal setting for exchange type
   VOSKOWN=      0    Vosko Wilk Nusair interpolation
   LHFCALC =     F    Hartree Fock is set to
   LHFONE  =     F    Hartree Fock one center treatment
   AEXX    =    0.0000 exact exchange contribution

 Linear response parameters
   LEPSILON=     F    determine dielectric tensor
   LRPA    =     F    only Hartree local field effects (RPA)
   LNABLA  =     F    use nabla operator in PAW spheres
   LVEL    =     F    velocity operator in full k-point grid
   LINTERFAST=   F  fast interpolation
   KINTER  =     0    interpolate to denser k-point grid
   CSHIFT  =0.1000    complex shift for real part using Kramers Kronig
   OMEGAMAX=  -1.0    maximum frequency
   DEG_THRESHOLD= 0.2000000E-02 threshold for treating states as degnerate
   RTIME   =   -0.100 relaxation time in fs
  (WPLASMAI=    0.000 imaginary part of plasma frequency in eV, 0.658/RTIME)
   DFIELD  = 0.0000000 0.0000000 0.0000000 field for delta impulse in time
 
 Orbital magnetization related:
   ORBITALMAG=     F  switch on orbital magnetization
   LCHIMAG   =     F  perturbation theory with respect to B field
   DQ        =  0.001000  dq finite difference perturbation B field
   LLRAUG    =     F  two centre corrections for induced B field



--------------------------------------------------------------------------------------------------------


 Static calculation
 charge density and potential will be updated during run
 non-spin polarized calculation
 Variant of blocked Davidson
 Davidson routine will perform the subspace rotation
 perform sub-space diagonalisation
    after iterative eigenvector-optimisation
 modified Broyden-mixing scheme, WC =      100.0
 initial mixing is a Kerker type mixing with AMIX =  0.4000 and BMIX =      1.0000
 Hartree-type preconditioning will be used
 using additional bands           16
 real space projection scheme for non local part
 use partial core corrections
 calculate Harris-corrections to forces 
   (improved forces if not selfconsistent)
 use gradient corrections 
 use of overlap-Matrix (Vanderbilt PP)
 Fermi weights with tetrahedron method with Bloechl corrections


--------------------------------------------------------------------------------------------------------


  energy-cutoff  :      500.00
  volume of cell :     1888.05
      direct lattice vectors                 reciprocal lattice vectors
    24.009468079  0.000000000  0.000000000     0.041650236  0.000000000  0.000000000
     0.000000000  6.777849674  0.000000000     0.000000000  0.147539419  0.000000000
     0.000000000  0.000000000 11.602143288     0.000000000  0.000000000  0.086190971

  length of vectors
    24.009468079  6.777849674 11.602143288     0.041650236  0.147539419  0.086190971


 
 k-points in units of 2pi/SCALE and weight: k-density: 8.0                          
   0.00000000  0.00000000  0.00000000       0.025
   0.00000000  0.01844243  0.00000000       0.050
   0.00000000  0.03688485  0.00000000       0.050
   0.00000000  0.05532728  0.00000000       0.050
   0.00000000  0.07376971  0.00000000       0.025
   0.00000000  0.00000000  0.01723819       0.050
   0.00000000  0.01844243  0.01723819       0.100
   0.00000000  0.03688485  0.01723819       0.100
   0.00000000  0.05532728  0.01723819       0.100
   0.00000000  0.07376971  0.01723819       0.050
   0.00000000  0.00000000  0.03447639       0.050
   0.00000000  0.01844243  0.03447639       0.100
   0.00000000  0.03688485  0.03447639       0.100
   0.00000000  0.05532728  0.03447639       0.100
   0.00000000  0.07376971  0.03447639       0.050
 
 k-points in reciprocal lattice and weights: k-density: 8.0                          
   0.00000000  0.00000000  0.00000000       0.025
   0.00000000  0.12500000  0.00000000       0.050
   0.00000000  0.25000000  0.00000000       0.050
   0.00000000  0.37500000  0.00000000       0.050
   0.00000000  0.50000000  0.00000000       0.025
   0.00000000  0.00000000  0.20000000       0.050
   0.00000000  0.12500000  0.20000000       0.100
   0.00000000  0.25000000  0.20000000       0.100
   0.00000000  0.37500000  0.20000000       0.100
   0.00000000  0.50000000  0.20000000       0.050
   0.00000000  0.00000000  0.40000000       0.050
   0.00000000  0.12500000  0.40000000       0.100
   0.00000000  0.25000000  0.40000000       0.100
   0.00000000  0.37500000  0.40000000       0.100
   0.00000000  0.50000000  0.40000000       0.050
 
 position of ions in fractional coordinates (direct lattice) 
   0.00569361  0.25000000  0.70416758
   0.38413044  0.75000002  0.29583242
   0.18192962  0.75000002  0.18550550
   0.20789443  0.25000000  0.81449448
   0.05978014  0.75000002  0.91561812
   0.33004391  0.25000000  0.08438186
   0.12784309  0.25000000  0.39612204
   0.26198096  0.75000002  0.60387800
   0.07289913  0.07283922  0.14250255
   0.31692492  0.92716077  0.85749743
   0.11472410  0.92864268  0.65953438
   0.27509995  0.07135731  0.34046562
   0.31692492  0.57283923  0.85749743
   0.07289913  0.42716077  0.14250255
   0.27509995  0.42864268  0.34046562
   0.11472410  0.57135732  0.65953438
   0.03110981  0.75000002  0.60005017
   0.35871423  0.25000000  0.39994983
   0.15651343  0.25000000  0.08107081
   0.23331063  0.75000002  0.91892917
   0.07418398  0.25000000  0.96042259
   0.31564007  0.75000002  0.03957742
   0.11343925  0.75000002  0.47739424
   0.27638480  0.25000000  0.52260567
 
 position of ions in cartesian coordinates  (Angst):
   0.13670066  1.69446242  8.16985316
   9.22276745  5.08338737  3.43229013
   4.36803341  5.08338737  2.15226139
   4.99143467  1.69446242  9.44988166
   1.43528938  5.08338737 10.62313264
   7.92417870  1.69446242  0.97901041
   3.06944466  1.69446242  4.59586471
   6.29002342  5.08338737  7.00627905
   1.75026941  0.49369331  1.65333497
   7.60919867  6.28415631  9.94880808
   2.75446463  6.29420050  7.65201240
   6.60500345  0.48364911  3.95013089
   7.60919867  3.88261820  9.94880808
   1.75026941  2.89523147  1.65333497
   6.60500345  2.90527566  3.95013089
   2.75446463  3.87257401  7.65201240
   0.74692994  5.08338737  6.96186809
   8.61253796  1.69446242  4.64027519
   3.75780416  1.69446242  0.94059517
   5.60166416  5.08338737 10.66154788
   1.78111780  1.69446242 11.14296056
   7.57835016  5.08338737  0.45918291
   2.72361612  5.08338737  5.53879643
   6.63585195  1.69446242  6.06334591
 


--------------------------------------------------------------------------------------------------------


 k-point  1 :   0.0000 0.0000 0.0000  plane waves:   47989
 k-point  2 :   0.0000 0.1250 0.0000  plane waves:   47929
 k-point  3 :   0.0000 0.2500 0.0000  plane waves:   47901
 k-point  4 :   0.0000 0.3750 0.0000  plane waves:   47910
 k-point  5 :   0.0000 0.5000 0.0000  plane waves:   47868
 k-point  6 :   0.0000 0.0000 0.2000  plane waves:   48006
 k-point  7 :   0.0000 0.1250 0.2000  plane waves:   47967
 k-point  8 :   0.0000 0.2500 0.2000  plane waves:   47907
 k-point  9 :   0.0000 0.3750 0.2000  plane waves:   47884
 k-point 10 :   0.0000 0.5000 0.2000  plane waves:   47884
 k-point 11 :   0.0000 0.0000 0.4000  plane waves:   47922
 k-point 12 :   0.0000 0.1250 0.4000  plane waves:   47954
 k-point 13 :   0.0000 0.2500 0.4000  plane waves:   47967
 k-point 14 :   0.0000 0.3750 0.4000  plane waves:   47928
 k-point 15 :   0.0000 0.5000 0.4000  plane waves:   47890

 maximum and minimum number of plane-waves per node :     12077    11868

 maximum number of plane-waves:     48006
 maximum index in each direction: 
   IXMAX=   43   IYMAX=   12   IZMAX=   21
   IXMIN=  -43   IYMIN=  -12   IZMIN=  -21


 real space projection operators:
  total allocation   :       4536.69 KBytes
  max/ min on nodes  :       1137.86       1129.38


 parallel 3D FFT for wavefunctions:
    minimum data exchange during FFTs selected (reduces bandwidth)
 parallel 3D FFT for charge:
    minimum data exchange during FFTs selected (reduces bandwidth)


 total amount of memory used by VASP MPI-rank0    79351. kBytes
=======================================================================

   base      :      30000. kBytes
   nonlr-proj:       2645. kBytes
   fftplans  :       5898. kBytes
   grid      :       8824. kBytes
   one-center:         93. kBytes
   wavefun   :      31891. kBytes
 
     INWAV:  cpu time    0.0001: real time    0.0002
 Broyden mixing: mesh for mixing (old mesh)
   NGX = 87   NGY = 25   NGZ = 43
  (NGX  =280   NGY  = 80   NGZ  =128)
  gives a total of  93525 points

 initial charge density was supplied:
 charge density of overlapping atoms calculated
 number of electron     144.0000000 magnetization 
 keeping initial charge density in first step


--------------------------------------------------------------------------------------------------------


 Maximum index for non-local projection operator          743
 Maximum index for augmentation-charges          601 (set IRDMAX)


--------------------------------------------------------------------------------------------------------


 First call to EWALD:  gamma=   0.143
 Maximum number of real-space cells 2x 5x 3
 Maximum number of reciprocal cells 5x 2x 3

    FEWALD:  cpu time    0.0109: real time    0.0109


--------------------------------------- Iteration      1(   1)  ---------------------------------------


    POTLOK:  cpu time    0.0680: real time    0.1446
    SETDIJ:  cpu time    0.0024: real time    0.0028
     EDDAV:  cpu time    2.7323: real time    2.7459
 BZINTS: Fermi energy:  7.020845;144.000000 electrons
         Band energy:-462.658742;  BLOECHL correction: -0.027781
       DOS:  cpu time    0.0127: real time    0.0127
    --------------------------------------------
      LOOP:  cpu time    2.8154: real time    2.9060

 eigenvalue-minimisations  :  2768
 total energy-change (2. order) : 0.1183802E+04  (-0.4781549E+04)
 number of electron     144.0000000 magnetization 
 augmentation part      144.0000000 magnetization 

 Free energy of the ion-electron system (eV)
  ---------------------------------------------------
  alpha Z        PSCENC =       170.45750602
  Ewald energy   TEWEN  =     11480.74168658
  -Hartree energ DENC   =    -17599.14493850
  -exchange      EXHF   =         0.00000000
  -V(xc)+E(xc)   XCENC  =        41.88659030
  PAW double counting   =      3692.15173346    -3390.49189382
  entropy T*S    EENTRO =         0.00000000
  eigenvalues    EBANDS =      -462.65874228
  atomic energy  EATOM  =      7250.85976021
  Solvation  Ediel_sol  =         0.00000000
  ---------------------------------------------------
  free energy    TOTEN  =      1183.80170197 eV

  energy without entropy =     1183.80170197  energy(sigma->0) =     1183.80170197


--------------------------------------------------------------------------------------------------------




--------------------------------------- Iteration      1(   2)  ---------------------------------------


     EDDAV:  cpu time    3.4614: real time    3.4817
 BZINTS: Fermi energy: -2.032825;144.000000 electrons
         Band energy:***********;  BLOECHL correction:  0.000000
       DOS:  cpu time    0.0021: real time    0.0021
    --------------------------------------------
      LOOP:  cpu time    3.4635: real time    3.4838

 eigenvalue-minimisations  :  3840
 total energy-change (2. order) :-0.1123951E+04  (-0.1094932E+04)
 number of electron     144.0000000 magnetization 
 augmentation part      144.0000000 magnetization 

 Free energy of the ion-electron system (eV)
  ---------------------------------------------------
  alpha Z        PSCENC =       170.45750602
  Ewald energy   TEWEN  =     11480.74168658
  -Hartree energ DENC   =    -17599.14493850
  -exchange      EXHF   =         0.00000000
  -V(xc)+E(xc)   XCENC  =        41.88659030
  PAW double counting   =      3692.15173346    -3390.49189382
  entropy T*S    EENTRO =         0.00000000
  eigenvalues    EBANDS =     -1586.60978916
  atomic energy  EATOM  =      7250.85976021
  Solvation  Ediel_sol  =         0.00000000
  ---------------------------------------------------
  free energy    TOTEN  =        59.85065508 eV

  energy without entropy =       59.85065508  energy(sigma->0) =       59.85065508


--------------------------------------------------------------------------------------------------------




--------------------------------------- Iteration      1(   3)  ---------------------------------------


     EDDAV:  cpu time    2.8637: real time    2.8820
 BZINTS: Fermi energy: -3.321290;144.000000 electrons
         Band energy:***********;  BLOECHL correction:  0.000000
       DOS:  cpu time    0.0019: real time    0.0020
    --------------------------------------------
      LOOP:  cpu time    2.8657: real time    2.8839

 eigenvalue-minimisations  :  3232
 total energy-change (2. order) :-0.1684670E+03  (-0.1677742E+03)
 number of electron     144.0000000 magnetization 
 augmentation part      144.0000000 magnetization 

 Free energy of the ion-electron system (eV)
  ---------------------------------------------------
  alpha Z        PSCENC =       170.45750602
  Ewald energy   TEWEN  =     11480.74168658
  -Hartree energ DENC   =    -17599.14493850
  -exchange      EXHF   =         0.00000000
  -V(xc)+E(xc)   XCENC  =        41.88659030
  PAW double counting   =      3692.15173346    -3390.49189382
  entropy T*S    EENTRO =         0.00000000
  eigenvalues    EBANDS =     -1755.07682640
  atomic energy  EATOM  =      7250.85976021
  Solvation  Ediel_sol  =         0.00000000
  ---------------------------------------------------
  free energy    TOTEN  =      -108.61638215 eV

  energy without entropy =     -108.61638215  energy(sigma->0) =     -108.61638215


--------------------------------------------------------------------------------------------------------




--------------------------------------- Iteration      1(   4)  ---------------------------------------


     EDDAV:  cpu time    3.4658: real time    3.4856
 BZINTS: Fermi energy: -3.369210;144.000000 electrons
         Band energy:***********;  BLOECHL correction:  0.000000
       DOS:  cpu time    0.0020: real time    0.0020
    --------------------------------------------
      LOOP:  cpu time    3.4678: real time    3.4876

 eigenvalue-minimisations  :  3744
 total energy-change (2. order) :-0.6006109E+01  (-0.5989734E+01)
 number of electron     144.0000000 magnetization 
 augmentation part      144.0000000 magnetization 

 Free energy of the ion-electron system (eV)
  ---------------------------------------------------
  alpha Z        PSCENC =       170.45750602
  Ewald energy   TEWEN  =     11480.74168658
  -Hartree energ DENC   =    -17599.14493850
  -exchange      EXHF   =         0.00000000
  -V(xc)+E(xc)   XCENC  =        41.88659030
  PAW double counting   =      3692.15173346    -3390.49189382
  entropy T*S    EENTRO =         0.00000000
  eigenvalues    EBANDS =     -1761.08293552
  atomic energy  EATOM  =      7250.85976021
  Solvation  Ediel_sol  =         0.00000000
  ---------------------------------------------------
  free energy    TOTEN  =      -114.62249128 eV

  energy without entropy =     -114.62249128  energy(sigma->0) =     -114.62249128


--------------------------------------------------------------------------------------------------------




--------------------------------------- Iteration      1(   5)  ---------------------------------------


     EDDAV:  cpu time    3.7049: real time    3.7246
 BZINTS: Fermi energy: -3.346760;144.000000 electrons
         Band energy:***********;  BLOECHL correction:  0.000000
       DOS:  cpu time    0.0024: real time    0.0024
    CHARGE:  cpu time    0.1605: real time    0.1610
    MIXING:  cpu time    0.0065: real time    0.0071
    --------------------------------------------
      LOOP:  cpu time    3.8743: real time    3.8951

 eigenvalue-minimisations  :  4184
 total energy-change (2. order) :-0.2819206E+00  (-0.2818372E+00)
 number of electron     144.0000001 magnetization 
 augmentation part      -17.5386735 magnetization 

 Broyden mixing:
  rms(total) = 0.91711E+00    rms(broyden)= 0.91710E+00
  rms(prec ) = 0.11908E+01
  weight for this iteration     100.00

 Free energy of the ion-electron system (eV)
  ---------------------------------------------------
  alpha Z        PSCENC =       170.45750602
  Ewald energy   TEWEN  =     11480.74168658
  -Hartree energ DENC   =    -17599.14493850
  -exchange      EXHF   =         0.00000000
  -V(xc)+E(xc)   XCENC  =        41.88659030
  PAW double counting   =      3692.15173346    -3390.49189382
  entropy T*S    EENTRO =         0.00000000
  eigenvalues    EBANDS =     -1761.36485613
  atomic energy  EATOM  =      7250.85976021
  Solvation  Ediel_sol  =         0.00000000
  ---------------------------------------------------
  free energy    TOTEN  =      -114.90441188 eV

  energy without entropy =     -114.90441188  energy(sigma->0) =     -114.90441188


--------------------------------------------------------------------------------------------------------




--------------------------------------- Iteration      1(   6)  ---------------------------------------


    POTLOK:  cpu time    0.0603: real time    0.0725
    SETDIJ:  cpu time    0.0017: real time    0.0017
     EDDAV:  cpu time    2.8235: real time    2.8301
 BZINTS: Fermi energy: -2.247511;144.000000 electrons
         Band energy:***********;  BLOECHL correction:  0.000000
       DOS:  cpu time    0.0021: real time    0.0021
    CHARGE:  cpu time    0.1488: real time    0.1491
    MIXING:  cpu time    0.0062: real time    0.0063
    --------------------------------------------
      LOOP:  cpu time    3.0426: real time    3.0620

 eigenvalue-minimisations  :  3000
 total energy-change (2. order) : 0.8246499E+01  (-0.2045310E+01)
 number of electron     144.0000000 magnetization 
 augmentation part      -17.4278503 magnetization 

 Broyden mixing:
  rms(total) = 0.46459E+00    rms(broyden)= 0.46459E+00
  rms(prec ) = 0.58448E+00
  weight for this iteration     100.00

 eigenvalues of (default mixing * dielectric matrix)
  average eigenvalue GAMMA=   1.5431
  1.5431

 Free energy of the ion-electron system (eV)
  ---------------------------------------------------
  alpha Z        PSCENC =       170.45750602
  Ewald energy   TEWEN  =     11480.74168658
  -Hartree energ DENC   =    -17691.34177006
  -exchange      EXHF   =         0.00000000
  -V(xc)+E(xc)   XCENC  =        44.71327759
  PAW double counting   =      3726.31111322    -3431.81699398
  entropy T*S    EENTRO =         0.00000000
  eigenvalues    EBANDS =     -1656.58249241
  atomic energy  EATOM  =      7250.85976021
  Solvation  Ediel_sol  =         0.00000000
  ---------------------------------------------------
  free energy    TOTEN  =      -106.65791282 eV

  energy without entropy =     -106.65791282  energy(sigma->0) =     -106.65791282


--------------------------------------------------------------------------------------------------------




--------------------------------------- Iteration      1(   7)  ---------------------------------------


    POTLOK:  cpu time    0.0610: real time    0.0760
    SETDIJ:  cpu time    0.0016: real time    0.0016
     EDDAV:  cpu time    3.1195: real time    3.1293
 BZINTS: Fermi energy: -1.439450;144.000000 electrons
         Band energy:***********;  BLOECHL correction:  0.000000
       DOS:  cpu time    0.0020: real time    0.0020
    CHARGE:  cpu time    0.1509: real time    0.1513
    MIXING:  cpu time    0.0046: real time    0.0050
    --------------------------------------------
      LOOP:  cpu time    3.3396: real time    3.3651

 eigenvalue-minimisations  :  3480
 total energy-change (2. order) : 0.1314204E+01  (-0.9874918E+00)
 number of electron     144.0000000 magnetization 
 augmentation part      -17.5158658 magnetization 

 Broyden mixing:
  rms(total) = 0.24396E+00    rms(broyden)= 0.24396E+00
  rms(prec ) = 0.29545E+00
  weight for this iteration     100.00

 eigenvalues of (default mixing * dielectric matrix)
  average eigenvalue GAMMA=   1.8564
  1.8564  1.8564

 Free energy of the ion-electron system (eV)
  ---------------------------------------------------
  alpha Z        PSCENC =       170.45750602
  Ewald energy   TEWEN  =     11480.74168658
  -Hartree energ DENC   =    -17768.78825400
  -exchange      EXHF   =         0.00000000
  -V(xc)+E(xc)   XCENC  =        47.01178342
  PAW double counting   =      3770.86697434    -3482.18627129
  entropy T*S    EENTRO =         0.00000000
  eigenvalues    EBANDS =     -1574.30689445
  atomic energy  EATOM  =      7250.85976021
  Solvation  Ediel_sol  =         0.00000000
  ---------------------------------------------------
  free energy    TOTEN  =      -105.34370917 eV

  energy without entropy =     -105.34370917  energy(sigma->0) =     -105.34370917


--------------------------------------------------------------------------------------------------------




--------------------------------------- Iteration      1(   8)  ---------------------------------------


    POTLOK:  cpu time    0.0566: real time    0.0680
    SETDIJ:  cpu time    0.0018: real time    0.0018
     EDDAV:  cpu time    2.9529: real time    2.9599
 BZINTS: Fermi energy: -1.251750;144.000000 electrons
         Band energy:***********;  BLOECHL correction:  0.000000
       DOS:  cpu time    0.0020: real time    0.0020
    CHARGE:  cpu time    0.1495: real time    0.1498
    MIXING:  cpu time    0.0069: real time    0.0072
    --------------------------------------------
      LOOP:  cpu time    3.1696: real time    3.1887

 eigenvalue-minimisations  :  3104
 total energy-change (2. order) : 0.2167189E+00  (-0.3525403E+00)
 number of electron     144.0000001 magnetization 
 augmentation part      -17.6465001 magnetization 

 Broyden mixing:
  rms(total) = 0.11603E+00    rms(broyden)= 0.11603E+00
  rms(prec ) = 0.18809E+00
  weight for this iteration     100.00

 eigenvalues of (default mixing * dielectric matrix)
  average eigenvalue GAMMA=   1.6806
  2.6148  1.2135  1.2135

 Free energy of the ion-electron system (eV)
  ---------------------------------------------------
  alpha Z        PSCENC =       170.45750602
  Ewald energy   TEWEN  =     11480.74168658
  -Hartree energ DENC   =    -17805.35764942
  -exchange      EXHF   =         0.00000000
  -V(xc)+E(xc)   XCENC  =        47.95196026
  PAW double counting   =      3820.24334843    -3533.35688537
  entropy T*S    EENTRO =         0.00000000
  eigenvalues    EBANDS =     -1536.66671701
  atomic energy  EATOM  =      7250.85976021
  Solvation  Ediel_sol  =         0.00000000
  ---------------------------------------------------
  free energy    TOTEN  =      -105.12699029 eV

  energy without entropy =     -105.12699029  energy(sigma->0) =     -105.12699029


--------------------------------------------------------------------------------------------------------




--------------------------------------- Iteration      1(   9)  ---------------------------------------


    POTLOK:  cpu time    0.0643: real time    0.0745
    SETDIJ:  cpu time    0.0020: real time    0.0020
     EDDAV:  cpu time    2.9078: real time    2.9147
 BZINTS: Fermi energy: -0.854339;144.000000 electrons
         Band energy:***********;  BLOECHL correction:  0.000000
       DOS:  cpu time    0.0020: real time    0.0020
    CHARGE:  cpu time    0.1508: real time    0.1511
    MIXING:  cpu time    0.0058: real time    0.0058
    --------------------------------------------
      LOOP:  cpu time    3.1326: real time    3.1501

 eigenvalue-minimisations  :  3112
 total energy-change (2. order) : 0.2735196E+00  (-0.1129278E+00)
 number of electron     144.0000000 magnetization 
 augmentation part      -17.6205253 magnetization 

 Broyden mixing:
  rms(total) = 0.56411E-01    rms(broyden)= 0.56410E-01
  rms(prec ) = 0.81556E-01
  weight for this iteration     100.00

 eigenvalues of (default mixing * dielectric matrix)
  average eigenvalue GAMMA=   1.4150
  2.5438  1.2160  1.2160  0.6840

 Free energy of the ion-electron system (eV)
  ---------------------------------------------------
  alpha Z        PSCENC =       170.45750602
  Ewald energy   TEWEN  =     11480.74168658
  -Hartree energ DENC   =    -17845.35131689
  -exchange      EXHF   =         0.00000000
  -V(xc)+E(xc)   XCENC  =        48.88988542
  PAW double counting   =      3830.84185661    -3545.28468837
  entropy T*S    EENTRO =         0.00000000
  eigenvalues    EBANDS =     -1496.00816031
  atomic energy  EATOM  =      7250.85976021
  Solvation  Ediel_sol  =         0.00000000
  ---------------------------------------------------
  free energy    TOTEN  =      -104.85347072 eV

  energy without entropy =     -104.85347072  energy(sigma->0) =     -104.85347072


--------------------------------------------------------------------------------------------------------




--------------------------------------- Iteration      1(  10)  ---------------------------------------


    POTLOK:  cpu time    0.0559: real time    0.0674
    SETDIJ:  cpu time    0.0015: real time    0.0015
     EDDAV:  cpu time    3.1214: real time    3.1288
 BZINTS: Fermi energy: -0.802296;144.000000 electrons
         Band energy:***********;  BLOECHL correction:  0.000000
       DOS:  cpu time    0.0020: real time    0.0020
    CHARGE:  cpu time    0.1485: real time    0.1489
    MIXING:  cpu time    0.0051: real time    0.0051
    --------------------------------------------
      LOOP:  cpu time    3.3344: real time    3.3537

 eigenvalue-minimisations  :  3496
 total energy-change (2. order) :-0.1509334E-01  (-0.2504937E-01)
 number of electron     144.0000000 magnetization 
 augmentation part      -17.6412515 magnetization 

 Broyden mixing:
  rms(total) = 0.42572E-01    rms(broyden)= 0.42572E-01
  rms(prec ) = 0.63520E-01
  weight for this iteration     100.00

 eigenvalues of (default mixing * dielectric matrix)
  average eigenvalue GAMMA=   1.6191
  2.5231  2.5231  1.1111  0.9692  0.9692

 Free energy of the ion-electron system (eV)
  ---------------------------------------------------
  alpha Z        PSCENC =       170.45750602
  Ewald energy   TEWEN  =     11480.74168658
  -Hartree energ DENC   =    -17856.00728377
  -exchange      EXHF   =         0.00000000
  -V(xc)+E(xc)   XCENC  =        48.91684679
  PAW double counting   =      3826.11743654    -3540.23985819
  entropy T*S    EENTRO =         0.00000000
  eigenvalues    EBANDS =     -1485.71465824
  atomic energy  EATOM  =      7250.85976021
  Solvation  Ediel_sol  =         0.00000000
  ---------------------------------------------------
  free energy    TOTEN  =      -104.86856405 eV

  energy without entropy =     -104.86856405  energy(sigma->0) =     -104.86856405


--------------------------------------------------------------------------------------------------------




--------------------------------------- Iteration      1(  11)  ---------------------------------------


    POTLOK:  cpu time    0.0607: real time    0.0723
    SETDIJ:  cpu time    0.0020: real time    0.0020
     EDDAV:  cpu time    2.9973: real time    3.0044
 BZINTS: Fermi energy: -0.667454;144.000000 electrons
         Band energy:***********;  BLOECHL correction:  0.000000
       DOS:  cpu time    0.0019: real time    0.0019
    CHARGE:  cpu time    0.1473: real time    0.1477
    MIXING:  cpu time    0.0057: real time    0.0058
    --------------------------------------------
      LOOP:  cpu time    3.2150: real time    3.2341

 eigenvalue-minimisations  :  3136
 total energy-change (2. order) : 0.8376847E-02  (-0.7148527E-02)
 number of electron     144.0000000 magnetization 
 augmentation part      -17.6472726 magnetization 

 Broyden mixing:
  rms(total) = 0.16158E-01    rms(broyden)= 0.16158E-01
  rms(prec ) = 0.32131E-01
  weight for this iteration     100.00

 eigenvalues of (default mixing * dielectric matrix)
  average eigenvalue GAMMA=   1.6294
  2.8565  2.8565  1.1450  1.0087  0.9548  0.9548

 Free energy of the ion-electron system (eV)
  ---------------------------------------------------
  alpha Z        PSCENC =       170.45750602
  Ewald energy   TEWEN  =     11480.74168658
  -Hartree energ DENC   =    -17875.96096515
  -exchange      EXHF   =         0.00000000
  -V(xc)+E(xc)   XCENC  =        49.09536401
  PAW double counting   =      3827.14489335    -3540.93384253
  entropy T*S    EENTRO =         0.00000000
  eigenvalues    EBANDS =     -1466.26458970
  atomic energy  EATOM  =      7250.85976021
  Solvation  Ediel_sol  =         0.00000000
  ---------------------------------------------------
  free energy    TOTEN  =      -104.86018720 eV

  energy without entropy =     -104.86018720  energy(sigma->0) =     -104.86018720


--------------------------------------------------------------------------------------------------------




--------------------------------------- Iteration      1(  12)  ---------------------------------------


    POTLOK:  cpu time    0.0590: real time    0.0706
    SETDIJ:  cpu time    0.0016: real time    0.0016
     EDDAV:  cpu time    2.9639: real time    2.9709
 BZINTS: Fermi energy: -0.590522;144.000000 electrons
         Band energy:***********;  BLOECHL correction:  0.000000
       DOS:  cpu time    0.0020: real time    0.0020
    CHARGE:  cpu time    0.1575: real time    0.1579
    MIXING:  cpu time    0.0053: real time    0.0054
    --------------------------------------------
      LOOP:  cpu time    3.1893: real time    3.2084

 eigenvalue-minimisations  :  3104
 total energy-change (2. order) :-0.4964425E-02  (-0.1552653E-02)
 number of electron     144.0000000 magnetization 
 augmentation part      -17.6416830 magnetization 

 Broyden mixing:
  rms(total) = 0.12437E-01    rms(broyden)= 0.12437E-01
  rms(prec ) = 0.21268E-01
  weight for this iteration     100.00

 eigenvalues of (default mixing * dielectric matrix)
  average eigenvalue GAMMA=   1.7767
  3.8084  2.5460  2.0278  1.1275  1.1275  0.8998  0.8998

 Free energy of the ion-electron system (eV)
  ---------------------------------------------------
  alpha Z        PSCENC =       170.45750602
  Ewald energy   TEWEN  =     11480.74168658
  -Hartree energ DENC   =    -17888.39935541
  -exchange      EXHF   =         0.00000000
  -V(xc)+E(xc)   XCENC  =        49.15775235
  PAW double counting   =      3824.90823043    -3538.54969433
  entropy T*S    EENTRO =         0.00000000
  eigenvalues    EBANDS =     -1454.04103748
  atomic energy  EATOM  =      7250.85976021
  Solvation  Ediel_sol  =         0.00000000
  ---------------------------------------------------
  free energy    TOTEN  =      -104.86515163 eV

  energy without entropy =     -104.86515163  energy(sigma->0) =     -104.86515163


--------------------------------------------------------------------------------------------------------




--------------------------------------- Iteration      1(  13)  ---------------------------------------


    POTLOK:  cpu time    0.0581: real time    0.0693
    SETDIJ:  cpu time    0.0016: real time    0.0016
     EDDAV:  cpu time    2.9203: real time    2.9272
 BZINTS: Fermi energy: -0.529713;144.000000 electrons
         Band energy:***********;  BLOECHL correction:  0.000000
       DOS:  cpu time    0.0019: real time    0.0019
    CHARGE:  cpu time    0.1435: real time    0.1438
    MIXING:  cpu time    0.0061: real time    0.0061
    --------------------------------------------
      LOOP:  cpu time    3.1315: real time    3.1500

 eigenvalue-minimisations  :  3240
 total energy-change (2. order) :-0.9178386E-02  (-0.1026932E-02)
 number of electron     144.0000000 magnetization 
 augmentation part      -17.6433893 magnetization 

 Broyden mixing:
  rms(total) = 0.65670E-02    rms(broyden)= 0.65670E-02
  rms(prec ) = 0.11407E-01
  weight for this iteration     100.00

 eigenvalues of (default mixing * dielectric matrix)
  average eigenvalue GAMMA=   1.8354
  4.2223  2.9224  2.4404  1.2166  1.2166  0.8978  0.8837  0.8837

 Free energy of the ion-electron system (eV)
  ---------------------------------------------------
  alpha Z        PSCENC =       170.45750602
  Ewald energy   TEWEN  =     11480.74168658
  -Hartree energ DENC   =    -17899.08352298
  -exchange      EXHF   =         0.00000000
  -V(xc)+E(xc)   XCENC  =        49.21602996
  PAW double counting   =      3823.14929629    -3536.90998118
  entropy T*S    EENTRO =         0.00000000
  eigenvalues    EBANDS =     -1443.30510491
  atomic energy  EATOM  =      7250.85976021
  Solvation  Ediel_sol  =         0.00000000
  ---------------------------------------------------
  free energy    TOTEN  =      -104.87433002 eV

  energy without entropy =     -104.87433002  energy(sigma->0) =     -104.87433002


--------------------------------------------------------------------------------------------------------




--------------------------------------- Iteration      1(  14)  ---------------------------------------


    POTLOK:  cpu time    0.0574: real time    0.0683
    SETDIJ:  cpu time    0.0034: real time    0.0034
     EDDAV:  cpu time    2.8403: real time    2.8471
 BZINTS: Fermi energy: -0.511450;144.000000 electrons
         Band energy:***********;  BLOECHL correction:  0.000000
       DOS:  cpu time    0.0021: real time    0.0021
    CHARGE:  cpu time    0.1454: real time    0.1458
    MIXING:  cpu time    0.0059: real time    0.0059
    --------------------------------------------
      LOOP:  cpu time    3.0546: real time    3.0726

 eigenvalue-minimisations  :  3048
 total energy-change (2. order) :-0.5096658E-02  (-0.2893213E-03)
 number of electron     144.0000000 magnetization 
 augmentation part      -17.6441667 magnetization 

 Broyden mixing:
  rms(total) = 0.55513E-02    rms(broyden)= 0.55513E-02
  rms(prec ) = 0.88609E-02
  weight for this iteration     100.00

 eigenvalues of (default mixing * dielectric matrix)
  average eigenvalue GAMMA=   1.8614
  4.6462  3.1228  2.1853  1.4521  1.4521  0.9085  0.9085  1.0385  1.0385

 Free energy of the ion-electron system (eV)
  ---------------------------------------------------
  alpha Z        PSCENC =       170.45750602
  Ewald energy   TEWEN  =     11480.74168658
  -Hartree energ DENC   =    -17902.46318889
  -exchange      EXHF   =         0.00000000
  -V(xc)+E(xc)   XCENC  =        49.21541750
  PAW double counting   =      3822.22842102    -3536.00112312
  entropy T*S    EENTRO =         0.00000000
  eigenvalues    EBANDS =     -1439.91790599
  atomic energy  EATOM  =      7250.85976021
  Solvation  Ediel_sol  =         0.00000000
  ---------------------------------------------------
  free energy    TOTEN  =      -104.87942667 eV

  energy without entropy =     -104.87942667  energy(sigma->0) =     -104.87942667


--------------------------------------------------------------------------------------------------------




--------------------------------------- Iteration      1(  15)  ---------------------------------------


    POTLOK:  cpu time    0.0680: real time    0.0788
    SETDIJ:  cpu time    0.0018: real time    0.0018
     EDDAV:  cpu time    2.8528: real time    2.8596
 BZINTS: Fermi energy: -0.499977;144.000000 electrons
         Band energy:***********;  BLOECHL correction:  0.000000
       DOS:  cpu time    0.0019: real time    0.0020
    CHARGE:  cpu time    0.1465: real time    0.1468
    MIXING:  cpu time    0.0065: real time    0.0065
    --------------------------------------------
      LOOP:  cpu time    3.0775: real time    3.0954

 eigenvalue-minimisations  :  3040
 total energy-change (2. order) :-0.1682283E-02  (-0.1809240E-03)
 number of electron     144.0000000 magnetization 
 augmentation part      -17.6460775 magnetization 

 Broyden mixing:
  rms(total) = 0.21518E-02    rms(broyden)= 0.21518E-02
  rms(prec ) = 0.41621E-02
  weight for this iteration     100.00

 eigenvalues of (default mixing * dielectric matrix)
  average eigenvalue GAMMA=   1.9590
  5.4144  3.6054  2.4346  1.7232  0.9046  0.9046  1.2494  1.2494  1.0052  1.0994

 Free energy of the ion-electron system (eV)
  ---------------------------------------------------
  alpha Z        PSCENC =       170.45750602
  Ewald energy   TEWEN  =     11480.74168658
  -Hartree energ DENC   =    -17904.09847871
  -exchange      EXHF   =         0.00000000
  -V(xc)+E(xc)   XCENC  =        49.20843423
  PAW double counting   =      3822.68412747    -3536.42165803
  entropy T*S    EENTRO =         0.00000000
  eigenvalues    EBANDS =     -1438.31248673
  atomic energy  EATOM  =      7250.85976021
  Solvation  Ediel_sol  =         0.00000000
  ---------------------------------------------------
  free energy    TOTEN  =      -104.88110896 eV

  energy without entropy =     -104.88110896  energy(sigma->0) =     -104.88110896


--------------------------------------------------------------------------------------------------------




--------------------------------------- Iteration      1(  16)  ---------------------------------------


    POTLOK:  cpu time    0.0666: real time    0.0784
    SETDIJ:  cpu time    0.0016: real time    0.0016
     EDDAV:  cpu time    2.8975: real time    2.9044
 BZINTS: Fermi energy: -0.490620;144.000000 electrons
         Band energy:***********;  BLOECHL correction:  0.000000
       DOS:  cpu time    0.0021: real time    0.0021
    CHARGE:  cpu time    0.1403: real time    0.1406
    MIXING:  cpu time    0.0055: real time    0.0056
    --------------------------------------------
      LOOP:  cpu time    3.1137: real time    3.1328

 eigenvalue-minimisations  :  3120
 total energy-change (2. order) :-0.9337651E-03  (-0.6896188E-04)
 number of electron     144.0000000 magnetization 
 augmentation part      -17.6459461 magnetization 

 Broyden mixing:
  rms(total) = 0.15232E-02    rms(broyden)= 0.15232E-02
  rms(prec ) = 0.27722E-02
  weight for this iteration     100.00

 eigenvalues of (default mixing * dielectric matrix)
  average eigenvalue GAMMA=   2.0098
  5.6529  4.0761  2.4967  1.7530  1.7530  0.9079  0.9079  1.2738  1.2738  1.0062
  1.0062

 Free energy of the ion-electron system (eV)
  ---------------------------------------------------
  alpha Z        PSCENC =       170.45750602
  Ewald energy   TEWEN  =     11480.74168658
  -Hartree energ DENC   =    -17905.48627954
  -exchange      EXHF   =         0.00000000
  -V(xc)+E(xc)   XCENC  =        49.20543118
  PAW double counting   =      3822.87563545    -3536.61993691
  entropy T*S    EENTRO =         0.00000000
  eigenvalues    EBANDS =     -1436.91584571
  atomic energy  EATOM  =      7250.85976021
  Solvation  Ediel_sol  =         0.00000000
  ---------------------------------------------------
  free energy    TOTEN  =      -104.88204272 eV

  energy without entropy =     -104.88204272  energy(sigma->0) =     -104.88204272


--------------------------------------------------------------------------------------------------------




--------------------------------------- Iteration      1(  17)  ---------------------------------------


    POTLOK:  cpu time    0.0555: real time    0.0670
    SETDIJ:  cpu time    0.0015: real time    0.0015
     EDDAV:  cpu time    2.8718: real time    2.8786
 BZINTS: Fermi energy: -0.483319;144.000000 electrons
         Band energy:***********;  BLOECHL correction:  0.000000
       DOS:  cpu time    0.0020: real time    0.0020
    CHARGE:  cpu time    0.1470: real time    0.1474
    MIXING:  cpu time    0.0055: real time    0.0056
    --------------------------------------------
      LOOP:  cpu time    3.0833: real time    3.1020

 eigenvalue-minimisations  :  3120
 total energy-change (2. order) :-0.4511088E-03  (-0.3027842E-04)
 number of electron     144.0000000 magnetization 
 augmentation part      -17.6459088 magnetization 

 Broyden mixing:
  rms(total) = 0.10248E-02    rms(broyden)= 0.10248E-02
  rms(prec ) = 0.18802E-02
  weight for this iteration     100.00

 eigenvalues of (default mixing * dielectric matrix)
  average eigenvalue GAMMA=   2.0469
  6.0446  4.3160  2.7693  2.2230  1.6296  0.9064  0.9064  1.3253  1.3253  0.9635
  1.0765  1.0765

 Free energy of the ion-electron system (eV)
  ---------------------------------------------------
  alpha Z        PSCENC =       170.45750602
  Ewald energy   TEWEN  =     11480.74168658
  -Hartree energ DENC   =    -17906.45448160
  -exchange      EXHF   =         0.00000000
  -V(xc)+E(xc)   XCENC  =        49.20700960
  PAW double counting   =      3822.92103912    -3536.66296592
  entropy T*S    EENTRO =         0.00000000
  eigenvalues    EBANDS =     -1435.95204785
  atomic energy  EATOM  =      7250.85976021
  Solvation  Ediel_sol  =         0.00000000
  ---------------------------------------------------
  free energy    TOTEN  =      -104.88249383 eV

  energy without entropy =     -104.88249383  energy(sigma->0) =     -104.88249383


--------------------------------------------------------------------------------------------------------




--------------------------------------- Iteration      1(  18)  ---------------------------------------


    POTLOK:  cpu time    0.0582: real time    0.0707
    SETDIJ:  cpu time    0.0016: real time    0.0016
     EDDAV:  cpu time    2.8705: real time    2.8773
 BZINTS: Fermi energy: -0.479760;144.000000 electrons
         Band energy:***********;  BLOECHL correction:  0.000000
       DOS:  cpu time    0.0019: real time    0.0019
    CHARGE:  cpu time    0.1748: real time    0.1752
    MIXING:  cpu time    0.0068: real time    0.0069
    --------------------------------------------
      LOOP:  cpu time    3.1139: real time    3.1336

 eigenvalue-minimisations  :  2992
 total energy-change (2. order) :-0.8942666E-03  (-0.1726250E-04)
 number of electron     144.0000000 magnetization 
 augmentation part      -17.6457323 magnetization 

 Broyden mixing:
  rms(total) = 0.58897E-03    rms(broyden)= 0.58897E-03
  rms(prec ) = 0.10357E-02
  weight for this iteration     100.00

 eigenvalues of (default mixing * dielectric matrix)
  average eigenvalue GAMMA=   2.1236
  6.3352  5.0470  2.9685  2.5071  1.8755  0.9059  0.9059  1.3734  1.3734  1.1884
  1.1884  0.9690  0.9690

 Free energy of the ion-electron system (eV)
  ---------------------------------------------------
  alpha Z        PSCENC =       170.45750602
  Ewald energy   TEWEN  =     11480.74168658
  -Hartree energ DENC   =    -17907.14864968
  -exchange      EXHF   =         0.00000000
  -V(xc)+E(xc)   XCENC  =        49.20904607
  PAW double counting   =      3822.86217634    -3536.60189251
  entropy T*S    EENTRO =         0.00000000
  eigenvalues    EBANDS =     -1435.26302113
  atomic energy  EATOM  =      7250.85976021
  Solvation  Ediel_sol  =         0.00000000
  ---------------------------------------------------
  free energy    TOTEN  =      -104.88338810 eV

  energy without entropy =     -104.88338810  energy(sigma->0) =     -104.88338810


--------------------------------------------------------------------------------------------------------




--------------------------------------- Iteration      1(  19)  ---------------------------------------


    POTLOK:  cpu time    0.0589: real time    0.0693
    SETDIJ:  cpu time    0.0017: real time    0.0017
     EDDAV:  cpu time    2.6305: real time    2.6367
 BZINTS: Fermi energy: -0.479588;144.000000 electrons
         Band energy:***********;  BLOECHL correction:  0.000000
       DOS:  cpu time    0.0021: real time    0.0021
    CHARGE:  cpu time    0.1632: real time    0.1636
    MIXING:  cpu time    0.0062: real time    0.0062
    --------------------------------------------
      LOOP:  cpu time    2.8625: real time    2.8796

 eigenvalue-minimisations  :  2648
 total energy-change (2. order) :-0.6955520E-03  (-0.8742711E-05)
 number of electron     144.0000000 magnetization 
 augmentation part      -17.6458830 magnetization 

 Broyden mixing:
  rms(total) = 0.45505E-03    rms(broyden)= 0.45505E-03
  rms(prec ) = 0.66421E-03
  weight for this iteration     100.00

 eigenvalues of (default mixing * dielectric matrix)
  average eigenvalue GAMMA=   2.2475
  6.9692  5.6526  3.4135  2.7073  2.2460  1.6137  1.6137  0.9058  0.9058  1.2223
  1.2223  1.0119  1.0119  0.9683

 Free energy of the ion-electron system (eV)
  ---------------------------------------------------
  alpha Z        PSCENC =       170.45750602
  Ewald energy   TEWEN  =     11480.74168658
  -Hartree energ DENC   =    -17907.38110648
  -exchange      EXHF   =         0.00000000
  -V(xc)+E(xc)   XCENC  =        49.20760072
  PAW double counting   =      3822.81321512    -3536.55209868
  entropy T*S    EENTRO =         0.00000000
  eigenvalues    EBANDS =     -1435.03064714
  atomic energy  EATOM  =      7250.85976021
  Solvation  Ediel_sol  =         0.00000000
  ---------------------------------------------------
  free energy    TOTEN  =      -104.88408365 eV

  energy without entropy =     -104.88408365  energy(sigma->0) =     -104.88408365


--------------------------------------------------------------------------------------------------------




--------------------------------------- Iteration      1(  20)  ---------------------------------------


    POTLOK:  cpu time    0.0743: real time    0.0858
    SETDIJ:  cpu time    0.0017: real time    0.0017
     EDDAV:  cpu time    2.6256: real time    2.6318
 BZINTS: Fermi energy: -0.480090;144.000000 electrons
         Band energy:***********;  BLOECHL correction:  0.000000
       DOS:  cpu time    0.0020: real time    0.0020
    CHARGE:  cpu time    0.1403: real time    0.1407
    MIXING:  cpu time    0.0059: real time    0.0059
    --------------------------------------------
      LOOP:  cpu time    2.8498: real time    2.8679

 eigenvalue-minimisations  :  2728
 total energy-change (2. order) :-0.4518274E-03  (-0.7963280E-05)
 number of electron     144.0000000 magnetization 
 augmentation part      -17.6459576 magnetization 

 Broyden mixing:
  rms(total) = 0.17366E-03    rms(broyden)= 0.17366E-03
  rms(prec ) = 0.24668E-03
  weight for this iteration     100.00

 eigenvalues of (default mixing * dielectric matrix)
  average eigenvalue GAMMA=   2.3118
  7.6306  6.3392  3.4835  3.0509  2.3126  1.6911  1.6911  0.9059  0.9059  1.2596
  1.2596  1.1153  1.1153  0.9585  0.9585

 Free energy of the ion-electron system (eV)
  ---------------------------------------------------
  alpha Z        PSCENC =       170.45750602
  Ewald energy   TEWEN  =     11480.74168658
  -Hartree energ DENC   =    -17907.50227289
  -exchange      EXHF   =         0.00000000
  -V(xc)+E(xc)   XCENC  =        49.20730336
  PAW double counting   =      3822.81082493    -3536.54978286
  entropy T*S    EENTRO =         0.00000000
  eigenvalues    EBANDS =     -1434.90956083
  atomic energy  EATOM  =      7250.85976021
  Solvation  Ediel_sol  =         0.00000000
  ---------------------------------------------------
  free energy    TOTEN  =      -104.88453548 eV

  energy without entropy =     -104.88453548  energy(sigma->0) =     -104.88453548


--------------------------------------------------------------------------------------------------------




--------------------------------------- Iteration      1(  21)  ---------------------------------------


    POTLOK:  cpu time    0.0574: real time    0.0663
    SETDIJ:  cpu time    0.0015: real time    0.0015
     EDDAV:  cpu time    2.3714: real time    2.3770
 BZINTS: Fermi energy: -0.481550;144.000000 electrons
         Band energy:***********;  BLOECHL correction:  0.000000
       DOS:  cpu time    0.0023: real time    0.0023
    CHARGE:  cpu time    0.1418: real time    0.1421
    MIXING:  cpu time    0.0061: real time    0.0062
    --------------------------------------------
      LOOP:  cpu time    2.5804: real time    2.5954

 eigenvalue-minimisations  :  2472
 total energy-change (2. order) :-0.1264944E-03  (-0.1905534E-05)
 number of electron     144.0000000 magnetization 
 augmentation part      -17.6459322 magnetization 

 Broyden mixing:
  rms(total) = 0.97386E-04    rms(broyden)= 0.97385E-04
  rms(prec ) = 0.12169E-03
  weight for this iteration     100.00

 eigenvalues of (default mixing * dielectric matrix)
  average eigenvalue GAMMA=   2.3831
  8.8197  6.5314  3.7524  3.1901  2.3861  1.8712  1.8712  0.9059  0.9059  1.2724
  1.2724  1.2040  1.2040  1.0153  0.9638  0.9638

 Free energy of the ion-electron system (eV)
  ---------------------------------------------------
  alpha Z        PSCENC =       170.45750602
  Ewald energy   TEWEN  =     11480.74168658
  -Hartree energ DENC   =    -17907.46411320
  -exchange      EXHF   =         0.00000000
  -V(xc)+E(xc)   XCENC  =        49.20674765
  PAW double counting   =      3822.81776092    -3536.55700503
  entropy T*S    EENTRO =         0.00000000
  eigenvalues    EBANDS =     -1434.94700511
  atomic energy  EATOM  =      7250.85976021
  Solvation  Ediel_sol  =         0.00000000
  ---------------------------------------------------
  free energy    TOTEN  =      -104.88466197 eV

  energy without entropy =     -104.88466197  energy(sigma->0) =     -104.88466197


--------------------------------------------------------------------------------------------------------




--------------------------------------- Iteration      1(  22)  ---------------------------------------


    POTLOK:  cpu time    0.0576: real time    0.0682
    SETDIJ:  cpu time    0.0015: real time    0.0015
     EDDAV:  cpu time    2.3477: real time    2.3533
 BZINTS: Fermi energy: -0.482589;144.000000 electrons
         Band energy:***********;  BLOECHL correction:  0.000000
       DOS:  cpu time    0.0019: real time    0.0019
    CHARGE:  cpu time    0.1404: real time    0.1407
    MIXING:  cpu time    0.0068: real time    0.0069
    --------------------------------------------
      LOOP:  cpu time    2.5560: real time    2.5725

 eigenvalue-minimisations  :  2440
 total energy-change (2. order) :-0.3441735E-04  (-0.3433624E-06)
 number of electron     144.0000000 magnetization 
 augmentation part      -17.6459274 magnetization 

 Broyden mixing:
  rms(total) = 0.53686E-04    rms(broyden)= 0.53686E-04
  rms(prec ) = 0.68768E-04
  weight for this iteration     100.00

 eigenvalues of (default mixing * dielectric matrix)
  average eigenvalue GAMMA=   2.3713
  8.9139  6.8502  3.7743  3.3283  2.5019  1.9845  1.9255  0.9059  0.9059  1.4120
  1.2610  1.2610  1.1725  1.1725  1.0311  0.9556  0.9556

 Free energy of the ion-electron system (eV)
  ---------------------------------------------------
  alpha Z        PSCENC =       170.45750602
  Ewald energy   TEWEN  =     11480.74168658
  -Hartree energ DENC   =    -17907.45474642
  -exchange      EXHF   =         0.00000000
  -V(xc)+E(xc)   XCENC  =        49.20642868
  PAW double counting   =      3822.80790486    -3536.54716938
  entropy T*S    EENTRO =         0.00000000
  eigenvalues    EBANDS =     -1434.95606694
  atomic energy  EATOM  =      7250.85976021
  Solvation  Ediel_sol  =         0.00000000
  ---------------------------------------------------
  free energy    TOTEN  =      -104.88469639 eV

  energy without entropy =     -104.88469639  energy(sigma->0) =     -104.88469639


--------------------------------------------------------------------------------------------------------




--------------------------------------- Iteration      1(  23)  ---------------------------------------


    POTLOK:  cpu time    0.0569: real time    0.0681
    SETDIJ:  cpu time    0.0015: real time    0.0015
     EDDAV:  cpu time    2.2940: real time    2.2994
 BZINTS: Fermi energy: -0.483414;144.000000 electrons
         Band energy:***********;  BLOECHL correction:  0.000000
       DOS:  cpu time    0.0020: real time    0.0020
    CHARGE:  cpu time    0.1423: real time    0.1427
    MIXING:  cpu time    0.0068: real time    0.0068
    --------------------------------------------
      LOOP:  cpu time    2.5034: real time    2.5204

 eigenvalue-minimisations  :  2080
 total energy-change (2. order) :-0.1253876E-04  (-0.1015491E-06)
 number of electron     144.0000000 magnetization 
 augmentation part      -17.6459249 magnetization 

 Broyden mixing:
  rms(total) = 0.26015E-04    rms(broyden)= 0.26015E-04
  rms(prec ) = 0.34204E-04
  weight for this iteration     100.00

 eigenvalues of (default mixing * dielectric matrix)
  average eigenvalue GAMMA=   2.3638
  9.0543  6.9136  3.6952  3.6952  2.5464  2.1914  1.8542  1.8542  0.9059  0.9059
  1.2727  1.2727  1.2047  1.2047  1.0641  0.9703  0.9703  0.9723

 Free energy of the ion-electron system (eV)
  ---------------------------------------------------
  alpha Z        PSCENC =       170.45750602
  Ewald energy   TEWEN  =     11480.74168658
  -Hartree energ DENC   =    -17907.45341189
  -exchange      EXHF   =         0.00000000
  -V(xc)+E(xc)   XCENC  =        49.20645481
  PAW double counting   =      3822.80704692    -3536.54631742
  entropy T*S    EENTRO =         0.00000000
  eigenvalues    EBANDS =     -1434.95743416
  atomic energy  EATOM  =      7250.85976021
  Solvation  Ediel_sol  =         0.00000000
  ---------------------------------------------------
  free energy    TOTEN  =      -104.88470893 eV

  energy without entropy =     -104.88470893  energy(sigma->0) =     -104.88470893


--------------------------------------------------------------------------------------------------------




--------------------------------------- Iteration      1(  24)  ---------------------------------------


    POTLOK:  cpu time    0.0689: real time    0.0800
    SETDIJ:  cpu time    0.0015: real time    0.0015
     EDDAV:  cpu time    2.0572: real time    2.0621
 BZINTS: Fermi energy: -0.484145;144.000000 electrons
         Band energy:***********;  BLOECHL correction:  0.000000
       DOS:  cpu time    0.0020: real time    0.0020
    CHARGE:  cpu time    0.1406: real time    0.1409
    MIXING:  cpu time    0.0068: real time    0.0069
    --------------------------------------------
      LOOP:  cpu time    2.2769: real time    2.2934

 eigenvalue-minimisations  :  1912
 total energy-change (2. order) :-0.2624510E-05  (-0.2127288E-07)
 number of electron     144.0000000 magnetization 
 augmentation part      -17.6459281 magnetization 

 Broyden mixing:
  rms(total) = 0.16450E-04    rms(broyden)= 0.16450E-04
  rms(prec ) = 0.23845E-04
  weight for this iteration     100.00

 eigenvalues of (default mixing * dielectric matrix)
  average eigenvalue GAMMA=   2.3593
  9.0389  6.9990  3.8135  3.8135  2.7000  2.4355  2.1766  1.8164  0.9059  0.9059
  1.2653  1.2653  1.3675  1.1999  1.1999  0.9574  0.9574  1.0041  1.0041

 Free energy of the ion-electron system (eV)
  ---------------------------------------------------
  alpha Z        PSCENC =       170.45750602
  Ewald energy   TEWEN  =     11480.74168658
  -Hartree energ DENC   =    -17907.44710645
  -exchange      EXHF   =         0.00000000
  -V(xc)+E(xc)   XCENC  =        49.20637253
  PAW double counting   =      3822.80732148    -3536.54658531
  entropy T*S    EENTRO =         0.00000000
  eigenvalues    EBANDS =     -1434.96366661
  atomic energy  EATOM  =      7250.85976021
  Solvation  Ediel_sol  =         0.00000000
  ---------------------------------------------------
  free energy    TOTEN  =      -104.88471155 eV

  energy without entropy =     -104.88471155  energy(sigma->0) =     -104.88471155


--------------------------------------------------------------------------------------------------------




--------------------------------------- Iteration      1(  25)  ---------------------------------------


    POTLOK:  cpu time    0.0610: real time    0.0726
    SETDIJ:  cpu time    0.0015: real time    0.0015
     EDDAV:  cpu time    1.9762: real time    1.9809
 BZINTS: Fermi energy: -0.484762;144.000000 electrons
         Band energy:***********;  BLOECHL correction:  0.000000
       DOS:  cpu time    0.0019: real time    0.0019
    --------------------------------------------
      LOOP:  cpu time    2.0406: real time    2.0569

 eigenvalue-minimisations  :  1888
 total energy-change (2. order) :-0.8767411E-06  (-0.1454024E-07)
 number of electron     144.0000000 magnetization 
 augmentation part      -17.6459281 magnetization 

 Free energy of the ion-electron system (eV)
  ---------------------------------------------------
  alpha Z        PSCENC =       170.45750602
  Ewald energy   TEWEN  =     11480.74168658
  -Hartree energ DENC   =    -17907.44830383
  -exchange      EXHF   =         0.00000000
  -V(xc)+E(xc)   XCENC  =        49.20636576
  PAW double counting   =      3822.80606759    -3536.54532560
  entropy T*S    EENTRO =         0.00000000
  eigenvalues    EBANDS =     -1434.96246917
  atomic energy  EATOM  =      7250.85976021
  Solvation  Ediel_sol  =         0.00000000
  ---------------------------------------------------
[...]
      7     -27.9498      2.00000
      8     -27.9494      2.00000
      9     -14.8409      2.00000
     10     -14.8408      2.00000
     11     -14.7728      2.00000
     12     -14.7728      2.00000
     13     -14.6989      2.00000
     14     -14.6988      2.00000
     15     -13.9378      2.00000
     16     -13.9372      2.00000
     17     -13.9013      2.00000
     18     -13.8934      2.00000
     19     -13.8451      2.00000
     20     -13.8446      2.00000
     21     -13.7999      2.00000
     22     -13.7927      2.00000
     23     -13.7713      2.00000
     24     -13.7682      2.00000
     25     -13.7645      2.00000
     26     -13.7620      2.00000
     27     -13.3095      2.00000
     28     -13.3012      2.00000
     29     -13.2556      2.00000
     30     -13.2476      2.00000
     31     -13.2316      2.00000
     32     -13.2294      2.00000
     33     -10.9713      2.00000
     34     -10.9616      2.00000
     35     -10.6352      2.00000
     36     -10.6217      2.00000
     37      -6.3651      2.00000
     38      -6.3515      2.00000
     39      -6.1256      2.00000
     40      -6.1112      2.00000
     41      -6.0525      2.00000
     42      -6.0483      2.00000
     43      -5.8244      2.00000
     44      -5.8110      2.00000
     45      -5.7724      2.00000
     46      -5.7312      2.00000
     47      -5.7015      2.00000
     48      -5.5924      2.00000
     49      -2.7268      2.00000
     50      -2.6400      2.00000
     51      -2.4972      2.00000
     52      -2.4554      2.00000
     53      -2.1363      2.00000
     54      -2.0649      2.00000
     55      -2.0501      2.00000
     56      -2.0127      2.00000
     57      -1.8913      2.00000
     58      -1.8678      2.00000
     59      -1.7489      2.00000
     60      -1.6621      2.00000
     61      -1.6083      2.00000
     62      -1.5219      2.00000
     63      -1.4176      2.00000
     64      -1.3736      2.00000
     65      -1.2372      2.00000
     66      -1.1711      2.00000
     67      -1.1152      2.00000
     68      -0.9860      2.00000
     69      -0.8764      2.00000
     70      -0.8157      2.00000
     71      -0.7643      2.00000
     72      -0.7174      2.00000
     73       0.4412      0.00000
     74       0.4702      0.00000
     75       0.6032      0.00000
     76       0.6418      0.00000
     77       0.7199      0.00000
     78       0.8060      0.00000
     79       0.9516      0.00000
     80       0.9901      0.00000
     81       1.0260      0.00000
     82       1.1334      0.00000
     83       1.2793      0.00000
     84       1.3702      0.00000
     85       1.4254      0.00000
     86       1.5490      0.00000
     87       1.6585      0.00000
     88       1.7610      0.00000

 k-point    15 :       0.0000    0.5000    0.4000
  band No.  band energies     occupation 
      1     -29.4978      2.00000
      2     -29.4978      2.00000
      3     -28.5416      2.00000
      4     -28.5415      2.00000
      5     -28.5054      2.00000
      6     -28.5053      2.00000
      7     -27.9496      2.00000
      8     -27.9496      2.00000
      9     -14.8404      2.00000
     10     -14.8404      2.00000
     11     -14.7736      2.00000
     12     -14.7736      2.00000
     13     -14.7009      2.00000
     14     -14.7009      2.00000
     15     -13.9369      2.00000
     16     -13.9369      2.00000
     17     -13.8984      2.00000
     18     -13.8984      2.00000
     19     -13.8471      2.00000
     20     -13.8471      2.00000
     21     -13.7993      2.00000
     22     -13.7993      2.00000
     23     -13.7684      2.00000
     24     -13.7684      2.00000
     25     -13.7643      2.00000
     26     -13.7643      2.00000
     27     -13.3050      2.00000
     28     -13.3050      2.00000
     29     -13.2523      2.00000
     30     -13.2522      2.00000
     31     -13.2297      2.00000
     32     -13.2297      2.00000
     33     -10.9607      2.00000
     34     -10.9607      2.00000
     35     -10.6190      2.00000
     36     -10.6190      2.00000
     37      -6.3874      2.00000
     38      -6.3873      2.00000
     39      -6.0964      2.00000
     40      -6.0963      2.00000
     41      -6.0490      2.00000
     42      -6.0490      2.00000
     43      -5.7947      2.00000
     44      -5.7946      2.00000
     45      -5.7610      2.00000
     46      -5.7609      2.00000
     47      -5.6411      2.00000
     48      -5.6411      2.00000
     49      -2.6346      2.00000
     50      -2.6345      2.00000
     51      -2.4958      2.00000
     52      -2.4958      2.00000
     53      -2.0938      2.00000
     54      -2.0938      2.00000
     55      -2.0435      2.00000
     56      -2.0435      2.00000
     57      -1.8895      2.00000
     58      -1.8895      2.00000
     59      -1.6535      2.00000
     60      -1.6534      2.00000
     61      -1.4704      2.00000
     62      -1.4704      2.00000
     63      -1.4493      2.00000
     64      -1.4493      2.00000
     65      -1.2192      2.00000
     66      -1.2192      2.00000
     67      -1.0521      2.00000
     68      -1.0521      2.00000
     69      -0.8644      2.00000
     70      -0.8644      2.00000
     71      -0.7494      2.00000
     72      -0.7494      2.00000
     73       0.3627      0.00000
     74       0.3627      0.00000
     75       0.5956      0.00000
     76       0.5956      0.00000
     77       0.7729      0.00000
     78       0.7729      0.00000
     79       0.9182      0.00000
     80       0.9182      0.00000
     81       1.0020      0.00000
     82       1.0020      0.00000
     83       1.3441      0.00000
     84       1.3441      0.00000
     85       1.5254      0.00000
     86       1.5254      0.00000
     87       1.6184      0.00000
     88       1.6185      0.00000


--------------------------------------------------------------------------------------------------------


 soft charge-density along one line, spin component           1
         0         1         2         3         4         5         6         7         8         9
 total charge-density along one line
 
 pseudopotential strength for first ion, spin component:           1
  5.081  -5.592  -0.000  -0.008  -0.038  -0.000  -0.003  -0.015
 -5.592  -2.740   0.000   0.002   0.007  -0.000  -0.001  -0.006
 -0.000   0.000  -6.781  -0.000  -0.000   1.857  -0.000  -0.000
 -0.008   0.002  -0.000  -6.775  -0.002  -0.000   1.870  -0.004
 -0.038   0.007  -0.000  -0.002  -6.775  -0.000  -0.004   1.869
 -0.000  -0.000   1.857  -0.000  -0.000   7.309  -0.000  -0.000
 -0.003  -0.001  -0.000   1.870  -0.004  -0.000   7.311  -0.000
 -0.015  -0.006  -0.000  -0.004   1.869  -0.000  -0.000   7.311
 -0.000   0.000  -0.013  -0.000  -0.000  -0.009  -0.000  -0.000
 -0.000   0.000  -0.001  -0.000  -0.000  -0.000  -0.000  -0.000
  0.002  -0.001   0.000  -0.004   0.007   0.000  -0.003   0.005
 -0.002   0.001  -0.000  -0.013  -0.002  -0.000  -0.008  -0.002
  0.003  -0.001   0.000  -0.001  -0.012   0.000  -0.001  -0.008
  0.000   0.000   0.001   0.000   0.000   0.000   0.000   0.000
  0.000   0.000   0.000   0.000   0.000  -0.000   0.000   0.000
 -0.000  -0.000  -0.000   0.000  -0.000  -0.000   0.000  -0.000
  0.000   0.000   0.000   0.001   0.000   0.000   0.000   0.000
 -0.000  -0.000  -0.000   0.000   0.000  -0.000   0.000   0.000
 total augmentation occupancy for first ion, spin component:           1
  2.102  -0.257   0.000   0.012   0.055   0.000  -0.006  -0.020   0.000   0.000   0.017  -0.010   0.034  -0.000  -0.000  -0.010
 -0.257   0.639   0.000  -0.033  -0.144   0.000   0.012   0.033   0.000   0.000  -0.029   0.013  -0.067   0.000   0.000   0.041
  0.000   0.000   2.012   0.000   0.000  -0.012   0.000  -0.000  -0.084   0.022   0.000  -0.000   0.000   0.078  -0.042  -0.000
  0.012  -0.033  -0.000   2.000   0.003  -0.000  -0.002  -0.002   0.000  -0.000  -0.045  -0.069  -0.014   0.000   0.000   0.044
  0.055  -0.144  -0.000   0.003   1.995   0.000  -0.002  -0.000   0.000   0.000   0.035  -0.007  -0.052   0.000   0.000  -0.032
  0.000  -0.000  -0.012   0.000   0.000   0.008   0.000   0.000   0.022  -0.009   0.000   0.000   0.000  -0.030   0.014   0.000
 -0.006   0.012   0.000  -0.002  -0.002  -0.000   0.005   0.001   0.000   0.000   0.016   0.016   0.005   0.000   0.000  -0.022
 -0.020   0.033  -0.000  -0.002  -0.000  -0.000   0.001   0.004   0.000   0.000  -0.006   0.000   0.008   0.000   0.000   0.008
  0.000   0.000  -0.084  -0.000   0.000   0.022   0.000   0.000   0.149  -0.014   0.000   0.000   0.000  -0.187   0.019   0.000
  0.000   0.000   0.022   0.000   0.000  -0.009   0.000   0.000  -0.014   0.068   0.000  -0.000   0.000   0.017  -0.085   0.000
  0.017  -0.029   0.000  -0.045   0.035  -0.000   0.016  -0.006   0.000   0.000   0.121   0.052   0.021   0.000   0.000  -0.149
 -0.010   0.013   0.000  -0.069  -0.007   0.000   0.016   0.000  -0.000   0.000   0.052   0.087   0.008  -0.000   0.000  -0.071
  0.034  -0.067  -0.000  -0.014  -0.052  -0.000   0.005   0.008   0.000   0.000   0.021   0.008   0.096  -0.000   0.000  -0.028
  0.000   0.000   0.078   0.000   0.000  -0.030   0.000   0.000  -0.187   0.017   0.000   0.000   0.000   0.263  -0.033   0.000
 -0.000   0.000  -0.042   0.000   0.000   0.014   0.000   0.000   0.019  -0.085   0.000   0.000   0.000  -0.033   0.114   0.000
 -0.010   0.041   0.000   0.044  -0.032   0.000  -0.022   0.008   0.000   0.000  -0.149  -0.071  -0.028   0.000   0.000   0.204
  0.007  -0.030  -0.000   0.064   0.000   0.000  -0.023  -0.001   0.000  -0.000  -0.070  -0.111  -0.011   0.000   0.000   0.106
 -0.027   0.081   0.000   0.022   0.050   0.000  -0.008  -0.011  -0.000   0.000  -0.029  -0.013  -0.126   0.000   0.000   0.045


------------------------ aborting loop because EDIFF is reached ----------------------------------------


    CHARGE:  cpu time    0.1378: real time    0.1381
    FORLOC:  cpu time    0.0095: real time    0.0096
    FORNL :  cpu time    0.5333: real time    0.5346
    STRESS:  cpu time    1.7075: real time    1.7118
    FORCOR:  cpu time    0.0646: real time    0.0647
    FORHAR:  cpu time    0.0219: real time    0.0220
    MIXING:  cpu time    0.0078: real time    0.0079
    OFIELD:  cpu time    0.0000: real time    0.0000

  FORCE on cell =-STRESS in cart. coord.  units (eV):
  Direction    XX          YY          ZZ          XY          YZ          ZX
  --------------------------------------------------------------------------------------
  Alpha Z   170.45751   170.45751   170.45751
  Ewald  -19224.52568 15622.28321 15082.97076    -0.00002     0.00000   142.62643
  Hartree-16170.09251 17250.38930 16827.15206     0.00000    -0.00000   110.14760
  E(xc)    -461.76092  -459.79655  -460.24800    -0.00000    -0.00000     0.16149
  Local   33980.53184-34307.91303-33337.35568     0.00001    -0.00000  -251.06026
  n-local   338.75686   338.52611   339.89859     0.05892    -0.20501    -1.33387
  augment  -169.15670  -169.56190  -169.52083    -0.00000    -0.00000     0.26818
  Kinetic  1526.08959  1545.12684  1536.97761    -0.05335    -0.81733    -0.75673
  Fock        0.00000     0.00000     0.00000     0.00000     0.00000     0.00000
  -------------------------------------------------------------------------------------
  Total      -9.70002   -10.48852    -9.66798     0.00000     0.00000     0.05284
  in kB      -8.23134    -8.90045    -8.20415     0.00000     0.00000     0.04484
  external pressure =       -8.45 kB  Pullay stress =        0.00 kB


 VOLUME and BASIS-vectors are now :
 -----------------------------------------------------------------------------
  energy-cutoff  :      500.00
  volume of cell :     1888.05
      direct lattice vectors                 reciprocal lattice vectors
    24.009468079  0.000000000  0.000000000     0.041650236  0.000000000  0.000000000
     0.000000000  6.777849674  0.000000000     0.000000000  0.147539419  0.000000000
     0.000000000  0.000000000 11.602143288     0.000000000  0.000000000  0.086190971

  length of vectors
    24.009468079  6.777849674 11.602143288     0.041650236  0.147539419  0.086190971


 FORCES acting on ions
    electron-ion (+dipol)            ewald-force                    non-local-force                 convergence-correction
 -----------------------------------------------------------------------------------------------
   0.772E+03 0.102E-04 0.441E+02   -.767E+03 0.987E-05 -.433E+02   -.430E+01 0.290E-18 -.819E+00   -.199E-03 -.114E-08 0.147E-04
   -.772E+03 -.630E-04 -.441E+02   0.767E+03 -.128E-04 0.433E+02   0.430E+01 -.235E-18 0.819E+00   0.199E-03 0.126E-08 -.147E-04
   0.855E+02 -.610E-04 -.387E+02   -.853E+02 -.180E-04 0.374E+02   0.265E-01 -.314E-18 0.132E+01   0.789E-04 0.192E-08 -.555E-04
   -.855E+02 0.110E-04 0.387E+02   0.853E+02 0.128E-04 -.374E+02   -.265E-01 -.267E-18 -.132E+01   -.789E-04 -.177E-08 0.555E-04
   0.620E+03 -.611E-04 -.486E+02   -.618E+03 -.165E-04 0.490E+02   -.186E+01 0.145E-17 -.359E+00   -.140E-03 0.155E-08 -.136E-03
   -.620E+03 0.902E-05 0.486E+02   0.618E+03 0.143E-04 -.490E+02   0.186E+01 -.120E-17 0.359E+00   0.140E-03 -.146E-08 0.136E-03
   0.357E+03 0.115E-04 -.107E+02   -.356E+03 0.131E-04 0.989E+01   -.635E+00 -.172E-17 0.765E+00   -.329E-04 -.171E-08 0.661E-04
   -.357E+03 -.620E-04 0.107E+02   0.356E+03 -.132E-04 -.989E+01   0.635E+00 0.484E-18 -.765E+00   0.329E-04 0.167E-08 -.661E-04
   0.272E+03 0.364E+02 -.467E+02   -.272E+03 -.379E+02 0.475E+02   -.489E-01 0.152E+01 -.865E+00   -.778E-05 0.691E-05 -.234E-04
   -.272E+03 -.364E+02 0.467E+02   0.272E+03 0.379E+02 -.475E+02   0.489E-01 -.152E+01 0.865E+00   0.778E-05 -.691E-05 0.234E-04
   0.119E+03 -.329E+02 0.246E+01   -.118E+03 0.340E+02 -.141E+01   -.182E+00 -.113E+01 -.105E+01   -.679E-04 -.368E-04 0.228E-05
   -.119E+03 0.329E+02 -.246E+01   0.118E+03 -.340E+02 0.141E+01   0.182E+00 0.113E+01 0.105E+01   0.679E-04 0.368E-04 -.228E-05
   -.272E+03 0.364E+02 0.467E+02   0.272E+03 -.379E+02 -.475E+02   0.489E-01 0.152E+01 0.865E+00   0.778E-05 0.691E-05 0.234E-04
   0.272E+03 -.364E+02 -.467E+02   -.272E+03 0.379E+02 0.475E+02   -.489E-01 -.152E+01 -.865E+00   -.778E-05 -.691E-05 -.234E-04
   -.119E+03 -.329E+02 -.246E+01   0.118E+03 0.340E+02 0.141E+01   0.182E+00 -.113E+01 0.105E+01   0.679E-04 -.368E-04 -.228E-05
   0.119E+03 0.329E+02 0.246E+01   -.118E+03 -.340E+02 -.141E+01   -.182E+00 0.113E+01 -.105E+01   -.679E-04 0.368E-04 0.228E-05
   0.327E+03 -.418E-05 0.459E+02   -.329E+03 -.606E-05 -.466E+02   0.142E+01 -.128E-17 0.644E+00   -.350E-04 0.482E-09 0.476E-04
   -.327E+03 0.615E-05 -.459E+02   0.329E+03 0.629E-05 0.466E+02   -.142E+01 -.107E-17 -.644E+00   0.350E-04 -.521E-09 -.476E-04
   0.329E+02 0.896E-05 -.108E+02   -.312E+02 0.750E-05 0.100E+02   -.151E+01 -.600E-19 0.715E+00   0.272E-05 -.720E-09 -.113E-04
   -.329E+02 -.220E-05 0.108E+02   0.312E+02 -.716E-05 -.100E+02   0.151E+01 0.573E-19 -.715E+00   -.272E-05 0.680E-09 0.113E-04
   0.238E+03 0.435E-05 0.132E+02   -.238E+03 0.805E-05 -.143E+02   -.209E+00 -.229E-17 0.113E+01   -.325E-04 -.626E-09 -.386E-04
   -.238E+03 -.548E-05 -.132E+02   0.238E+03 -.810E-05 0.143E+02   0.209E+00 -.207E-17 -.113E+01   0.324E-04 0.588E-09 0.385E-04
   0.154E+03 -.611E-05 0.590E+02   -.153E+03 -.745E-05 -.608E+02   -.644E+00 -.216E-17 0.174E+01   -.441E-04 0.635E-09 0.759E-04
   -.154E+03 0.372E-05 -.590E+02   0.153E+03 0.731E-05 0.608E+02   0.644E+00 0.225E-17 -.174E+01   0.440E-04 -.643E-09 -.758E-04
 -----------------------------------------------------------------------------------------------
   0.851E-04 -.211E-03 0.718E-04   0.853E-13 0.768E-14 0.782E-13   0.888E-15 0.437E-15 0.444E-15   -.314E-07 0.109E-09 -.454E-08
 
 
 POSITION                                       TOTAL-FORCE (eV/Angst)
 -----------------------------------------------------------------------------------
      0.13670      1.69446      8.16985         0.776270     -0.000000      0.000072
      9.22277      5.08339      3.43229        -0.776270     -0.000000     -0.000072
      4.36803      5.08339      2.15226         0.278011      0.000000     -0.001071
      4.99143      1.69446      9.44988        -0.278011      0.000000      0.001071
      1.43529      5.08339     10.62313         0.651993      0.000000     -0.000485
      7.92418      1.69446      0.97901        -0.651993     -0.000000      0.000485
      3.06944      1.69446      4.59586         0.461927     -0.000000     -0.000367
      6.29002      5.08339      7.00628        -0.461927      0.000000      0.000367
      1.75027      0.49369      1.65333        -0.140002     -0.000496     -0.000465
      7.60920      6.28416      9.94881         0.140002      0.000496      0.000465
      2.75446      6.29420      7.65201         0.198262     -0.000153      0.000185
      6.60500      0.48365      3.95013        -0.198262      0.000153     -0.000185
      7.60920      3.88262      9.94881         0.140002     -0.000496      0.000465
      1.75027      2.89523      1.65333        -0.140002      0.000496     -0.000465
      6.60500      2.90528      3.95013        -0.198262     -0.000153     -0.000185
      2.75446      3.87257      7.65201         0.198262      0.000153      0.000185
      0.74693      5.08339      6.96187        -0.239968      0.000000     -0.000227
      8.61254      1.69446      4.64028         0.239968      0.000000      0.000227
      3.75780      1.69446      0.94060         0.211310     -0.000000      0.000477
      5.60166      5.08339     10.66155        -0.211310      0.000000     -0.000477
      1.78112      1.69446     11.14296        -0.166012      0.000000     -0.000312
      7.57835      5.08339      0.45918         0.166012      0.000000      0.000312
      2.72362      5.08339      5.53880        -0.204759      0.000000      0.000103
      6.63585      1.69446      6.06335         0.204759      0.000000     -0.000103
 -----------------------------------------------------------------------------------
    total drift:                                0.000085     -0.000211      0.000072


--------------------------------------------------------------------------------------------------------



  FREE ENERGIE OF THE ION-ELECTRON SYSTEM (eV)
  ---------------------------------------------------
  free  energy   TOTEN  =      -104.88471243 eV

  energy  without entropy=     -104.88471243  energy(sigma->0) =     -104.88471243
 


--------------------------------------------------------------------------------------------------------


    POTLOK:  cpu time    0.0621: real time    0.0622


--------------------------------------------------------------------------------------------------------


 writing wavefunctions
     LOOP+:  cpu time   83.1453: real time   85.0434
    4ORBIT:  cpu time    0.0000: real time    0.0000
 BZINTS: Fermi energy: -0.484762;144.000000 electrons
         Band energy:***********;  BLOECHL correction:  0.000000

 total amount of memory used by VASP MPI-rank0    79351. kBytes
=======================================================================

   base      :      30000. kBytes
   nonlr-proj:       2645. kBytes
   fftplans  :       5898. kBytes
   grid      :       8824. kBytes
   one-center:         93. kBytes
   wavefun   :      31891. kBytes
 
  
  
 General timing and accounting informations for this job:
 ========================================================
  
                  Total CPU time used (sec):       90.854
                            User time (sec):       85.828
                          System time (sec):        5.026
                         Elapsed time (sec):       95.272
  
                   Maximum memory used (kb):      170172.
                   Average memory used (kb):           0.
  
                          Minor page faults:        62747
                          Major page faults:          218
                 Voluntary context switches:        13023
