 vasp.5.4.4.18Apr17-6-g9f103f2a35 (build Nov 21 2017 15:30:27) complex          
  
 executed on             LinuxIFC date 2020.09.15  08:13:47
 running on   64 total cores
 distrk:  each k-point on   32 cores,    2 groups
 distr:  one band on NCORES_PER_BAND=   4 cores,    8 groups


--------------------------------------------------------------------------------------------------------


 INCAR:
 POTCAR:   PAW_PBE Ba_sv 06Sep2000                
 POTCAR:   PAW_PBE Si 05Jan2001                   

 ----------------------------------------------------------------------------- 
|                                                                             |
|           W    W    AA    RRRRR   N    N  II  N    N   GGGG   !!!           |
|           W    W   A  A   R    R  NN   N  II  NN   N  G    G  !!!           |
|           W    W  A    A  R    R  N N  N  II  N N  N  G       !!!           |
|           W WW W  AAAAAA  RRRRR   N  N N  II  N  N N  G  GGG   !            |
|           WW  WW  A    A  R   R   N   NN  II  N   NN  G    G                |
|           W    W  A    A  R    R  N    N  II  N    N   GGGG   !!!           |
|                                                                             |
|      You have enabled k-point parallelism (KPAR>1).                         |
|      This developmental code was originally  written by Paul Kent at ORNL,  |
|      and carefully double checked in Vienna.                                |
|      GW as well as linear response parallelism added by Martijn Marsman     |
|      and Georg Kresse.                                                      |
|      Carefully verify results versus KPAR=1.                                |
|      Report problems to Paul Kent and Vienna.                               |
|                                                                             |
 ----------------------------------------------------------------------------- 

 POTCAR:   PAW_PBE Ba_sv 06Sep2000                
   VRHFIN =Ba: 5s5p6s                                                           
   LEXCH  = PE                                                                  
   EATOM  =   700.2255 eV,   51.4651 Ry                                         
                                                                                
   TITEL  = PAW_PBE Ba_sv 06Sep2000                                             
   LULTRA =        F    use ultrasoft PP ?                                      
   IUNSCR =        1    unscreen: 0-lin 1-nonlin 2-no                           
   RPACOR =    2.400    partial core radius                                     
   POMASS =  137.327; ZVAL   =   10.000    mass and valenz                      
   RCORE  =    2.800    outmost cutoff radius                                   
   RWIGS  =    3.740; RWIGS  =    1.979    wigner-seitz radius (au A)           
   ENMAX  =  187.210; ENMIN  =  140.408 eV                                      
   RCLOC  =    2.516    cutoff for local pot                                    
   LCOR   =        T    correct aug charges                                     
   LPAW   =        T    paw PP                                                  
   EAUG   =  351.165                                                            
   DEXC   =     .000                                                            
   RMAX   =    3.370    core radius for proj-oper                               
   RAUG   =    1.300    factor for augmentation sphere                          
   RDEP   =    2.976    radius for radial grids                                 
   QCUT   =   -3.709; QGAM   =    7.419    optimization parameters              
                                                                                
   Description                                                                  
     l     E      TYP  RCUT    TYP  RCUT                                        
     0   .000     23  2.800                                                     
     0   .000     23  2.800                                                     
     1   .000     23  2.700                                                     
     1  2.000     23  2.700                                                     
     2   .000     23  2.700                                                     
     2   .000     23  2.700                                                     
  local pseudopotential read in
  partial core-charges read in
  atomic valenz-charges read in
  non local Contribution for L=           0  read in
    real space projection operators read in
  non local Contribution for L=           0  read in
    real space projection operators read in
  non local Contribution for L=           1  read in
    real space projection operators read in
  non local Contribution for L=           1  read in
    real space projection operators read in
  non local Contribution for L=           2  read in
    real space projection operators read in
  non local Contribution for L=           2  read in
    real space projection operators read in
    PAW grid and wavefunctions read in
 
   number of l-projection  operators is LMAX  =           6
   number of lm-projection operators is LMMAX =          18
 
 POTCAR:   PAW_PBE Si 05Jan2001                   
   VRHFIN =Si: s2p2                                                             
   LEXCH  = PE                                                                  
   EATOM  =   103.0669 eV,    7.5752 Ry                                         
                                                                                
   TITEL  = PAW_PBE Si 05Jan2001                                                
   LULTRA =        F    use ultrasoft PP ?                                      
   IUNSCR =        1    unscreen: 0-lin 1-nonlin 2-no                           
   RPACOR =    1.500    partial core radius                                     
   POMASS =   28.085; ZVAL   =    4.000    mass and valenz                      
   RCORE  =    1.900    outmost cutoff radius                                   
   RWIGS  =    2.480; RWIGS  =    1.312    wigner-seitz radius (au A)           
   ENMAX  =  245.345; ENMIN  =  184.009 eV                                      
   ICORE  =        2    local potential                                         
   LCOR   =        T    correct aug charges                                     
   LPAW   =        T    paw PP                                                  
   EAUG   =  322.069                                                            
   DEXC   =    -.007                                                            
   RMAX   =    2.944    core radius for proj-oper                               
   RAUG   =    1.300    factor for augmentation sphere                          
   RDEP   =    1.993    radius for radial grids                                 
   QCUT   =   -4.246; QGAM   =    8.493    optimization parameters              
                                                                                
   Description                                                                  
     l     E      TYP  RCUT    TYP  RCUT                                        
     0   .000     23  1.900                                                     
     0   .000     23  1.900                                                     
     1   .000     23  1.900                                                     
     1   .000     23  1.900                                                     
     2   .000      7  1.900                                                     
  local pseudopotential read in
  partial core-charges read in
  atomic valenz-charges read in
  non local Contribution for L=           0  read in
    real space projection operators read in
  non local Contribution for L=           0  read in
    real space projection operators read in
  non local Contribution for L=           1  read in
    real space projection operators read in
  non local Contribution for L=           1  read in
    real space projection operators read in
    PAW grid and wavefunctions read in
 
   number of l-projection  operators is LMAX  =           4
   number of lm-projection operators is LMMAX =           8
 
 Optimization of the real space projectors (new method)

 maximal supplied QI-value         = 13.42
 optimisation between [QCUT,QGAM] = [ 11.40, 22.81] = [ 36.42,145.68] Ry 
 Optimized for a Real-space Cutoff    1.56 Angstroem

   l    n(q)    QCUT    max X(q) W(low)/X(q) W(high)/X(q)  e(spline) 
   0     11    11.404     7.198    0.14E-04    0.26E-04    0.99E-07
   0     11    11.404    15.603    0.29E-04    0.72E-04    0.44E-06
   1     10    11.404     3.746    0.20E-04    0.24E-04    0.43E-07
   1     10    11.404     4.362    0.22E-03    0.97E-04    0.22E-06
   2     10    11.404     5.782    0.83E-04    0.62E-05    0.27E-06
   2     10    11.404    65.505    0.42E-03    0.31E-04    0.12E-05
 Optimization of the real space projectors (new method)

 maximal supplied QI-value         = 19.84
 optimisation between [QCUT,QGAM] = [ 11.31, 22.82] = [ 35.82,145.81] Ry 
 Optimized for a Real-space Cutoff    1.16 Angstroem

   l    n(q)    QCUT    max X(q) W(low)/X(q) W(high)/X(q)  e(spline) 
   0      8    11.310     8.708    0.14E-04    0.11E-04    0.43E-08
   0      8    11.310   106.241    0.27E-03    0.30E-03    0.38E-07
   1      7    11.310     5.901    0.82E-05    0.48E-04    0.19E-07
   1      7    11.310    73.241    0.27E-03    0.27E-03    0.74E-07
 PAW_PBE Ba_sv 06Sep2000                :
 energy of atom  1       EATOM= -700.2255
 kinetic energy error for atom=    0.0005 (will be added to EATOM!!)
 PAW_PBE Si 05Jan2001                   :
 energy of atom  2       EATOM= -103.0669
 kinetic energy error for atom=    0.0006 (will be added to EATOM!!)
 
 
 POSCAR: ba8 si16                                
  positions in direct lattice
  velocities in cartesian coordinates
 exchange correlation table for  LEXCH =        8
   RHO(1)=    0.500       N(1)  =     2000
   RHO(2)=  100.500       N(2)  =     4000
 


--------------------------------------------------------------------------------------------------------


 ion  position               nearest neighbor table
   1  0.006  0.250  0.704-  21 3.40  16 3.44  11 3.44  17 3.65  17 3.65   5 4.38   5 4.38   7 4.62

   2  0.386  0.750  0.296-  22 3.40  12 3.44  15 3.44  18 3.65  18 3.65   6 4.38   6 4.38   8 4.62

   3  0.182  0.750  0.185-  20 3.34   9 3.45  14 3.45  12 3.64  15 3.64  19 3.65  19 3.65  22 3.67
                            23 3.77   5 4.29   7 4.38   7 4.38
   4  0.210  0.250  0.815-  19 3.34  13 3.45  10 3.45  16 3.64  11 3.64  20 3.65  20 3.65  21 3.67
                            24 3.77   6 4.29   8 4.38   8 4.38
   5  0.060  0.750  0.915-   9 3.44  14 3.44  21 3.45  21 3.45  11 3.46  16 3.46  17 3.72   3 4.29
                             1 4.38   1 4.38
   6  0.332  0.250  0.085-  13 3.44  10 3.44  22 3.45  22 3.45  15 3.46  12 3.46  18 3.72   4 4.29
                             2 4.38   2 4.38
   7  0.128  0.250  0.396-  14 3.44   9 3.44  23 3.54  23 3.54  19 3.72  16 3.77  11 3.77  15 3.84
                            12 3.84  24 3.90   3 4.38   3 4.38   1 4.62
   8  0.264  0.750  0.604-  10 3.44  13 3.44  24 3.54  24 3.54  20 3.72  12 3.77  15 3.77  11 3.84
                            16 3.84  23 3.90   4 4.38   4 4.38   2 4.62
   9  0.073  0.073  0.142-  14 2.40  21 2.43  19 2.45   5 3.44   7 3.44   3 3.45
  10  0.319  0.927  0.858-  13 2.40  22 2.43  20 2.45   6 3.44   8 3.44   4 3.45
  11  0.115  0.929  0.660-  16 2.42  23 2.44  17 2.44   1 3.44   5 3.46   4 3.64   7 3.77   8 3.84

  12  0.277  0.071  0.340-  15 2.42  24 2.44  18 2.44   2 3.44   6 3.46   3 3.64   8 3.77   7 3.84

  13  0.319  0.573  0.858-  10 2.40  22 2.43  20 2.45   6 3.44   8 3.44   4 3.45
  14  0.073  0.427  0.142-   9 2.40  21 2.43  19 2.45   5 3.44   7 3.44   3 3.45
  15  0.277  0.429  0.340-  12 2.42  24 2.44  18 2.44   2 3.44   6 3.46   3 3.64   8 3.77   7 3.84

  16  0.115  0.571  0.660-  11 2.42  23 2.44  17 2.44   1 3.44   5 3.46   4 3.64   7 3.77   8 3.84

  17  0.031  0.750  0.600-  23 2.44  11 2.44  16 2.44   1 3.65   1 3.65   5 3.72
  18  0.361  0.250  0.400-  24 2.44  15 2.44  12 2.44   2 3.65   2 3.65   6 3.72
  19  0.157  0.250  0.080-  21 2.42  14 2.45   9 2.45   4 3.34   3 3.65   3 3.65   7 3.72
  20  0.235  0.750  0.920-  22 2.42  10 2.45  13 2.45   3 3.34   4 3.65   4 3.65   8 3.72
  21  0.074  0.250  0.960-  19 2.42  14 2.43   9 2.43   1 3.40   5 3.45   5 3.45   4 3.67
  22  0.318  0.750  0.040-  20 2.42  10 2.43  13 2.43   2 3.40   6 3.45   6 3.45   3 3.67
  23  0.113  0.750  0.477-  17 2.44  11 2.44  16 2.44   7 3.54   7 3.54   3 3.77   8 3.90
  24  0.278  0.250  0.523-  18 2.44  15 2.44  12 2.44   8 3.54   8 3.54   4 3.77   7 3.90
 
  LATTYP: Found a simple orthorhombic cell.
 ALAT       =     6.7778496742
 B/A-ratio  =     1.7117734747
 C/A-ratio  =     3.5423429602
  
  Lattice vectors:
  
 A1 = (   0.0000000000,   6.7778496742,   0.0000000000)
 A2 = (   0.0000000000,   0.0000000000, -11.6021432877)
 A3 = ( -24.0094680786,   0.0000000000,   0.0000000000)


Analysis of symmetry for initial positions (statically):
=====================================================================
 Subroutine PRICEL returns:
 Original cell was already a primitive cell.
 

 Routine SETGRP: Setting up the symmetry group for a 
 simple orthorhombic supercell.


 Subroutine GETGRP returns: Found  4 space group operations
 (whereof  1 operations were pure point group operations)
 out of a pool of  8 trial point group operations.


The static configuration has the point symmetry C_1 .
 The point group associated with its full space group is C_2h.


Analysis of symmetry for dynamics (positions and initial velocities):
=====================================================================
 Subroutine PRICEL returns:
 Original cell was already a primitive cell.
 

 Routine SETGRP: Setting up the symmetry group for a 
 simple orthorhombic supercell.


 Subroutine GETGRP returns: Found  4 space group operations
 (whereof  1 operations were pure point group operations)
 out of a pool of  8 trial point group operations.


The dynamic configuration has the point symmetry C_1 .
 The point group associated with its full space group is C_2h.


Analysis of constrained symmetry for selective dynamics:
=====================================================================
 Subroutine PRICEL returns:
 Original cell was already a primitive cell.
 

 Routine SETGRP: Setting up the symmetry group for a 
 simple orthorhombic supercell.


 Subroutine GETGRP returns: Found  4 space group operations
 (whereof  1 operations were pure point group operations)
 out of a pool of  8 trial point group operations.


The constrained configuration has the point symmetry C_1 .
 The point group associated with its full space group is C_2h.


 Subroutine INISYM returns: Found  4 space group operations
 (whereof  1 operations are pure point group operations),
 and found     1 'primitive' translations

 
 
 KPOINTS: k-density: 8.0                          

Automatic generation of k-mesh.
Space group operators:
 irot       det(A)        alpha          n_x          n_y          n_z        tau_x        tau_y        tau_z
    1     1.000000     0.000000     1.000000     0.000000     0.000000     0.000000     0.000000     0.000000
    2    -1.000000     0.000000     1.000000     0.000000     0.000000    -0.608093     0.000000     0.000000
    3     1.000000   180.000000     0.000000     1.000000     0.000000    -0.608093     0.500000     0.000000
    4    -1.000000   180.000000     0.000000     1.000000     0.000000     0.000000     0.500000     0.000000
 
 Subroutine IBZKPT returns following result:
 ===========================================
 
 Found     15 irreducible k-points:
 
 Following reciprocal coordinates:
            Coordinates               Weight
  0.000000  0.000000  0.000000      1.000000
  0.000000  0.125000  0.000000      2.000000
  0.000000  0.250000  0.000000      2.000000
  0.000000  0.375000  0.000000      2.000000
  0.000000  0.500000  0.000000      1.000000
  0.000000  0.000000  0.200000      2.000000
  0.000000  0.125000  0.200000      4.000000
  0.000000  0.250000  0.200000      4.000000
  0.000000  0.375000  0.200000      4.000000
  0.000000  0.500000  0.200000      2.000000
  0.000000  0.000000  0.400000      2.000000
  0.000000  0.125000  0.400000      4.000000
  0.000000  0.250000  0.400000      4.000000
  0.000000  0.375000  0.400000      4.000000
  0.000000  0.500000  0.400000      2.000000
 
 Following cartesian coordinates:
            Coordinates               Weight
  0.000000  0.000000  0.000000      1.000000
  0.000000  0.018442  0.000000      2.000000
  0.000000  0.036885  0.000000      2.000000
  0.000000  0.055327  0.000000      2.000000
  0.000000  0.073770  0.000000      1.000000
  0.000000  0.000000  0.017238      2.000000
  0.000000  0.018442  0.017238      4.000000
  0.000000  0.036885  0.017238      4.000000
  0.000000  0.055327  0.017238      4.000000
  0.000000  0.073770  0.017238      2.000000
  0.000000  0.000000  0.034476      2.000000
  0.000000  0.018442  0.034476      4.000000
  0.000000  0.036885  0.034476      4.000000
  0.000000  0.055327  0.034476      4.000000
  0.000000  0.073770  0.034476      2.000000
 
 TETIRR: Found    108 inequivalent tetrahedra from      240


--------------------------------------------------------------------------------------------------------




 Dimension of arrays:
   k-points           NKPTS =     15   k-points in BZ     NKDIM =     15   number of bands    NBANDS=     88
   number of dos      NEDOS =    301   number of ions     NIONS =     24
   non local maximal  LDIM  =      6   non local SUM 2l+1 LMDIM =     18
   total plane-waves  NPLWV = 358400
   max r-space proj   IRMAX =   3093   max aug-charges    IRDMAX=  12081
   dimension x,y,z NGX =   140 NGY =   40 NGZ =   64
   dimension x,y,z NGXF=   280 NGYF=   80 NGZF=  128
   support grid    NGXF=   280 NGYF=   80 NGZF=  128
   ions per type =               8  16
   NGX,Y,Z   is equivalent  to a cutoff of   9.69,  9.81,  9.17 a.u.
   NGXF,Y,Z  is equivalent  to a cutoff of  19.39, 19.62, 18.34 a.u.

 SYSTEM =  unknown system                          
 POSCAR =  ba8 si16                                

 Startparameter for this run:
   NWRITE =      2    write-flag & timer
   PREC   = normal    normal or accurate (medium, high low for compatibility)
   ISTART =      0    job   : 0-new  1-cont  2-samecut
   ICHARG =      2    charge: 1-file 2-atom 10-const
   ISPIN  =      1    spin polarized calculation?
   LNONCOLLINEAR =      F non collinear calculations
   LSORBIT =      F    spin-orbit coupling
   INIWAV =      1    electr: 0-lowe 1-rand  2-diag
   LASPH  =      F    aspherical Exc in radial PAW
   METAGGA=      F    non-selfconsistent MetaGGA calc.

 Electronic Relaxation 1
   ENCUT  =  500.0 eV  36.75 Ry    6.06 a.u.  43.77 12.36 21.15*2*pi/ulx,y,z
   ENINI  =  500.0     initial cutoff
   ENAUG  =  351.2 eV  augmentation charge cutoff
   NELM   =    100;   NELMIN=  2; NELMDL= -5     # of ELM steps 
   EDIFF  = 0.1E-05   stopping-criterion for ELM
   LREAL  =      T    real-space projection
   NLSPLINE    = F    spline interpolate recip. space projectors
   LCOMPAT=      F    compatible to vasp.4.4
   GGA_COMPAT  = T    GGA compatible to vasp.4.4-vasp.4.6
   LMAXPAW     = -100 max onsite density
   LMAXMIX     =    2 max onsite mixed and CHGCAR
   VOSKOWN=      0    Vosko Wilk Nusair interpolation
   ROPT   =   -0.00050  -0.00050
 Ionic relaxation
   EDIFFG = -.1E-02   stopping-criterion for IOM
   NSW    =      0    number of steps for IOM
   NBLOCK =      1;   KBLOCK =      1    inner block; outer block 
   IBRION =     -1    ionic relax: 0-MD 1-quasi-New 2-CG
   NFREE  =      0    steps in history (QN), initial steepest desc. (CG)
   ISIF   =      2    stress and relaxation
   IWAVPR =     10    prediction:  0-non 1-charg 2-wave 3-comb
   ISYM   =      2    0-nonsym 1-usesym 2-fastsym
   LCORR  =      T    Harris-Foulkes like correction to forces

   POTIM  = 0.3000    time-step for ionic-motion
   TEIN   =    0.0    initial temperature
   TEBEG  =    0.0;   TEEND  =   0.0 temperature during run
   SMASS  =  -3.00    Nose mass-parameter (am)
   estimated Nose-frequenzy (Omega)   =  0.10E-29 period in steps =****** mass=  -0.132E-25a.u.
   SCALEE = 1.0000    scale energy and forces
   NPACO  =    256;   APACO  = 16.0  distance and # of slots for P.C.
   PSTRESS=    0.0 pullay stress

  Mass of Ions in am
   POMASS = 137.33 28.09
  Ionic Valenz
   ZVAL   =  10.00  4.00
  Atomic Wigner-Seitz radii
   RWIGS  =  -1.00 -1.00
  virtual crystal weights 
   VCA    =   1.00  1.00
   NELECT =     144.0000    total number of electrons
   NUPDOWN=      -1.0000    fix difference up-down

 DOS related values:
   EMIN   =  10.00;   EMAX   =-10.00  energy-range for DOS
   EFERMI =   0.00
   ISMEAR =    -5;   SIGMA  =   0.01  broadening in eV -4-tet -1-fermi 0-gaus

 Electronic relaxation 2 (details)
   IALGO  =     38    algorithm
   LDIAG  =      T    sub-space diagonalisation (order eigenvalues)
   LSUBROT=      F    optimize rotation matrix (better conditioning)
   TURBO    =      0    0=normal 1=particle mesh
   IRESTART =      0    0=no restart 2=restart with 2 vectors
   NREBOOT  =      0    no. of reboots
   NMIN     =      0    reboot dimension
   EREF     =   0.00    reference energy to select bands
   IMIX   =      4    mixing-type and parameters
     AMIX     =   0.40;   BMIX     =  1.00
     AMIX_MAG =   1.60;   BMIX_MAG =  1.00
     AMIN     =   0.10
     WC   =   100.;   INIMIX=   1;  MIXPRE=   1;  MAXMIX= -45

 Intra band minimization:
   WEIMIN = 0.0000     energy-eigenvalue tresh-hold
   EBREAK =  0.28E-08  absolut break condition
   DEPER  =   0.30     relativ break condition  

   TIME   =   0.40     timestep for ELM

  volume/ion in A,a.u.               =      78.67       530.88
  Fermi-wavevector in a.u.,A,eV,Ry     =   0.694264  1.311969  6.558046  0.482003
  Thomas-Fermi vector in A             =   1.776709
 
 Write flags
   LWAVE        =      T    write WAVECAR
   LDOWNSAMPLE  =      F    k-point downsampling of WAVECAR
   LCHARG       =      T    write CHGCAR
   LVTOT        =      F    write LOCPOT, total local potential
   LVHAR        =      F    write LOCPOT, Hartree potential only
   LELF         =      F    write electronic localiz. function (ELF)
   LORBIT       =      0    0 simple, 1 ext, 2 COOP (PROOUT), +10 PAW based schemes


 Dipole corrections
   LMONO  =      F    monopole corrections only (constant potential shift)
   LDIPOL =      F    correct potential (dipole corrections)
   IDIPOL =      0    1-x, 2-y, 3-z, 4-all directions 
   EPSILON=  1.0000000 bulk dielectric constant

 Exchange correlation treatment:
   GGA     =    --    GGA type
   LEXCH   =     8    internal setting for exchange type
   VOSKOWN=      0    Vosko Wilk Nusair interpolation
   LHFCALC =     F    Hartree Fock is set to
   LHFONE  =     F    Hartree Fock one center treatment
   AEXX    =    0.0000 exact exchange contribution

 Linear response parameters
   LEPSILON=     F    determine dielectric tensor
   LRPA    =     F    only Hartree local field effects (RPA)
   LNABLA  =     F    use nabla operator in PAW spheres
   LVEL    =     F    velocity operator in full k-point grid
   LINTERFAST=   F  fast interpolation
   KINTER  =     0    interpolate to denser k-point grid
   CSHIFT  =0.1000    complex shift for real part using Kramers Kronig
   OMEGAMAX=  -1.0    maximum frequency
   DEG_THRESHOLD= 0.2000000E-02 threshold for treating states as degnerate
   RTIME   =   -0.100 relaxation time in fs
  (WPLASMAI=    0.000 imaginary part of plasma frequency in eV, 0.658/RTIME)
   DFIELD  = 0.0000000 0.0000000 0.0000000 field for delta impulse in time
 
 Orbital magnetization related:
   ORBITALMAG=     F  switch on orbital magnetization
   LCHIMAG   =     F  perturbation theory with respect to B field
   DQ        =  0.001000  dq finite difference perturbation B field
   LLRAUG    =     F  two centre corrections for induced B field



--------------------------------------------------------------------------------------------------------


 Static calculation
 charge density and potential will be updated during run
 non-spin polarized calculation
 Variant of blocked Davidson
 Davidson routine will perform the subspace rotation
 perform sub-space diagonalisation
    after iterative eigenvector-optimisation
 modified Broyden-mixing scheme, WC =      100.0
 initial mixing is a Kerker type mixing with AMIX =  0.4000 and BMIX =      1.0000
 Hartree-type preconditioning will be used
 using additional bands           16
 real space projection scheme for non local part
 use partial core corrections
 calculate Harris-corrections to forces 
   (improved forces if not selfconsistent)
 use gradient corrections 
 use of overlap-Matrix (Vanderbilt PP)
 Fermi weights with tetrahedron method with Bloechl corrections


--------------------------------------------------------------------------------------------------------


  energy-cutoff  :      500.00
  volume of cell :     1888.05
      direct lattice vectors                 reciprocal lattice vectors
    24.009468079  0.000000000  0.000000000     0.041650236  0.000000000  0.000000000
     0.000000000  6.777849674  0.000000000     0.000000000  0.147539419  0.000000000
     0.000000000  0.000000000 11.602143288     0.000000000  0.000000000  0.086190971

  length of vectors
    24.009468079  6.777849674 11.602143288     0.041650236  0.147539419  0.086190971


 
 k-points in units of 2pi/SCALE and weight: k-density: 8.0                          
   0.00000000  0.00000000  0.00000000       0.025
   0.00000000  0.01844243  0.00000000       0.050
   0.00000000  0.03688485  0.00000000       0.050
   0.00000000  0.05532728  0.00000000       0.050
   0.00000000  0.07376971  0.00000000       0.025
   0.00000000  0.00000000  0.01723819       0.050
   0.00000000  0.01844243  0.01723819       0.100
   0.00000000  0.03688485  0.01723819       0.100
   0.00000000  0.05532728  0.01723819       0.100
   0.00000000  0.07376971  0.01723819       0.050
   0.00000000  0.00000000  0.03447639       0.050
   0.00000000  0.01844243  0.03447639       0.100
   0.00000000  0.03688485  0.03447639       0.100
   0.00000000  0.05532728  0.03447639       0.100
   0.00000000  0.07376971  0.03447639       0.050
 
 k-points in reciprocal lattice and weights: k-density: 8.0                          
   0.00000000  0.00000000  0.00000000       0.025
   0.00000000  0.12500000  0.00000000       0.050
   0.00000000  0.25000000  0.00000000       0.050
   0.00000000  0.37500000  0.00000000       0.050
   0.00000000  0.50000000  0.00000000       0.025
   0.00000000  0.00000000  0.20000000       0.050
   0.00000000  0.12500000  0.20000000       0.100
   0.00000000  0.25000000  0.20000000       0.100
   0.00000000  0.37500000  0.20000000       0.100
   0.00000000  0.50000000  0.20000000       0.050
   0.00000000  0.00000000  0.40000000       0.050
   0.00000000  0.12500000  0.40000000       0.100
   0.00000000  0.25000000  0.40000000       0.100
   0.00000000  0.37500000  0.40000000       0.100
   0.00000000  0.50000000  0.40000000       0.050
 
 position of ions in fractional coordinates (direct lattice) 
   0.00569361  0.25000000  0.70370059
   0.38621295  0.75000002  0.29629941
   0.18192962  0.75000002  0.18507863
   0.20997694  0.25000000  0.81492135
   0.05978014  0.75000002  0.91516390
   0.33212642  0.25000000  0.08483608
   0.12784309  0.25000000  0.39585233
   0.26406347  0.75000002  0.60414771
   0.07289913  0.07284030  0.14207296
   0.31900743  0.92715969  0.85792702
   0.11472410  0.92874466  0.65951988
   0.27718246  0.07125533  0.34048012
   0.31900743  0.57284031  0.85792702
   0.07289913  0.42715969  0.14207296
   0.27718246  0.42874466  0.34048012
   0.11472410  0.57125534  0.65951988
   0.03110981  0.75000002  0.60004967
   0.36079675  0.25000000  0.39995033
   0.15651343  0.25000000  0.08040104
   0.23539314  0.75000002  0.91959894
   0.07418398  0.25000000  0.95994175
   0.31772258  0.75000002  0.04005827
   0.11343925  0.75000002  0.47725505
   0.27846731  0.25000000  0.52274486
 
 position of ions in cartesian coordinates  (Angst):
   0.13670066  1.69446242  8.16443512
   9.27276745  5.08338737  3.43770817
   4.36803341  5.08338737  2.14730881
   5.04143467  1.69446242  9.45483424
   1.43528938  5.08338737 10.61786268
   7.97417870  1.69446242  0.98428037
   3.06944466  1.69446242  4.59273546
   6.34002342  5.08338737  7.00940830
   1.75026941  0.49370061  1.64835083
   7.65919867  6.28414900  9.95379222
   2.75446463  6.29489172  7.65184420
   6.65500345  0.48295789  3.95029909
   7.65919867  3.88262551  9.95379222
   1.75026941  2.89522417  1.64835083
   6.65500345  2.90596689  3.95029909
   2.75446463  3.87188279  7.65184420
   0.74692994  5.08338737  6.96186225
   8.66253796  1.69446242  4.64028104
   3.75780416  1.69446242  0.93282442
   5.65166416  5.08338737 10.66931863
   1.78111780  1.69446242 11.13738172
   7.62835016  5.08338737  0.46476175
   2.72361612  5.08338737  5.53718152
   6.68585196  1.69446242  6.06496081
 


--------------------------------------------------------------------------------------------------------


 k-point  1 :   0.0000 0.0000 0.0000  plane waves:   47989
 k-point  2 :   0.0000 0.1250 0.0000  plane waves:   47929
 k-point  3 :   0.0000 0.2500 0.0000  plane waves:   47901
 k-point  4 :   0.0000 0.3750 0.0000  plane waves:   47910
 k-point  5 :   0.0000 0.5000 0.0000  plane waves:   47868
 k-point  6 :   0.0000 0.0000 0.2000  plane waves:   48006
 k-point  7 :   0.0000 0.1250 0.2000  plane waves:   47967
 k-point  8 :   0.0000 0.2500 0.2000  plane waves:   47907
 k-point  9 :   0.0000 0.3750 0.2000  plane waves:   47884
 k-point 10 :   0.0000 0.5000 0.2000  plane waves:   47884
 k-point 11 :   0.0000 0.0000 0.4000  plane waves:   47922
 k-point 12 :   0.0000 0.1250 0.4000  plane waves:   47954
 k-point 13 :   0.0000 0.2500 0.4000  plane waves:   47967
 k-point 14 :   0.0000 0.3750 0.4000  plane waves:   47928
 k-point 15 :   0.0000 0.5000 0.4000  plane waves:   47890

 maximum and minimum number of plane-waves per node :     12077    11868

 maximum number of plane-waves:     48006
 maximum index in each direction: 
   IXMAX=   43   IYMAX=   12   IZMAX=   21
   IXMIN=  -43   IYMIN=  -12   IZMIN=  -21


 real space projection operators:
  total allocation   :       4540.25 KBytes
  max/ min on nodes  :       1140.44       1130.14


 parallel 3D FFT for wavefunctions:
    minimum data exchange during FFTs selected (reduces bandwidth)
 parallel 3D FFT for charge:
    minimum data exchange during FFTs selected (reduces bandwidth)


 total amount of memory used by VASP MPI-rank0    79356. kBytes
=======================================================================

   base      :      30000. kBytes
   nonlr-proj:       2650. kBytes
   fftplans  :       5898. kBytes
   grid      :       8824. kBytes
   one-center:         93. kBytes
   wavefun   :      31891. kBytes
 
     INWAV:  cpu time    0.0000: real time    0.0000
 Broyden mixing: mesh for mixing (old mesh)
   NGX = 87   NGY = 25   NGZ = 43
  (NGX  =280   NGY  = 80   NGZ  =128)
  gives a total of  93525 points

 initial charge density was supplied:
 charge density of overlapping atoms calculated
 number of electron     144.0000000 magnetization 
 keeping initial charge density in first step


--------------------------------------------------------------------------------------------------------


 Maximum index for non-local projection operator          744
 Maximum index for augmentation-charges          605 (set IRDMAX)


--------------------------------------------------------------------------------------------------------


 First call to EWALD:  gamma=   0.143
 Maximum number of real-space cells 2x 5x 3
 Maximum number of reciprocal cells 5x 2x 3

    FEWALD:  cpu time    0.0106: real time    0.0106


--------------------------------------- Iteration      1(   1)  ---------------------------------------


    POTLOK:  cpu time    0.0636: real time    0.1141
    SETDIJ:  cpu time    0.0021: real time    0.0023
     EDDAV:  cpu time    2.6635: real time    2.6780
 BZINTS: Fermi energy:  7.009744;144.000000 electrons
         Band energy:-462.685947;  BLOECHL correction: -0.029382
       DOS:  cpu time    0.0116: real time    0.0119
    --------------------------------------------
      LOOP:  cpu time    2.7408: real time    2.8064

 eigenvalue-minimisations  :  2768
 total energy-change (2. order) : 0.1182061E+04  (-0.4780486E+04)
 number of electron     144.0000000 magnetization 
 augmentation part      144.0000000 magnetization 

 Free energy of the ion-electron system (eV)
  ---------------------------------------------------
  alpha Z        PSCENC =       170.45750602
  Ewald energy   TEWEN  =     11314.38168942
  -Hartree energ DENC   =    -17434.32537062
  -exchange      EXHF   =         0.00000000
  -V(xc)+E(xc)   XCENC  =        41.71379147
  PAW double counting   =      3692.15173346    -3390.49189382
  entropy T*S    EENTRO =         0.00000000
  eigenvalues    EBANDS =      -462.68594700
  atomic energy  EATOM  =      7250.85976021
  Solvation  Ediel_sol  =         0.00000000
  ---------------------------------------------------
  free energy    TOTEN  =      1182.06126914 eV

  energy without entropy =     1182.06126914  energy(sigma->0) =     1182.06126914


--------------------------------------------------------------------------------------------------------




--------------------------------------- Iteration      1(   2)  ---------------------------------------


     EDDAV:  cpu time    3.3568: real time    3.3761
 BZINTS: Fermi energy: -1.934733;144.000000 electrons
         Band energy:***********;  BLOECHL correction:  0.000000
       DOS:  cpu time    0.0024: real time    0.0024
    --------------------------------------------
      LOOP:  cpu time    3.3591: real time    3.3784

 eigenvalue-minimisations  :  3856
 total energy-change (2. order) :-0.1122703E+04  (-0.1094384E+04)
 number of electron     144.0000000 magnetization 
 augmentation part      144.0000000 magnetization 

 Free energy of the ion-electron system (eV)
  ---------------------------------------------------
  alpha Z        PSCENC =       170.45750602
  Ewald energy   TEWEN  =     11314.38168942
  -Hartree energ DENC   =    -17434.32537062
  -exchange      EXHF   =         0.00000000
  -V(xc)+E(xc)   XCENC  =        41.71379147
  PAW double counting   =      3692.15173346    -3390.49189382
  entropy T*S    EENTRO =         0.00000000
  eigenvalues    EBANDS =     -1585.38925702
  atomic energy  EATOM  =      7250.85976021
  Solvation  Ediel_sol  =         0.00000000
  ---------------------------------------------------
  free energy    TOTEN  =        59.35795912 eV

  energy without entropy =       59.35795912  energy(sigma->0) =       59.35795912


--------------------------------------------------------------------------------------------------------




--------------------------------------- Iteration      1(   3)  ---------------------------------------


     EDDAV:  cpu time    2.9680: real time    2.9864
 BZINTS: Fermi energy: -3.274435;144.000000 electrons
         Band energy:***********;  BLOECHL correction:  0.000000
       DOS:  cpu time    0.0020: real time    0.0020
    --------------------------------------------
      LOOP:  cpu time    2.9699: real time    2.9884

 eigenvalue-minimisations  :  3232
 total energy-change (2. order) :-0.1678905E+03  (-0.1672014E+03)
 number of electron     144.0000000 magnetization 
 augmentation part      144.0000000 magnetization 

 Free energy of the ion-electron system (eV)
  ---------------------------------------------------
  alpha Z        PSCENC =       170.45750602
  Ewald energy   TEWEN  =     11314.38168942
  -Hartree energ DENC   =    -17434.32537062
  -exchange      EXHF   =         0.00000000
  -V(xc)+E(xc)   XCENC  =        41.71379147
  PAW double counting   =      3692.15173346    -3390.49189382
  entropy T*S    EENTRO =         0.00000000
  eigenvalues    EBANDS =     -1753.27980186
  atomic energy  EATOM  =      7250.85976021
  Solvation  Ediel_sol  =         0.00000000
  ---------------------------------------------------
  free energy    TOTEN  =      -108.53258572 eV

  energy without entropy =     -108.53258572  energy(sigma->0) =     -108.53258572


--------------------------------------------------------------------------------------------------------




--------------------------------------- Iteration      1(   4)  ---------------------------------------


     EDDAV:  cpu time    3.3419: real time    3.3606
 BZINTS: Fermi energy: -3.372784;144.000000 electrons
         Band energy:***********;  BLOECHL correction:  0.000000
       DOS:  cpu time    0.0027: real time    0.0027
    --------------------------------------------
      LOOP:  cpu time    3.3447: real time    3.3633

 eigenvalue-minimisations  :  3752
 total energy-change (2. order) :-0.5995926E+01  (-0.5979491E+01)
 number of electron     144.0000000 magnetization 
 augmentation part      144.0000000 magnetization 

 Free energy of the ion-electron system (eV)
  ---------------------------------------------------
  alpha Z        PSCENC =       170.45750602
  Ewald energy   TEWEN  =     11314.38168942
  -Hartree energ DENC   =    -17434.32537062
  -exchange      EXHF   =         0.00000000
  -V(xc)+E(xc)   XCENC  =        41.71379147
  PAW double counting   =      3692.15173346    -3390.49189382
  entropy T*S    EENTRO =         0.00000000
  eigenvalues    EBANDS =     -1759.27572782
  atomic energy  EATOM  =      7250.85976021
  Solvation  Ediel_sol  =         0.00000000
  ---------------------------------------------------
  free energy    TOTEN  =      -114.52851168 eV

  energy without entropy =     -114.52851168  energy(sigma->0) =     -114.52851168


--------------------------------------------------------------------------------------------------------




--------------------------------------- Iteration      1(   5)  ---------------------------------------


     EDDAV:  cpu time    3.6211: real time    3.6395
 BZINTS: Fermi energy: -3.350776;144.000000 electrons
         Band energy:***********;  BLOECHL correction:  0.000000
       DOS:  cpu time    0.0023: real time    0.0023
    CHARGE:  cpu time    0.1844: real time    0.1848
    MIXING:  cpu time    0.0084: real time    0.0086
    --------------------------------------------
      LOOP:  cpu time    3.8162: real time    3.8352

 eigenvalue-minimisations  :  4192
 total energy-change (2. order) :-0.2798027E+00  (-0.2797225E+00)
 number of electron     143.9999988 magnetization 
 augmentation part      -17.5364967 magnetization 

 Broyden mixing:
  rms(total) = 0.91904E+00    rms(broyden)= 0.91904E+00
  rms(prec ) = 0.11910E+01
  weight for this iteration     100.00

 Free energy of the ion-electron system (eV)
  ---------------------------------------------------
  alpha Z        PSCENC =       170.45750602
  Ewald energy   TEWEN  =     11314.38168942
  -Hartree energ DENC   =    -17434.32537062
  -exchange      EXHF   =         0.00000000
  -V(xc)+E(xc)   XCENC  =        41.71379147
  PAW double counting   =      3692.15173346    -3390.49189382
  entropy T*S    EENTRO =         0.00000000
  eigenvalues    EBANDS =     -1759.55553050
  atomic energy  EATOM  =      7250.85976021
  Solvation  Ediel_sol  =         0.00000000
  ---------------------------------------------------
  free energy    TOTEN  =      -114.80831436 eV

  energy without entropy =     -114.80831436  energy(sigma->0) =     -114.80831436


--------------------------------------------------------------------------------------------------------




--------------------------------------- Iteration      1(   6)  ---------------------------------------


    POTLOK:  cpu time    0.0569: real time    0.0684
    SETDIJ:  cpu time    0.0109: real time    0.0109
     EDDAV:  cpu time    2.8792: real time    2.8861
 BZINTS: Fermi energy: -2.269657;144.000000 electrons
         Band energy:***********;  BLOECHL correction:  0.000000
       DOS:  cpu time    0.0021: real time    0.0021
    CHARGE:  cpu time    0.1674: real time    0.1678
    MIXING:  cpu time    0.0093: real time    0.0093
    --------------------------------------------
      LOOP:  cpu time    3.1258: real time    3.1446

 eigenvalue-minimisations  :  3000
 total energy-change (2. order) : 0.8261058E+01  (-0.2051918E+01)
 number of electron     143.9999987 magnetization 
 augmentation part      -17.4237761 magnetization 

 Broyden mixing:
  rms(total) = 0.46506E+00    rms(broyden)= 0.46506E+00
  rms(prec ) = 0.58431E+00
  weight for this iteration     100.00

 eigenvalues of (default mixing * dielectric matrix)
  average eigenvalue GAMMA=   1.5435
  1.5435

 Free energy of the ion-electron system (eV)
  ---------------------------------------------------
  alpha Z        PSCENC =       170.45750602
  Ewald energy   TEWEN  =     11314.38168942
  -Hartree energ DENC   =    -17525.36347773
  -exchange      EXHF   =         0.00000000
  -V(xc)+E(xc)   XCENC  =        44.56154217
  PAW double counting   =      3725.64584024    -3431.15213593
  entropy T*S    EENTRO =         0.00000000
  eigenvalues    EBANDS =     -1655.93798095
  atomic energy  EATOM  =      7250.85976021
  Solvation  Ediel_sol  =         0.00000000
  ---------------------------------------------------
  free energy    TOTEN  =      -106.54725655 eV

  energy without entropy =     -106.54725655  energy(sigma->0) =     -106.54725655


--------------------------------------------------------------------------------------------------------




--------------------------------------- Iteration      1(   7)  ---------------------------------------


    POTLOK:  cpu time    0.0559: real time    0.0665
    SETDIJ:  cpu time    0.0165: real time    0.0166
     EDDAV:  cpu time    3.1435: real time    3.1509
 BZINTS: Fermi energy: -1.440071;144.000000 electrons
         Band energy:***********;  BLOECHL correction:  0.000000
       DOS:  cpu time    0.0022: real time    0.0022
    CHARGE:  cpu time    0.1780: real time    0.1784
    MIXING:  cpu time    0.0080: real time    0.0083
    --------------------------------------------
      LOOP:  cpu time    3.4040: real time    3.4228

 eigenvalue-minimisations  :  3480
 total energy-change (2. order) : 0.1304708E+01  (-0.9919720E+00)
 number of electron     143.9999987 magnetization 
 augmentation part      -17.5121060 magnetization 

 Broyden mixing:
  rms(total) = 0.24412E+00    rms(broyden)= 0.24412E+00
  rms(prec ) = 0.29550E+00
  weight for this iteration     100.00

 eigenvalues of (default mixing * dielectric matrix)
  average eigenvalue GAMMA=   1.8578
  1.8578  1.8578

 Free energy of the ion-electron system (eV)
  ---------------------------------------------------
  alpha Z        PSCENC =       170.45750602
  Ewald energy   TEWEN  =     11314.38168942
  -Hartree energ DENC   =    -17602.14412122
  -exchange      EXHF   =         0.00000000
  -V(xc)+E(xc)   XCENC  =        46.86701085
  PAW double counting   =      3769.54999843    -3480.86264708
  entropy T*S    EENTRO =         0.00000000
  eigenvalues    EBANDS =     -1574.35174504
  atomic energy  EATOM  =      7250.85976021
  Solvation  Ediel_sol  =         0.00000000
  ---------------------------------------------------
  free energy    TOTEN  =      -105.24254842 eV

  energy without entropy =     -105.24254842  energy(sigma->0) =     -105.24254842


--------------------------------------------------------------------------------------------------------




--------------------------------------- Iteration      1(   8)  ---------------------------------------


    POTLOK:  cpu time    0.0570: real time    0.0678
    SETDIJ:  cpu time    0.0158: real time    0.0159
     EDDAV:  cpu time    2.8884: real time    2.8952
 BZINTS: Fermi energy: -1.253464;144.000000 electrons
         Band energy:***********;  BLOECHL correction:  0.000000
       DOS:  cpu time    0.0020: real time    0.0020
    CHARGE:  cpu time    0.1577: real time    0.1580
    MIXING:  cpu time    0.0079: real time    0.0085
    --------------------------------------------
      LOOP:  cpu time    3.1287: real time    3.1473

 eigenvalue-minimisations  :  3112
 total energy-change (2. order) : 0.2144622E+00  (-0.3522350E+00)
 number of electron     143.9999987 magnetization 
 augmentation part      -17.6436584 magnetization 

 Broyden mixing:
  rms(total) = 0.11601E+00    rms(broyden)= 0.11601E+00
  rms(prec ) = 0.18728E+00
  weight for this iteration     100.00

 eigenvalues of (default mixing * dielectric matrix)
  average eigenvalue GAMMA=   1.6818
  2.6169  1.2143  1.2143

 Free energy of the ion-electron system (eV)
  ---------------------------------------------------
  alpha Z        PSCENC =       170.45750602
  Ewald energy   TEWEN  =     11314.38168942
  -Hartree energ DENC   =    -17638.58883213
  -exchange      EXHF   =         0.00000000
  -V(xc)+E(xc)   XCENC  =        47.80384339
  PAW double counting   =      3818.86644484    -3531.96752840
  entropy T*S    EENTRO =         0.00000000
  eigenvalues    EBANDS =     -1536.84096958
  atomic energy  EATOM  =      7250.85976021
  Solvation  Ediel_sol  =         0.00000000
  ---------------------------------------------------
  free energy    TOTEN  =      -105.02808622 eV

  energy without entropy =     -105.02808622  energy(sigma->0) =     -105.02808622


--------------------------------------------------------------------------------------------------------




--------------------------------------- Iteration      1(   9)  ---------------------------------------


    POTLOK:  cpu time    0.0549: real time    0.0651
    SETDIJ:  cpu time    0.0179: real time    0.0180
     EDDAV:  cpu time    2.8609: real time    2.8677
 BZINTS: Fermi energy: -0.868404;144.000000 electrons
         Band energy:***********;  BLOECHL correction:  0.000000
       DOS:  cpu time    0.0026: real time    0.0026
    CHARGE:  cpu time    0.1671: real time    0.1674
    MIXING:  cpu time    0.0065: real time    0.0066
    --------------------------------------------
      LOOP:  cpu time    3.1099: real time    3.1274

 eigenvalue-minimisations  :  3104
 total energy-change (2. order) : 0.2718989E+00  (-0.1117178E+00)
 number of electron     143.9999986 magnetization 
 augmentation part      -17.6172323 magnetization 

 Broyden mixing:
  rms(total) = 0.56168E-01    rms(broyden)= 0.56167E-01
  rms(prec ) = 0.81417E-01
  weight for this iteration     100.00

 eigenvalues of (default mixing * dielectric matrix)
  average eigenvalue GAMMA=   1.4163
  2.5469  1.2178  1.2178  0.6824

 Free energy of the ion-electron system (eV)
  ---------------------------------------------------
  alpha Z        PSCENC =       170.45750602
  Ewald energy   TEWEN  =     11314.38168942
  -Hartree energ DENC   =    -17678.18670237
  -exchange      EXHF   =         0.00000000
  -V(xc)+E(xc)   XCENC  =        48.74593908
  PAW double counting   =      3829.38584643    -3543.81343678
  entropy T*S    EENTRO =         0.00000000
  eigenvalues    EBANDS =     -1496.58678935
  atomic energy  EATOM  =      7250.85976021
  Solvation  Ediel_sol  =         0.00000000
  ---------------------------------------------------
  free energy    TOTEN  =      -104.75618735 eV

  energy without entropy =     -104.75618735  energy(sigma->0) =     -104.75618735


--------------------------------------------------------------------------------------------------------




--------------------------------------- Iteration      1(  10)  ---------------------------------------


    POTLOK:  cpu time    0.0570: real time    0.0669
    SETDIJ:  cpu time    0.0183: real time    0.0184
     EDDAV:  cpu time    3.0255: real time    3.0327
 BZINTS: Fermi energy: -0.795820;144.000000 electrons
         Band energy:***********;  BLOECHL correction:  0.000000
       DOS:  cpu time    0.0020: real time    0.0020
    CHARGE:  cpu time    0.1423: real time    0.1427
    MIXING:  cpu time    0.0110: real time    0.0110
    --------------------------------------------
      LOOP:  cpu time    3.2562: real time    3.2737

 eigenvalue-minimisations  :  3496
 total energy-change (2. order) :-0.1467037E-01  (-0.2528071E-01)
 number of electron     143.9999986 magnetization 
 augmentation part      -17.6377150 magnetization 

 Broyden mixing:
  rms(total) = 0.42665E-01    rms(broyden)= 0.42665E-01
  rms(prec ) = 0.63511E-01
  weight for this iteration     100.00

 eigenvalues of (default mixing * dielectric matrix)
  average eigenvalue GAMMA=   1.6242
  2.5356  2.5356  1.1064  0.9716  0.9716

 Free energy of the ion-electron system (eV)
  ---------------------------------------------------
  alpha Z        PSCENC =       170.45750602
  Ewald energy   TEWEN  =     11314.38168942
  -Hartree energ DENC   =    -17689.03642571
  -exchange      EXHF   =         0.00000000
  -V(xc)+E(xc)   XCENC  =        48.77858760
  PAW double counting   =      3824.68056246    -3538.79553423
  entropy T*S    EENTRO =         0.00000000
  eigenvalues    EBANDS =     -1486.09700348
  atomic energy  EATOM  =      7250.85976021
  Solvation  Ediel_sol  =         0.00000000
  ---------------------------------------------------
  free energy    TOTEN  =      -104.77085772 eV

  energy without entropy =     -104.77085772  energy(sigma->0) =     -104.77085772


--------------------------------------------------------------------------------------------------------




--------------------------------------- Iteration      1(  11)  ---------------------------------------


    POTLOK:  cpu time    0.0530: real time    0.0641
    SETDIJ:  cpu time    0.0292: real time    0.0292
     EDDAV:  cpu time    2.7063: real time    2.7127
 BZINTS: Fermi energy: -0.674414;144.000000 electrons
         Band energy:***********;  BLOECHL correction:  0.000000
       DOS:  cpu time    0.0020: real time    0.0020
    CHARGE:  cpu time    0.1416: real time    0.1419
    MIXING:  cpu time    0.0076: real time    0.0077
    --------------------------------------------
      LOOP:  cpu time    2.9397: real time    2.9576

 eigenvalue-minimisations  :  3136
 total energy-change (2. order) : 0.8157216E-02  (-0.7285896E-02)
 number of electron     143.9999986 magnetization 
 augmentation part      -17.6441747 magnetization 

 Broyden mixing:
  rms(total) = 0.16020E-01    rms(broyden)= 0.16020E-01
  rms(prec ) = 0.31931E-01
  weight for this iteration     100.00

 eigenvalues of (default mixing * dielectric matrix)
  average eigenvalue GAMMA=   1.6305
  2.8638  2.8638  1.0906  1.0613  0.9518  0.9518

 Free energy of the ion-electron system (eV)
  ---------------------------------------------------
  alpha Z        PSCENC =       170.45750602
  Ewald energy   TEWEN  =     11314.38168942
  -Hartree energ DENC   =    -17708.90684776
  -exchange      EXHF   =         0.00000000
  -V(xc)+E(xc)   XCENC  =        48.95438102
  PAW double counting   =      3825.72124215    -3539.49584746
  entropy T*S    EENTRO =         0.00000000
  eigenvalues    EBANDS =     -1466.73458411
  atomic energy  EATOM  =      7250.85976021
  Solvation  Ediel_sol  =         0.00000000
  ---------------------------------------------------
  free energy    TOTEN  =      -104.76270050 eV

  energy without entropy =     -104.76270050  energy(sigma->0) =     -104.76270050


--------------------------------------------------------------------------------------------------------




--------------------------------------- Iteration      1(  12)  ---------------------------------------


    POTLOK:  cpu time    0.0548: real time    0.0659
    SETDIJ:  cpu time    0.0140: real time    0.0140
     EDDAV:  cpu time    3.0295: real time    3.0367
 BZINTS: Fermi energy: -0.599522;144.000000 electrons
         Band energy:***********;  BLOECHL correction:  0.000000
       DOS:  cpu time    0.0020: real time    0.0020
    CHARGE:  cpu time    0.1630: real time    0.1634
    MIXING:  cpu time    0.0076: real time    0.0076
    --------------------------------------------
      LOOP:  cpu time    3.2709: real time    3.2895

 eigenvalue-minimisations  :  3168
 total energy-change (2. order) :-0.4851334E-02  (-0.1546387E-02)
 number of electron     143.9999986 magnetization 
 augmentation part      -17.6385695 magnetization 

 Broyden mixing:
  rms(total) = 0.12448E-01    rms(broyden)= 0.12448E-01
  rms(prec ) = 0.21228E-01
  weight for this iteration     100.00

 eigenvalues of (default mixing * dielectric matrix)
  average eigenvalue GAMMA=   1.7750
  3.8001  2.5337  2.0404  1.1264  1.1264  0.8992  0.8992

 Free energy of the ion-electron system (eV)
  ---------------------------------------------------
  alpha Z        PSCENC =       170.45750602
  Ewald energy   TEWEN  =     11314.38168942
  -Hartree energ DENC   =    -17721.18823272
  -exchange      EXHF   =         0.00000000
  -V(xc)+E(xc)   XCENC  =        49.01592793
  PAW double counting   =      3823.53088815    -3537.15994173
  entropy T*S    EENTRO =         0.00000000
  eigenvalues    EBANDS =     -1454.66514912
  atomic energy  EATOM  =      7250.85976021
  Solvation  Ediel_sol  =         0.00000000
  ---------------------------------------------------
  free energy    TOTEN  =      -104.76755184 eV

  energy without entropy =     -104.76755184  energy(sigma->0) =     -104.76755184


--------------------------------------------------------------------------------------------------------




--------------------------------------- Iteration      1(  13)  ---------------------------------------


    POTLOK:  cpu time    0.0539: real time    0.0649
    SETDIJ:  cpu time    0.0219: real time    0.0220
     EDDAV:  cpu time    3.0281: real time    3.0352
 BZINTS: Fermi energy: -0.539558;144.000000 electrons
         Band energy:***********;  BLOECHL correction:  0.000000
       DOS:  cpu time    0.0022: real time    0.0022
    CHARGE:  cpu time    0.1801: real time    0.1805
    MIXING:  cpu time    0.0089: real time    0.0089
    --------------------------------------------
      LOOP:  cpu time    3.2950: real time    3.3137

 eigenvalue-minimisations  :  3256
 total energy-change (2. order) :-0.9035919E-02  (-0.1039565E-02)
 number of electron     143.9999986 magnetization 
 augmentation part      -17.6402790 magnetization 

 Broyden mixing:
  rms(total) = 0.66146E-02    rms(broyden)= 0.66146E-02
  rms(prec ) = 0.11546E-01
  weight for this iteration     100.00

 eigenvalues of (default mixing * dielectric matrix)
  average eigenvalue GAMMA=   1.8355
  4.2190  2.9277  2.4436  1.2152  1.2152  0.8977  0.8827  0.8827

 Free energy of the ion-electron system (eV)
  ---------------------------------------------------
  alpha Z        PSCENC =       170.45750602
  Ewald energy   TEWEN  =     11314.38168942
  -Hartree energ DENC   =    -17731.78060535
  -exchange      EXHF   =         0.00000000
  -V(xc)+E(xc)   XCENC  =        49.07522569
  PAW double counting   =      3821.77973421    -3535.53138611
  entropy T*S    EENTRO =         0.00000000
  eigenvalues    EBANDS =     -1444.01851185
  atomic energy  EATOM  =      7250.85976021
  Solvation  Ediel_sol  =         0.00000000
  ---------------------------------------------------
  free energy    TOTEN  =      -104.77658775 eV

  energy without entropy =     -104.77658775  energy(sigma->0) =     -104.77658775


--------------------------------------------------------------------------------------------------------




--------------------------------------- Iteration      1(  14)  ---------------------------------------


    POTLOK:  cpu time    0.0540: real time    0.0647
    SETDIJ:  cpu time    0.0216: real time    0.0216
     EDDAV:  cpu time    2.9259: real time    2.9328
 BZINTS: Fermi energy: -0.520684;144.000000 electrons
         Band energy:***********;  BLOECHL correction:  0.000000
       DOS:  cpu time    0.0021: real time    0.0022
    CHARGE:  cpu time    0.1494: real time    0.1497
    MIXING:  cpu time    0.0160: real time    0.0161
    --------------------------------------------
      LOOP:  cpu time    3.1690: real time    3.1870

 eigenvalue-minimisations  :  3024
 total energy-change (2. order) :-0.4951169E-02  (-0.2847090E-03)
 number of electron     143.9999986 magnetization 
 augmentation part      -17.6410990 magnetization 

 Broyden mixing:
  rms(total) = 0.55535E-02    rms(broyden)= 0.55535E-02
  rms(prec ) = 0.88617E-02
  weight for this iteration     100.00

 eigenvalues of (default mixing * dielectric matrix)
  average eigenvalue GAMMA=   1.8605
  4.6565  3.1121  2.2092  1.4335  1.4335  0.9079  0.9079  1.0417  1.0417

 Free energy of the ion-electron system (eV)
  ---------------------------------------------------
  alpha Z        PSCENC =       170.45750602
  Ewald energy   TEWEN  =     11314.38168942
  -Hartree energ DENC   =    -17735.14645416
  -exchange      EXHF   =         0.00000000
  -V(xc)+E(xc)   XCENC  =        49.07410666
  PAW double counting   =      3820.85019841    -3534.61197256
  entropy T*S    EENTRO =         0.00000000
  eigenvalues    EBANDS =     -1440.64637293
  atomic energy  EATOM  =      7250.85976021
  Solvation  Ediel_sol  =         0.00000000
  ---------------------------------------------------
  free energy    TOTEN  =      -104.78153892 eV

  energy without entropy =     -104.78153892  energy(sigma->0) =     -104.78153892


--------------------------------------------------------------------------------------------------------




--------------------------------------- Iteration      1(  15)  ---------------------------------------


    POTLOK:  cpu time    0.0622: real time    0.0726
    SETDIJ:  cpu time    0.0177: real time    0.0177
     EDDAV:  cpu time    2.6741: real time    2.6805
 BZINTS: Fermi energy: -0.508178;144.000000 electrons
         Band energy:***********;  BLOECHL correction:  0.000000
       DOS:  cpu time    0.0023: real time    0.0023
    CHARGE:  cpu time    0.1399: real time    0.1402
    MIXING:  cpu time    0.0124: real time    0.0125
    --------------------------------------------
      LOOP:  cpu time    2.9086: real time    2.9257

 eigenvalue-minimisations  :  3048
 total energy-change (2. order) :-0.1640848E-02  (-0.1797162E-03)
 number of electron     143.9999986 magnetization 
 augmentation part      -17.6430354 magnetization 

 Broyden mixing:
  rms(total) = 0.21749E-02    rms(broyden)= 0.21749E-02
  rms(prec ) = 0.42147E-02
  weight for this iteration     100.00

 eigenvalues of (default mixing * dielectric matrix)
  average eigenvalue GAMMA=   1.9571
  5.4102  3.5977  2.4264  1.7178  0.9038  0.9038  1.2512  1.2512  1.0008  1.1082

 Free energy of the ion-electron system (eV)
  ---------------------------------------------------
  alpha Z        PSCENC =       170.45750602
  Ewald energy   TEWEN  =     11314.38168942
  -Hartree energ DENC   =    -17736.80686192
  -exchange      EXHF   =         0.00000000
  -V(xc)+E(xc)   XCENC  =        49.06719397
  PAW double counting   =      3821.30911716    -3535.03607072
  entropy T*S    EENTRO =         0.00000000
  eigenvalues    EBANDS =     -1439.01551391
  atomic energy  EATOM  =      7250.85976021
  Solvation  Ediel_sol  =         0.00000000
  ---------------------------------------------------
  free energy    TOTEN  =      -104.78317977 eV

  energy without entropy =     -104.78317977  energy(sigma->0) =     -104.78317977


--------------------------------------------------------------------------------------------------------




--------------------------------------- Iteration      1(  16)  ---------------------------------------


    POTLOK:  cpu time    0.0557: real time    0.0661
    SETDIJ:  cpu time    0.0195: real time    0.0196
     EDDAV:  cpu time    2.7736: real time    2.7801
 BZINTS: Fermi energy: -0.497931;144.000000 electrons
         Band energy:***********;  BLOECHL correction:  0.000000
       DOS:  cpu time    0.0024: real time    0.0024
    CHARGE:  cpu time    0.1347: real time    0.1350
    MIXING:  cpu time    0.0081: real time    0.0081
    --------------------------------------------
      LOOP:  cpu time    2.9940: real time    3.0114

 eigenvalue-minimisations  :  3120
 total energy-change (2. order) :-0.9321754E-03  (-0.6722347E-04)
 number of electron     143.9999986 magnetization 
 augmentation part      -17.6428623 magnetization 

 Broyden mixing:
  rms(total) = 0.15246E-02    rms(broyden)= 0.15246E-02
  rms(prec ) = 0.27953E-02
  weight for this iteration     100.00

 eigenvalues of (default mixing * dielectric matrix)
  average eigenvalue GAMMA=   2.0070
  5.6427  4.0870  2.5146  1.7242  1.7242  0.9071  0.9071  1.2789  1.2789  1.0063
  1.0063

 Free energy of the ion-electron system (eV)
  ---------------------------------------------------
  alpha Z        PSCENC =       170.45750602
  Ewald energy   TEWEN  =     11314.38168942
  -Hartree energ DENC   =    -17738.19535461
  -exchange      EXHF   =         0.00000000
  -V(xc)+E(xc)   XCENC  =        49.06381979
  PAW double counting   =      3821.49747031    -3535.23026175
  entropy T*S    EENTRO =         0.00000000
  eigenvalues    EBANDS =     -1437.61874133
  atomic energy  EATOM  =      7250.85976021
  Solvation  Ediel_sol  =         0.00000000
  ---------------------------------------------------
  free energy    TOTEN  =      -104.78411195 eV

  energy without entropy =     -104.78411195  energy(sigma->0) =     -104.78411195


--------------------------------------------------------------------------------------------------------




--------------------------------------- Iteration      1(  17)  ---------------------------------------


    POTLOK:  cpu time    0.0534: real time    0.0638
    SETDIJ:  cpu time    0.0442: real time    0.0443
     EDDAV:  cpu time    2.8205: real time    2.8272
 BZINTS: Fermi energy: -0.489791;144.000000 electrons
         Band energy:***********;  BLOECHL correction:  0.000000
       DOS:  cpu time    0.0022: real time    0.0022
    CHARGE:  cpu time    0.1300: real time    0.1303
    MIXING:  cpu time    0.0081: real time    0.0081
    --------------------------------------------
      LOOP:  cpu time    3.0583: real time    3.0758

 eigenvalue-minimisations  :  3112
 total energy-change (2. order) :-0.4178608E-03  (-0.3176089E-04)
 number of electron     143.9999986 magnetization 
 augmentation part      -17.6428035 magnetization 

 Broyden mixing:
  rms(total) = 0.10537E-02    rms(broyden)= 0.10537E-02
  rms(prec ) = 0.19164E-02
  weight for this iteration     100.00

 eigenvalues of (default mixing * dielectric matrix)
  average eigenvalue GAMMA=   2.0522
  6.0736  4.3125  2.7874  2.2380  1.6459  0.9055  0.9055  1.3016  1.3016  1.0953
  1.0953  0.9639

 Free energy of the ion-electron system (eV)
  ---------------------------------------------------
  alpha Z        PSCENC =       170.45750602
  Ewald energy   TEWEN  =     11314.38168942
  -Hartree energ DENC   =    -17739.16280372
  -exchange      EXHF   =         0.00000000
  -V(xc)+E(xc)   XCENC  =        49.06560502
  PAW double counting   =      3821.55971622    -3535.29050105
  entropy T*S    EENTRO =         0.00000000
  eigenvalues    EBANDS =     -1436.65550192
  atomic energy  EATOM  =      7250.85976021
  Solvation  Ediel_sol  =         0.00000000
  ---------------------------------------------------
  free energy    TOTEN  =      -104.78452981 eV

  energy without entropy =     -104.78452981  energy(sigma->0) =     -104.78452981


--------------------------------------------------------------------------------------------------------




--------------------------------------- Iteration      1(  18)  ---------------------------------------


    POTLOK:  cpu time    0.0552: real time    0.0666
    SETDIJ:  cpu time    0.0159: real time    0.0159
     EDDAV:  cpu time    2.4524: real time    2.4582
 BZINTS: Fermi energy: -0.485610;144.000000 electrons
         Band energy:***********;  BLOECHL correction:  0.000000
       DOS:  cpu time    0.0022: real time    0.0022
    CHARGE:  cpu time    0.1429: real time    0.1433
    MIXING:  cpu time    0.0090: real time    0.0091
    --------------------------------------------
      LOOP:  cpu time    2.6776: real time    2.6953

 eigenvalue-minimisations  :  2992
 total energy-change (2. order) :-0.9682600E-03  (-0.1845441E-04)
 number of electron     143.9999986 magnetization 
 augmentation part      -17.6426249 magnetization 

 Broyden mixing:
  rms(total) = 0.58388E-03    rms(broyden)= 0.58388E-03
  rms(prec ) = 0.10169E-02
  weight for this iteration     100.00

 eigenvalues of (default mixing * dielectric matrix)
  average eigenvalue GAMMA=   2.1282
  6.3444  5.0794  2.9806  2.5096  1.8861  0.9050  0.9050  1.3772  1.3772  1.1831
  1.1831  0.9680  0.9680

 Free energy of the ion-electron system (eV)
  ---------------------------------------------------
  alpha Z        PSCENC =       170.45750602
  Ewald energy   TEWEN  =     11314.38168942
  -Hartree energ DENC   =    -17739.89402645
  -exchange      EXHF   =         0.00000000
  -V(xc)+E(xc)   XCENC  =        49.06752219
  PAW double counting   =      3821.48011579    -3535.20839170
  entropy T*S    EENTRO =         0.00000000
  eigenvalues    EBANDS =     -1435.92967355
  atomic energy  EATOM  =      7250.85976021
  Solvation  Ediel_sol  =         0.00000000
  ---------------------------------------------------
  free energy    TOTEN  =      -104.78549807 eV

  energy without entropy =     -104.78549807  energy(sigma->0) =     -104.78549807


--------------------------------------------------------------------------------------------------------




--------------------------------------- Iteration      1(  19)  ---------------------------------------


    POTLOK:  cpu time    0.0539: real time    0.0658
    SETDIJ:  cpu time    0.0611: real time    0.0613
     EDDAV:  cpu time    2.7111: real time    2.7176
 BZINTS: Fermi energy: -0.485307;144.000000 electrons
         Band energy:***********;  BLOECHL correction:  0.000000
       DOS:  cpu time    0.0021: real time    0.0021
    CHARGE:  cpu time    0.1521: real time    0.1525
    MIXING:  cpu time    0.0099: real time    0.0099
    --------------------------------------------
      LOOP:  cpu time    2.9903: real time    3.0092

 eigenvalue-minimisations  :  2672
 total energy-change (2. order) :-0.6913749E-03  (-0.9012086E-05)
 number of electron     143.9999986 magnetization 
 augmentation part      -17.6427590 magnetization 

 Broyden mixing:
  rms(total) = 0.46936E-03    rms(broyden)= 0.46936E-03
  rms(prec ) = 0.68083E-03
  weight for this iteration     100.00

 eigenvalues of (default mixing * dielectric matrix)
  average eigenvalue GAMMA=   2.2589
  7.0470  5.7007  3.4058  2.7220  2.3053  1.6030  1.6030  0.9050  0.9050  1.2161
  1.2161  1.0135  1.0135  0.9683

 Free energy of the ion-electron system (eV)
  ---------------------------------------------------
  alpha Z        PSCENC =       170.45750602
  Ewald energy   TEWEN  =     11314.38168942
  -Hartree energ DENC   =    -17740.09890566
  -exchange      EXHF   =         0.00000000
  -V(xc)+E(xc)   XCENC  =        49.06617972
  PAW double counting   =      3821.43499178    -3535.16284602
  entropy T*S    EENTRO =         0.00000000
  eigenvalues    EBANDS =     -1435.72456491
  atomic energy  EATOM  =      7250.85976021
  Solvation  Ediel_sol  =         0.00000000
  ---------------------------------------------------
  free energy    TOTEN  =      -104.78618944 eV

  energy without entropy =     -104.78618944  energy(sigma->0) =     -104.78618944


--------------------------------------------------------------------------------------------------------




--------------------------------------- Iteration      1(  20)  ---------------------------------------


    POTLOK:  cpu time    0.0534: real time    0.0645
    SETDIJ:  cpu time    0.0238: real time    0.0239
     EDDAV:  cpu time    2.5885: real time    2.5946
 BZINTS: Fermi energy: -0.485565;144.000000 electrons
         Band energy:***********;  BLOECHL correction:  0.000000
       DOS:  cpu time    0.0020: real time    0.0020
    CHARGE:  cpu time    0.1463: real time    0.1466
    MIXING:  cpu time    0.0080: real time    0.0080
    --------------------------------------------
      LOOP:  cpu time    2.8219: real time    2.8396

 eigenvalue-minimisations  :  2704
 total energy-change (2. order) :-0.4492810E-03  (-0.8052620E-05)
 number of electron     143.9999986 magnetization 
 augmentation part      -17.6428464 magnetization 

 Broyden mixing:
  rms(total) = 0.16874E-03    rms(broyden)= 0.16874E-03
  rms(prec ) = 0.23509E-03
  weight for this iteration     100.00

 eigenvalues of (default mixing * dielectric matrix)
  average eigenvalue GAMMA=   2.3106
  7.7241  6.2770  3.5281  2.9993  2.2954  1.7057  1.7057  0.9051  0.9051  1.2413
  1.2413  1.1103  1.1103  0.9549  0.9549

 Free energy of the ion-electron system (eV)
  ---------------------------------------------------
  alpha Z        PSCENC =       170.45750602
  Ewald energy   TEWEN  =     11314.38168942
  -Hartree energ DENC   =    -17740.20304263
  -exchange      EXHF   =         0.00000000
  -V(xc)+E(xc)   XCENC  =        49.06569421
  PAW double counting   =      3821.43737390    -3535.16541249
  entropy T*S    EENTRO =         0.00000000
  eigenvalues    EBANDS =     -1435.62020737
  atomic energy  EATOM  =      7250.85976021
  Solvation  Ediel_sol  =         0.00000000
  ---------------------------------------------------
  free energy    TOTEN  =      -104.78663872 eV

  energy without entropy =     -104.78663872  energy(sigma->0) =     -104.78663872


--------------------------------------------------------------------------------------------------------




--------------------------------------- Iteration      1(  21)  ---------------------------------------


    POTLOK:  cpu time    0.0535: real time    0.0641
    SETDIJ:  cpu time    0.0171: real time    0.0171
     EDDAV:  cpu time    2.3533: real time    2.3589
 BZINTS: Fermi energy: -0.486609;144.000000 electrons
         Band energy:***********;  BLOECHL correction:  0.000000
       DOS:  cpu time    0.0028: real time    0.0028
    CHARGE:  cpu time    0.1432: real time    0.1435
    MIXING:  cpu time    0.0093: real time    0.0094
    --------------------------------------------
      LOOP:  cpu time    2.5792: real time    2.5958

 eigenvalue-minimisations  :  2536
 total energy-change (2. order) :-0.1182163E-03  (-0.1730462E-05)
 number of electron     143.9999986 magnetization 
 augmentation part      -17.6428096 magnetization 

 Broyden mixing:
  rms(total) = 0.95389E-04    rms(broyden)= 0.95389E-04
  rms(prec ) = 0.12076E-03
  weight for this iteration     100.00

 eigenvalues of (default mixing * dielectric matrix)
  average eigenvalue GAMMA=   2.3864
  8.8574  6.5435  3.7133  3.2204  2.3749  1.8767  1.8767  0.9050  0.9050  1.2552
  1.2552  1.2318  1.2318  1.0098  0.9630  0.9630

 Free energy of the ion-electron system (eV)
  ---------------------------------------------------
  alpha Z        PSCENC =       170.45750602
  Ewald energy   TEWEN  =     11314.38168942
  -Hartree energ DENC   =    -17740.17694714
  -exchange      EXHF   =         0.00000000
  -V(xc)+E(xc)   XCENC  =        49.06526410
  PAW double counting   =      3821.44148450    -3535.16953734
  entropy T*S    EENTRO =         0.00000000
  eigenvalues    EBANDS =     -1435.64597672
  atomic energy  EATOM  =      7250.85976021
  Solvation  Ediel_sol  =         0.00000000
  ---------------------------------------------------
  free energy    TOTEN  =      -104.78675694 eV

  energy without entropy =     -104.78675694  energy(sigma->0) =     -104.78675694


--------------------------------------------------------------------------------------------------------




--------------------------------------- Iteration      1(  22)  ---------------------------------------


    POTLOK:  cpu time    0.0534: real time    0.0652
    SETDIJ:  cpu time    0.0225: real time    0.0226
     EDDAV:  cpu time    2.1822: real time    2.1874
 BZINTS: Fermi energy: -0.487414;144.000000 electrons
         Band energy:***********;  BLOECHL correction:  0.000000
       DOS:  cpu time    0.0020: real time    0.0020
    CHARGE:  cpu time    0.1461: real time    0.1465
    MIXING:  cpu time    0.0119: real time    0.0119
    --------------------------------------------
      LOOP:  cpu time    2.4181: real time    2.4356

 eigenvalue-minimisations  :  2336
 total energy-change (2. order) :-0.3759778E-04  (-0.3856825E-06)
 number of electron     143.9999986 magnetization 
 augmentation part      -17.6428071 magnetization 

 Broyden mixing:
  rms(total) = 0.50718E-04    rms(broyden)= 0.50717E-04
  rms(prec ) = 0.65594E-04
  weight for this iteration     100.00

 eigenvalues of (default mixing * dielectric matrix)
  average eigenvalue GAMMA=   2.3718
  8.9433  6.8247  3.8103  3.3027  2.5248  1.9379  1.9379  0.9051  0.9051  1.3817
  1.2583  1.2583  1.1994  1.1994  1.0158  0.9576  0.9576

 Free energy of the ion-electron system (eV)
  ---------------------------------------------------
  alpha Z        PSCENC =       170.45750602
  Ewald energy   TEWEN  =     11314.38168942
  -Hartree energ DENC   =    -17740.15630256
  -exchange      EXHF   =         0.00000000
  -V(xc)+E(xc)   XCENC  =        49.06485861
  PAW double counting   =      3821.43287657    -3535.16101562
  entropy T*S    EENTRO =         0.00000000
  eigenvalues    EBANDS =     -1435.66616719
  atomic energy  EATOM  =      7250.85976021
  Solvation  Ediel_sol  =         0.00000000
  ---------------------------------------------------
  free energy    TOTEN  =      -104.78679454 eV

  energy without entropy =     -104.78679454  energy(sigma->0) =     -104.78679454


--------------------------------------------------------------------------------------------------------




--------------------------------------- Iteration      1(  23)  ---------------------------------------


    POTLOK:  cpu time    0.0535: real time    0.0652
    SETDIJ:  cpu time    0.0250: real time    0.0251
     EDDAV:  cpu time    2.0810: real time    2.0860
 BZINTS: Fermi energy: -0.487899;144.000000 electrons
         Band energy:***********;  BLOECHL correction:  0.000000
       DOS:  cpu time    0.0021: real time    0.0021
    CHARGE:  cpu time    0.1383: real time    0.1386
    MIXING:  cpu time    0.0109: real time    0.0110
    --------------------------------------------
      LOOP:  cpu time    2.3109: real time    2.3280

 eigenvalue-minimisations  :  2088
 total energy-change (2. order) :-0.1135125E-04  (-0.8958388E-07)
 number of electron     143.9999986 magnetization 
 augmentation part      -17.6428046 magnetization 

 Broyden mixing:
  rms(total) = 0.27620E-04    rms(broyden)= 0.27620E-04
  rms(prec ) = 0.36463E-04
  weight for this iteration     100.00

 eigenvalues of (default mixing * dielectric matrix)
  average eigenvalue GAMMA=   2.3710
  9.0523  6.9161  3.6978  3.6978  2.5712  2.2514  1.8597  1.8597  0.9050  0.9050
  1.2777  1.2777  1.2262  1.2262  1.0563  0.9715  0.9715  0.9540

 Free energy of the ion-electron system (eV)
  ---------------------------------------------------
  alpha Z        PSCENC =       170.45750602
  Ewald energy   TEWEN  =     11314.38168942
  -Hartree energ DENC   =    -17740.16039117
  -exchange      EXHF   =         0.00000000
  -V(xc)+E(xc)   XCENC  =        49.06494182
  PAW double counting   =      3821.43222017    -3535.16039403
  entropy T*S    EENTRO =         0.00000000
  eigenvalues    EBANDS =     -1435.66213834
  atomic energy  EATOM  =      7250.85976021
  Solvation  Ediel_sol  =         0.00000000
  ---------------------------------------------------
  free energy    TOTEN  =      -104.78680589 eV

  energy without entropy =     -104.78680589  energy(sigma->0) =     -104.78680589


--------------------------------------------------------------------------------------------------------




--------------------------------------- Iteration      1(  24)  ---------------------------------------


    POTLOK:  cpu time    0.0535: real time    0.0644
    SETDIJ:  cpu time    0.0170: real time    0.0170
     EDDAV:  cpu time    1.8343: real time    1.8386
 BZINTS: Fermi energy: -0.488373;144.000000 electrons
         Band energy:***********;  BLOECHL correction:  0.000000
       DOS:  cpu time    0.0021: real time    0.0021
    CHARGE:  cpu time    0.1305: real time    0.1308
    MIXING:  cpu time    0.0086: real time    0.0086
    --------------------------------------------
      LOOP:  cpu time    2.0459: real time    2.0616

 eigenvalue-minimisations  :  1880
 total energy-change (2. order) :-0.2537963E-05  (-0.2486293E-07)
 number of electron     143.9999986 magnetization 
 augmentation part      -17.6428063 magnetization 

 Broyden mixing:
  rms(total) = 0.14635E-04    rms(broyden)= 0.14635E-04
  rms(prec ) = 0.21373E-04
  weight for this iteration     100.00

 eigenvalues of (default mixing * dielectric matrix)
  average eigenvalue GAMMA=   2.3672
  9.0535  6.9849  3.8559  3.8559  2.6880  2.6027  1.9486  1.9486  0.9051  0.9051
  1.2715  1.2715  1.2544  1.2544  1.2938  0.9528  0.9528  0.9884  0.9884

 Free energy of the ion-electron system (eV)
  ---------------------------------------------------
  alpha Z        PSCENC =       170.45750602
  Ewald energy   TEWEN  =     11314.38168942
  -Hartree energ DENC   =    -17740.15256228
  -exchange      EXHF   =         0.00000000
  -V(xc)+E(xc)   XCENC  =        49.06484469
  PAW double counting   =      3821.43196795    -3535.16013073
  entropy T*S    EENTRO =         0.00000000
  eigenvalues    EBANDS =     -1435.66988372
  atomic energy  EATOM  =      7250.85976021
  Solvation  Ediel_sol  =         0.00000000
  ---------------------------------------------------
  free energy    TOTEN  =      -104.78680843 eV

  energy without entropy =     -104.78680843  energy(sigma->0) =     -104.78680843


--------------------------------------------------------------------------------------------------------




--------------------------------------- Iteration      1(  25)  ---------------------------------------


    POTLOK:  cpu time    0.0540: real time    0.0645
    SETDIJ:  cpu time    0.0271: real time    0.0272
     EDDAV:  cpu time    1.8787: real time    1.8831
 BZINTS: Fermi energy: -0.488763;144.000000 electrons
         Band energy:***********;  BLOECHL correction:  0.000000
       DOS:  cpu time    0.0021: real time    0.0021
    --------------------------------------------
      LOOP:  cpu time    1.9618: real time    1.9768

 eigenvalue-minimisations  :  1904
 total energy-change (2. order) :-0.7203471E-06  (-0.1397277E-07)
 number of electron     143.9999986 magnetization 
 augmentation part      -17.6428063 magnetization 

 Free energy of the ion-electron system (eV)
  ---------------------------------------------------
  alpha Z        PSCENC =       170.45750602
  Ewald energy   TEWEN  =     11314.38168942
  -Hartree energ DENC   =    -17740.15322752
  -exchange      EXHF   =         0.00000000
  -V(xc)+E(xc)   XCENC  =        49.06482950
  PAW double counting   =      3821.43060910    -3535.15876280
  entropy T*S    EENTRO =         0.00000000
  eigenvalues    EBANDS =     -1435.66921307
  atomic energy  EATOM  =      7250.85976021
  Solvation  Ediel_sol  =         0.00000000
  ---------------------------------------------------
[...]
      7     -27.9913      2.00000
      8     -27.9909      2.00000
      9     -14.8359      2.00000
     10     -14.8357      2.00000
     11     -14.7674      2.00000
     12     -14.7674      2.00000
     13     -14.6925      2.00000
     14     -14.6925      2.00000
     15     -13.9467      2.00000
     16     -13.9460      2.00000
     17     -13.9269      2.00000
     18     -13.9203      2.00000
     19     -13.8702      2.00000
     20     -13.8696      2.00000
     21     -13.8217      2.00000
     22     -13.8137      2.00000
     23     -13.7775      2.00000
     24     -13.7751      2.00000
     25     -13.7737      2.00000
     26     -13.7731      2.00000
     27     -13.3451      2.00000
     28     -13.3371      2.00000
     29     -13.2896      2.00000
     30     -13.2817      2.00000
     31     -13.2663      2.00000
     32     -13.2640      2.00000
     33     -10.9581      2.00000
     34     -10.9490      2.00000
     35     -10.6387      2.00000
     36     -10.6255      2.00000
     37      -6.3543      2.00000
     38      -6.3417      2.00000
     39      -6.1190      2.00000
     40      -6.1020      2.00000
     41      -6.0423      2.00000
     42      -6.0363      2.00000
     43      -5.8240      2.00000
     44      -5.8105      2.00000
     45      -5.7727      2.00000
     46      -5.7331      2.00000
     47      -5.7050      2.00000
     48      -5.5969      2.00000
     49      -2.7153      2.00000
     50      -2.6298      2.00000
     51      -2.4929      2.00000
     52      -2.4526      2.00000
     53      -2.1240      2.00000
     54      -2.0556      2.00000
     55      -2.0425      2.00000
     56      -2.0041      2.00000
     57      -1.8883      2.00000
     58      -1.8648      2.00000
     59      -1.7408      2.00000
     60      -1.6579      2.00000
     61      -1.6056      2.00000
     62      -1.5169      2.00000
     63      -1.4110      2.00000
     64      -1.3723      2.00000
     65      -1.2343      2.00000
     66      -1.1696      2.00000
     67      -1.1139      2.00000
     68      -0.9811      2.00000
     69      -0.8794      2.00000
     70      -0.8255      2.00000
     71      -0.7665      2.00000
     72      -0.7215      2.00000
     73       0.4452      0.00000
     74       0.4742      0.00000
     75       0.6051      0.00000
     76       0.6450      0.00000
     77       0.7255      0.00000
     78       0.8033      0.00000
     79       0.9538      0.00000
     80       0.9896      0.00000
     81       1.0337      0.00000
     82       1.1278      0.00000
     83       1.2787      0.00000
     84       1.3694      0.00000
     85       1.4255      0.00000
     86       1.5425      0.00000
     87       1.6548      0.00000
     88       1.7555      0.00000

 k-point    15 :       0.0000    0.5000    0.4000
  band No.  band energies     occupation 
      1     -29.4919      2.00000
      2     -29.4919      2.00000
      3     -28.5725      2.00000
      4     -28.5725      2.00000
      5     -28.5112      2.00000
      6     -28.5112      2.00000
      7     -27.9911      2.00000
      8     -27.9911      2.00000
      9     -14.8354      2.00000
     10     -14.8354      2.00000
     11     -14.7681      2.00000
     12     -14.7681      2.00000
     13     -14.6945      2.00000
     14     -14.6945      2.00000
     15     -13.9459      2.00000
     16     -13.9459      2.00000
     17     -13.9244      2.00000
     18     -13.9243      2.00000
     19     -13.8722      2.00000
     20     -13.8722      2.00000
     21     -13.8196      2.00000
     22     -13.8196      2.00000
     23     -13.7768      2.00000
     24     -13.7768      2.00000
     25     -13.7737      2.00000
     26     -13.7737      2.00000
     27     -13.3407      2.00000
     28     -13.3407      2.00000
     29     -13.2864      2.00000
     30     -13.2864      2.00000
     31     -13.2642      2.00000
     32     -13.2642      2.00000
     33     -10.9478      2.00000
     34     -10.9478      2.00000
     35     -10.6227      2.00000
     36     -10.6227      2.00000
     37      -6.3772      2.00000
     38      -6.3772      2.00000
     39      -6.0906      2.00000
     40      -6.0906      2.00000
     41      -6.0366      2.00000
     42      -6.0366      2.00000
     43      -5.7944      2.00000
     44      -5.7944      2.00000
     45      -5.7619      2.00000
     46      -5.7619      2.00000
     47      -5.6443      2.00000
     48      -5.6443      2.00000
     49      -2.6231      2.00000
     50      -2.6231      2.00000
     51      -2.4924      2.00000
     52      -2.4924      2.00000
     53      -2.0828      2.00000
     54      -2.0828      2.00000
     55      -2.0341      2.00000
     56      -2.0340      2.00000
     57      -1.8887      2.00000
     58      -1.8887      2.00000
     59      -1.6459      2.00000
     60      -1.6459      2.00000
     61      -1.4729      2.00000
     62      -1.4729      2.00000
     63      -1.4421      2.00000
     64      -1.4420      2.00000
     65      -1.2163      2.00000
     66      -1.2163      2.00000
     67      -1.0513      2.00000
     68      -1.0513      2.00000
     69      -0.8679      2.00000
     70      -0.8679      2.00000
     71      -0.7522      2.00000
     72      -0.7522      2.00000
     73       0.3683      0.00000
     74       0.3683      0.00000
     75       0.5983      0.00000
     76       0.5983      0.00000
     77       0.7790      0.00000
     78       0.7790      0.00000
     79       0.9132      0.00000
     80       0.9132      0.00000
     81       1.0032      0.00000
     82       1.0032      0.00000
     83       1.3428      0.00000
     84       1.3429      0.00000
     85       1.5226      0.00000
     86       1.5226      0.00000
     87       1.6150      0.00000
     88       1.6151      0.00000


--------------------------------------------------------------------------------------------------------


 soft charge-density along one line, spin component           1
         0         1         2         3         4         5         6         7         8         9
 total charge-density along one line
 
 pseudopotential strength for first ion, spin component:           1
  5.079  -5.591  -0.000  -0.008  -0.038  -0.000  -0.003  -0.015
 -5.591  -2.740   0.000   0.002   0.007  -0.000  -0.001  -0.006
 -0.000   0.000  -6.781  -0.000  -0.000   1.857  -0.000  -0.000
 -0.008   0.002  -0.000  -6.776  -0.002  -0.000   1.869  -0.004
 -0.038   0.007  -0.000  -0.002  -6.776  -0.000  -0.004   1.868
 -0.000  -0.000   1.857  -0.000  -0.000   7.309  -0.000  -0.000
 -0.003  -0.001  -0.000   1.869  -0.004  -0.000   7.311  -0.000
 -0.015  -0.006  -0.000  -0.004   1.868  -0.000  -0.000   7.311
 -0.000   0.000  -0.013  -0.000  -0.000  -0.009  -0.000  -0.000
 -0.000   0.000  -0.001  -0.000  -0.000  -0.000  -0.000  -0.000
  0.002  -0.001   0.000  -0.004   0.007   0.000  -0.003   0.005
 -0.002   0.001  -0.000  -0.013  -0.002  -0.000  -0.008  -0.002
  0.003  -0.001   0.000  -0.001  -0.012   0.000  -0.001  -0.008
  0.000   0.000   0.001   0.000   0.000   0.000   0.000   0.000
  0.000   0.000   0.000   0.000   0.000  -0.000   0.000   0.000
 -0.000  -0.000  -0.000   0.000  -0.000  -0.000   0.000  -0.000
  0.000   0.000   0.000   0.001   0.000   0.000   0.000   0.000
 -0.000  -0.000  -0.000   0.000   0.000  -0.000   0.000   0.000
 total augmentation occupancy for first ion, spin component:           1
  2.102  -0.257   0.000   0.012   0.055   0.000  -0.006  -0.020   0.000  -0.000   0.017  -0.010   0.035   0.000   0.000  -0.010
 -0.257   0.639   0.000  -0.033  -0.144  -0.000   0.012   0.033   0.000  -0.000  -0.030   0.013  -0.067   0.000   0.000   0.042
  0.000   0.000   2.012   0.000   0.000  -0.012   0.000   0.000  -0.085   0.022   0.000   0.000   0.000   0.078  -0.042  -0.000
  0.012  -0.033  -0.000   2.000   0.003   0.000  -0.002  -0.002  -0.000  -0.000  -0.045  -0.069  -0.014   0.000   0.000   0.043
  0.055  -0.144   0.000   0.003   1.995   0.000  -0.002  -0.000  -0.000   0.000   0.035  -0.006  -0.052   0.000   0.000  -0.032
  0.000   0.000  -0.012  -0.000   0.000   0.008   0.000   0.000   0.022  -0.009   0.000   0.000   0.000  -0.030   0.014   0.000
 -0.006   0.012   0.000  -0.002  -0.002  -0.000   0.005   0.001   0.000  -0.000   0.016   0.016   0.005   0.000   0.000  -0.022
 -0.020   0.033  -0.000  -0.002  -0.000   0.000   0.001   0.004   0.000   0.000  -0.006   0.000   0.008  -0.000   0.000   0.008
  0.000  -0.000  -0.085   0.000  -0.000   0.022   0.000   0.000   0.150  -0.013   0.000   0.000   0.000  -0.188   0.019  -0.000
  0.000   0.000   0.022  -0.000   0.000  -0.009   0.000   0.000  -0.013   0.068   0.000   0.000   0.000   0.017  -0.085   0.000
  0.017  -0.030   0.000  -0.045   0.035   0.000   0.016  -0.006   0.000   0.000   0.120   0.052   0.021  -0.000   0.000  -0.149
 -0.010   0.013   0.000  -0.069  -0.006   0.000   0.016   0.000   0.000   0.000   0.052   0.087   0.008   0.000   0.000  -0.072
  0.035  -0.067   0.000  -0.014  -0.052   0.000   0.005   0.008   0.000   0.000   0.021   0.008   0.096   0.000   0.000  -0.028
 -0.000   0.000   0.078   0.000   0.000  -0.030   0.000  -0.000  -0.188   0.017  -0.000  -0.000   0.000   0.264  -0.032   0.000
  0.000   0.000  -0.042  -0.000   0.000   0.014   0.000   0.000   0.019  -0.085   0.000   0.000   0.000  -0.032   0.114   0.000
 -0.010   0.042   0.000   0.043  -0.032   0.000  -0.022   0.008   0.000   0.000  -0.149  -0.072  -0.028  -0.000   0.000   0.205
  0.007  -0.030   0.000   0.064   0.000  -0.000  -0.023  -0.001  -0.000  -0.000  -0.070  -0.111  -0.011  -0.000   0.000   0.107
 -0.027   0.082   0.000   0.022   0.050   0.000  -0.008  -0.011   0.000   0.000  -0.029  -0.013  -0.127   0.000  -0.000   0.046


------------------------ aborting loop because EDIFF is reached ----------------------------------------


    CHARGE:  cpu time    0.1443: real time    0.1447
    FORLOC:  cpu time    0.0089: real time    0.0090
    FORNL :  cpu time    0.5374: real time    0.5386
    STRESS:  cpu time    1.5975: real time    1.6014
    FORCOR:  cpu time    0.0606: real time    0.0607
    FORHAR:  cpu time    0.0204: real time    0.0204
    MIXING:  cpu time    0.0243: real time    0.0244
    OFIELD:  cpu time    0.0000: real time    0.0000

  FORCE on cell =-STRESS in cart. coord.  units (eV):
  Direction    XX          YY          ZZ          XY          YZ          ZX
  --------------------------------------------------------------------------------------
  Alpha Z   170.45751   170.45751   170.45751
  Ewald  -19052.64428 15453.71212 14913.30055    -0.00002     0.00000   141.77143
  Hartree-16001.42908 17082.59729 16658.98462     0.00000    -0.00000   109.94409
  E(xc)    -461.66915  -459.65613  -460.12052    -0.00000    -0.00000     0.14915
  Local   33640.42377-33971.62408-32999.53516     0.00001    -0.00000  -250.10980
  n-local   338.68732   338.37775   339.89731     0.05919    -0.20591    -1.22824
  augment  -169.12897  -169.55356  -169.52185    -0.00000    -0.00000     0.24994
  Kinetic  1525.18438  1544.80240  1536.45949    -0.05697    -0.81743    -0.67938
  Fock        0.00000     0.00000     0.00000     0.00000     0.00000     0.00000
  -------------------------------------------------------------------------------------
  Total     -10.11850   -10.88671   -10.07806     0.00000     0.00000     0.09719
  in kB      -8.58646    -9.23835    -8.55214     0.00000     0.00000     0.08248
  external pressure =       -8.79 kB  Pullay stress =        0.00 kB


 VOLUME and BASIS-vectors are now :
 -----------------------------------------------------------------------------
  energy-cutoff  :      500.00
  volume of cell :     1888.05
      direct lattice vectors                 reciprocal lattice vectors
    24.009468079  0.000000000  0.000000000     0.041650236  0.000000000  0.000000000
     0.000000000  6.777849674  0.000000000     0.000000000  0.147539419  0.000000000
     0.000000000  0.000000000 11.602143288     0.000000000  0.000000000  0.086190971

  length of vectors
    24.009468079  6.777849674 11.602143288     0.041650236  0.147539419  0.086190971


 FORCES acting on ions
    electron-ion (+dipol)            ewald-force                    non-local-force                 convergence-correction
 -----------------------------------------------------------------------------------------------
   0.769E+03 0.102E-04 0.440E+02   -.764E+03 0.988E-05 -.432E+02   -.430E+01 -.451E-19 -.813E+00   -.149E-03 -.103E-08 0.179E-04
   -.769E+03 -.630E-04 -.440E+02   0.764E+03 -.128E-04 0.432E+02   0.430E+01 0.733E-19 0.813E+00   0.149E-03 0.115E-08 -.179E-04
   0.866E+02 -.612E-04 -.393E+02   -.863E+02 -.178E-04 0.380E+02   0.962E-01 -.387E-19 0.133E+01   0.979E-04 0.174E-08 -.830E-04
   -.866E+02 0.109E-04 0.393E+02   0.863E+02 0.127E-04 -.380E+02   -.962E-01 0.358E-19 -.133E+01   -.979E-04 -.160E-08 0.830E-04
   0.617E+03 -.611E-04 -.483E+02   -.614E+03 -.164E-04 0.486E+02   -.182E+01 -.292E-18 -.326E+00   -.510E-04 0.141E-08 -.125E-03
   -.617E+03 0.901E-05 0.483E+02   0.614E+03 0.142E-04 -.486E+02   0.182E+01 -.791E-18 0.326E+00   0.510E-04 -.132E-08 0.125E-03
   0.354E+03 0.113E-04 -.112E+02   -.353E+03 0.130E-04 0.104E+02   -.535E+00 -.144E-17 0.751E+00   0.269E-04 -.154E-08 0.521E-04
   -.354E+03 -.621E-04 0.112E+02   0.353E+03 -.131E-04 -.104E+02   0.535E+00 0.665E-18 -.751E+00   -.269E-04 0.153E-08 -.520E-04
   0.271E+03 0.363E+02 -.466E+02   -.271E+03 -.378E+02 0.475E+02   -.385E-01 0.152E+01 -.859E+00   0.268E-04 0.374E-04 -.415E-04
   -.271E+03 -.363E+02 0.466E+02   0.271E+03 0.378E+02 -.475E+02   0.385E-01 -.152E+01 0.859E+00   -.268E-04 -.374E-04 0.415E-04
   0.117E+03 -.330E+02 0.229E+01   -.117E+03 0.342E+02 -.123E+01   -.121E+00 -.113E+01 -.106E+01   -.395E-04 -.516E-04 -.360E-05
   -.117E+03 0.330E+02 -.229E+01   0.117E+03 -.342E+02 0.123E+01   0.121E+00 0.113E+01 0.106E+01   0.395E-04 0.516E-04 0.360E-05
   -.271E+03 0.363E+02 0.466E+02   0.271E+03 -.378E+02 -.475E+02   0.385E-01 0.152E+01 0.859E+00   -.268E-04 0.374E-04 0.415E-04
   0.271E+03 -.363E+02 -.466E+02   -.271E+03 0.378E+02 0.475E+02   -.385E-01 -.152E+01 -.859E+00   0.268E-04 -.374E-04 -.415E-04
   -.117E+03 -.330E+02 -.229E+01   0.117E+03 0.342E+02 0.123E+01   0.121E+00 -.113E+01 0.106E+01   0.395E-04 -.516E-04 0.360E-05
   0.117E+03 0.330E+02 0.229E+01   -.117E+03 -.342E+02 -.123E+01   -.121E+00 0.113E+01 -.106E+01   -.395E-04 0.516E-04 -.360E-05
   0.326E+03 -.416E-05 0.459E+02   -.328E+03 -.607E-05 -.465E+02   0.142E+01 0.250E-18 0.635E+00   0.103E-04 0.437E-09 0.436E-04
   -.326E+03 0.615E-05 -.459E+02   0.328E+03 0.630E-05 0.465E+02   -.142E+01 -.113E-18 -.635E+00   -.103E-04 -.470E-09 -.436E-04
   0.331E+02 0.875E-05 -.106E+02   -.313E+02 0.746E-05 0.989E+01   -.152E+01 -.107E-18 0.701E+00   -.176E-04 -.649E-09 -.155E-04
   -.331E+02 -.239E-05 0.106E+02   0.313E+02 -.712E-05 -.989E+01   0.152E+01 -.403E-19 -.701E+00   0.176E-04 0.608E-09 0.155E-04
   0.237E+03 0.433E-05 0.138E+02   -.237E+03 0.803E-05 -.150E+02   -.155E+00 -.398E-18 0.113E+01   0.976E-05 -.565E-09 -.100E-05
   -.237E+03 -.546E-05 -.138E+02   0.237E+03 -.808E-05 0.150E+02   0.155E+00 0.804E-18 -.113E+01   -.975E-05 0.527E-09 0.100E-05
   0.152E+03 -.608E-05 0.585E+02   -.152E+03 -.742E-05 -.603E+02   -.623E+00 -.876E-17 0.175E+01   -.200E-04 0.572E-09 0.904E-04
   -.152E+03 0.371E-05 -.585E+02   0.152E+03 0.728E-05 0.603E+02   0.623E+00 -.802E-17 -.175E+01   0.200E-04 -.581E-09 -.904E-04
 -----------------------------------------------------------------------------------------------
   0.708E-04 -.212E-03 0.628E-04   0.171E-12 -.671E-15 0.142E-13   -.222E-15 -.460E-15 0.666E-15   0.425E-07 0.165E-09 -.421E-08
 
 
 POSITION                                       TOTAL-FORCE (eV/Angst)
 -----------------------------------------------------------------------------------
      0.13670      1.69446      8.16444         0.781735      0.000000     -0.000019
      9.27277      5.08339      3.43771        -0.781735      0.000000      0.000019
      4.36803      5.08339      2.14731         0.330101      0.000000     -0.000271
      5.04143      1.69446      9.45483        -0.330101      0.000000      0.000271
      1.43529      5.08339     10.61786         0.641599      0.000000     -0.000306
      7.97418      1.69446      0.98428        -0.641599      0.000000      0.000306
      3.06944      1.69446      4.59274         0.467360      0.000000      0.000361
      6.34002      5.08339      7.00941        -0.467360      0.000000     -0.000361
      1.75027      0.49370      1.64835        -0.136108      0.000593      0.000740
      7.65920      6.28415      9.95379         0.136108     -0.000593     -0.000740
      2.75446      6.29489      7.65184         0.217627      0.000488      0.000315
      6.65500      0.48296      3.95030        -0.217627     -0.000488     -0.000315
      7.65920      3.88263      9.95379         0.136108      0.000593     -0.000740
      1.75027      2.89522      1.64835        -0.136108     -0.000593      0.000740
      6.65500      2.90597      3.95030        -0.217627      0.000488     -0.000315
      2.75446      3.87188      7.65184         0.217627     -0.000488      0.000315
      0.74693      5.08339      6.96186        -0.245481      0.000000     -0.000134
      8.66254      1.69446      4.64028         0.245481      0.000000      0.000134
      3.75780      1.69446      0.93282         0.231955      0.000000      0.000810
      5.65166      5.08339     10.66932        -0.231955      0.000000     -0.000810
      1.78112      1.69446     11.13738        -0.168941      0.000000     -0.000658
      7.62835      5.08339      0.46476         0.168941      0.000000      0.000658
      2.72362      5.08339      5.53718        -0.196331      0.000000      0.000039
      6.68585      1.69446      6.06496         0.196331      0.000000     -0.000039
 -----------------------------------------------------------------------------------
    total drift:                                0.000071     -0.000212      0.000063


--------------------------------------------------------------------------------------------------------



  FREE ENERGIE OF THE ION-ELECTRON SYSTEM (eV)
  ---------------------------------------------------
  free  energy   TOTEN  =      -104.78680915 eV

  energy  without entropy=     -104.78680915  energy(sigma->0) =     -104.78680915
 


--------------------------------------------------------------------------------------------------------


    POTLOK:  cpu time    0.0725: real time    0.0726


--------------------------------------------------------------------------------------------------------


 writing wavefunctions
     LOOP+:  cpu time   81.1440: real time   82.2259
    4ORBIT:  cpu time    0.0000: real time    0.0000
 BZINTS: Fermi energy: -0.488763;144.000000 electrons
         Band energy:***********;  BLOECHL correction:  0.000000

 total amount of memory used by VASP MPI-rank0    79356. kBytes
=======================================================================

   base      :      30000. kBytes
   nonlr-proj:       2650. kBytes
   fftplans  :       5898. kBytes
   grid      :       8824. kBytes
   one-center:         93. kBytes
   wavefun   :      31891. kBytes
 
  
  
 General timing and accounting informations for this job:
 ========================================================
  
                  Total CPU time used (sec):       89.077
                            User time (sec):       84.339
                          System time (sec):        4.739
                         Elapsed time (sec):       93.023
  
                   Maximum memory used (kb):      171016.
                   Average memory used (kb):           0.
  
                          Minor page faults:        63012
                          Major page faults:          188
                 Voluntary context switches:        14174
