 vasp.5.4.4.18Apr17-6-g9f103f2a35 (build Nov 21 2017 15:30:27) complex          
  
 executed on             LinuxIFC date 2020.09.15  08:14:49
 running on   64 total cores
 distrk:  each k-point on   32 cores,    2 groups
 distr:  one band on NCORES_PER_BAND=   4 cores,    8 groups


--------------------------------------------------------------------------------------------------------


 INCAR:
 POTCAR:   PAW_PBE Ba_sv 06Sep2000                
 POTCAR:   PAW_PBE Si 05Jan2001                   

 ----------------------------------------------------------------------------- 
|                                                                             |
|           W    W    AA    RRRRR   N    N  II  N    N   GGGG   !!!           |
|           W    W   A  A   R    R  NN   N  II  NN   N  G    G  !!!           |
|           W    W  A    A  R    R  N N  N  II  N N  N  G       !!!           |
|           W WW W  AAAAAA  RRRRR   N  N N  II  N  N N  G  GGG   !            |
|           WW  WW  A    A  R   R   N   NN  II  N   NN  G    G                |
|           W    W  A    A  R    R  N    N  II  N    N   GGGG   !!!           |
|                                                                             |
|      You have enabled k-point parallelism (KPAR>1).                         |
|      This developmental code was originally  written by Paul Kent at ORNL,  |
|      and carefully double checked in Vienna.                                |
|      GW as well as linear response parallelism added by Martijn Marsman     |
|      and Georg Kresse.                                                      |
|      Carefully verify results versus KPAR=1.                                |
|      Report problems to Paul Kent and Vienna.                               |
|                                                                             |
 ----------------------------------------------------------------------------- 

 POTCAR:   PAW_PBE Ba_sv 06Sep2000                
   VRHFIN =Ba: 5s5p6s                                                           
   LEXCH  = PE                                                                  
   EATOM  =   700.2255 eV,   51.4651 Ry                                         
                                                                                
   TITEL  = PAW_PBE Ba_sv 06Sep2000                                             
   LULTRA =        F    use ultrasoft PP ?                                      
   IUNSCR =        1    unscreen: 0-lin 1-nonlin 2-no                           
   RPACOR =    2.400    partial core radius                                     
   POMASS =  137.327; ZVAL   =   10.000    mass and valenz                      
   RCORE  =    2.800    outmost cutoff radius                                   
   RWIGS  =    3.740; RWIGS  =    1.979    wigner-seitz radius (au A)           
   ENMAX  =  187.210; ENMIN  =  140.408 eV                                      
   RCLOC  =    2.516    cutoff for local pot                                    
   LCOR   =        T    correct aug charges                                     
   LPAW   =        T    paw PP                                                  
   EAUG   =  351.165                                                            
   DEXC   =     .000                                                            
   RMAX   =    3.370    core radius for proj-oper                               
   RAUG   =    1.300    factor for augmentation sphere                          
   RDEP   =    2.976    radius for radial grids                                 
   QCUT   =   -3.709; QGAM   =    7.419    optimization parameters              
                                                                                
   Description                                                                  
     l     E      TYP  RCUT    TYP  RCUT                                        
     0   .000     23  2.800                                                     
     0   .000     23  2.800                                                     
     1   .000     23  2.700                                                     
     1  2.000     23  2.700                                                     
     2   .000     23  2.700                                                     
     2   .000     23  2.700                                                     
  local pseudopotential read in
  partial core-charges read in
  atomic valenz-charges read in
  non local Contribution for L=           0  read in
    real space projection operators read in
  non local Contribution for L=           0  read in
    real space projection operators read in
  non local Contribution for L=           1  read in
    real space projection operators read in
  non local Contribution for L=           1  read in
    real space projection operators read in
  non local Contribution for L=           2  read in
    real space projection operators read in
  non local Contribution for L=           2  read in
    real space projection operators read in
    PAW grid and wavefunctions read in
 
   number of l-projection  operators is LMAX  =           6
   number of lm-projection operators is LMMAX =          18
 
 POTCAR:   PAW_PBE Si 05Jan2001                   
   VRHFIN =Si: s2p2                                                             
   LEXCH  = PE                                                                  
   EATOM  =   103.0669 eV,    7.5752 Ry                                         
                                                                                
   TITEL  = PAW_PBE Si 05Jan2001                                                
   LULTRA =        F    use ultrasoft PP ?                                      
   IUNSCR =        1    unscreen: 0-lin 1-nonlin 2-no                           
   RPACOR =    1.500    partial core radius                                     
   POMASS =   28.085; ZVAL   =    4.000    mass and valenz                      
   RCORE  =    1.900    outmost cutoff radius                                   
   RWIGS  =    2.480; RWIGS  =    1.312    wigner-seitz radius (au A)           
   ENMAX  =  245.345; ENMIN  =  184.009 eV                                      
   ICORE  =        2    local potential                                         
   LCOR   =        T    correct aug charges                                     
   LPAW   =        T    paw PP                                                  
   EAUG   =  322.069                                                            
   DEXC   =    -.007                                                            
   RMAX   =    2.944    core radius for proj-oper                               
   RAUG   =    1.300    factor for augmentation sphere                          
   RDEP   =    1.993    radius for radial grids                                 
   QCUT   =   -4.246; QGAM   =    8.493    optimization parameters              
                                                                                
   Description                                                                  
     l     E      TYP  RCUT    TYP  RCUT                                        
     0   .000     23  1.900                                                     
     0   .000     23  1.900                                                     
     1   .000     23  1.900                                                     
     1   .000     23  1.900                                                     
     2   .000      7  1.900                                                     
  local pseudopotential read in
  partial core-charges read in
  atomic valenz-charges read in
  non local Contribution for L=           0  read in
    real space projection operators read in
  non local Contribution for L=           0  read in
    real space projection operators read in
  non local Contribution for L=           1  read in
    real space projection operators read in
  non local Contribution for L=           1  read in
    real space projection operators read in
    PAW grid and wavefunctions read in
 
   number of l-projection  operators is LMAX  =           4
   number of lm-projection operators is LMMAX =           8
 
 Optimization of the real space projectors (new method)

 maximal supplied QI-value         = 13.42
 optimisation between [QCUT,QGAM] = [ 11.40, 22.81] = [ 36.42,145.68] Ry 
 Optimized for a Real-space Cutoff    1.56 Angstroem

   l    n(q)    QCUT    max X(q) W(low)/X(q) W(high)/X(q)  e(spline) 
   0     11    11.404     7.198    0.14E-04    0.26E-04    0.99E-07
   0     11    11.404    15.603    0.29E-04    0.72E-04    0.44E-06
   1     10    11.404     3.746    0.20E-04    0.24E-04    0.43E-07
   1     10    11.404     4.362    0.22E-03    0.97E-04    0.22E-06
   2     10    11.404     5.782    0.83E-04    0.62E-05    0.27E-06
   2     10    11.404    65.505    0.42E-03    0.31E-04    0.12E-05
 Optimization of the real space projectors (new method)

 maximal supplied QI-value         = 19.84
 optimisation between [QCUT,QGAM] = [ 11.31, 22.82] = [ 35.82,145.81] Ry 
 Optimized for a Real-space Cutoff    1.16 Angstroem

   l    n(q)    QCUT    max X(q) W(low)/X(q) W(high)/X(q)  e(spline) 
   0      8    11.310     8.708    0.14E-04    0.11E-04    0.43E-08
   0      8    11.310   106.241    0.27E-03    0.30E-03    0.38E-07
   1      7    11.310     5.901    0.82E-05    0.48E-04    0.19E-07
   1      7    11.310    73.241    0.27E-03    0.27E-03    0.74E-07
 PAW_PBE Ba_sv 06Sep2000                :
 energy of atom  1       EATOM= -700.2255
 kinetic energy error for atom=    0.0005 (will be added to EATOM!!)
 PAW_PBE Si 05Jan2001                   :
 energy of atom  2       EATOM= -103.0669
 kinetic energy error for atom=    0.0006 (will be added to EATOM!!)
 
 
 POSCAR: ba8 si16                                
  positions in direct lattice
  velocities in cartesian coordinates
 exchange correlation table for  LEXCH =        8
   RHO(1)=    0.500       N(1)  =     2000
   RHO(2)=  100.500       N(2)  =     4000
 


--------------------------------------------------------------------------------------------------------


 ion  position               nearest neighbor table
   1  0.006  0.250  0.704-  21 3.40  16 3.44  11 3.44  17 3.65  17 3.65   5 4.38   5 4.38   7 4.62

   2  0.388  0.750  0.296-  22 3.40  12 3.44  15 3.44  18 3.65  18 3.65   6 4.38   6 4.38   8 4.62

   3  0.182  0.750  0.185-  20 3.35   9 3.45  14 3.45  19 3.65  19 3.65  12 3.67  15 3.67  22 3.71
                            23 3.78   5 4.29   7 4.38   7 4.38
   4  0.212  0.250  0.815-  19 3.35  13 3.45  10 3.45  20 3.65  20 3.65  16 3.67  11 3.67  21 3.71
                            24 3.78   6 4.29   8 4.38   8 4.38
   5  0.060  0.750  0.915-   9 3.44  14 3.44  21 3.45  21 3.45  11 3.46  16 3.46  17 3.71   3 4.29
                             1 4.38   1 4.38
   6  0.334  0.250  0.085-  13 3.44  10 3.44  22 3.45  22 3.45  15 3.46  12 3.46  18 3.71   4 4.29
                             2 4.38   2 4.38
   7  0.128  0.250  0.396-  14 3.44   9 3.44  23 3.54  23 3.54  19 3.73  16 3.77  11 3.77  15 3.89
                            12 3.89   3 4.38   3 4.38   1 4.62
   8  0.266  0.750  0.604-  10 3.44  13 3.44  24 3.54  24 3.54  20 3.73  12 3.77  15 3.77  11 3.89
                            16 3.89   4 4.38   4 4.38   2 4.62
   9  0.073  0.073  0.142-  14 2.40  21 2.43  19 2.45   5 3.44   7 3.44   3 3.45
  10  0.321  0.927  0.858-  13 2.40  22 2.43  20 2.45   6 3.44   8 3.44   4 3.45
  11  0.115  0.929  0.660-  16 2.42  23 2.44  17 2.45   1 3.44   5 3.46   4 3.67   7 3.77   8 3.89

  12  0.279  0.071  0.340-  15 2.42  24 2.44  18 2.45   2 3.44   6 3.46   3 3.67   8 3.77   7 3.89

  13  0.321  0.573  0.858-  10 2.40  22 2.43  20 2.45   6 3.44   8 3.44   4 3.45
  14  0.073  0.427  0.142-   9 2.40  21 2.43  19 2.45   5 3.44   7 3.44   3 3.45
  15  0.279  0.429  0.340-  12 2.42  24 2.44  18 2.45   2 3.44   6 3.46   3 3.67   8 3.77   7 3.89

  16  0.115  0.571  0.660-  11 2.42  23 2.44  17 2.45   1 3.44   5 3.46   4 3.67   7 3.77   8 3.89

  17  0.031  0.750  0.600-  23 2.44  11 2.45  16 2.45   1 3.65   1 3.65   5 3.71
  18  0.363  0.250  0.400-  24 2.44  15 2.45  12 2.45   2 3.65   2 3.65   6 3.71
  19  0.157  0.250  0.080-  21 2.42  14 2.45   9 2.45   4 3.35   3 3.65   3 3.65   7 3.73
  20  0.237  0.750  0.920-  22 2.42  10 2.45  13 2.45   3 3.35   4 3.65   4 3.65   8 3.73
  21  0.074  0.250  0.960-  19 2.42  14 2.43   9 2.43   1 3.40   5 3.45   5 3.45   4 3.71
  22  0.320  0.750  0.040-  20 2.42  10 2.43  13 2.43   2 3.40   6 3.45   6 3.45   3 3.71
  23  0.113  0.750  0.478-  17 2.44  11 2.44  16 2.44   7 3.54   7 3.54   3 3.78
  24  0.281  0.250  0.522-  18 2.44  15 2.44  12 2.44   8 3.54   8 3.54   4 3.78
 
  LATTYP: Found a simple orthorhombic cell.
 ALAT       =     6.7778496742
 B/A-ratio  =     1.7117734747
 C/A-ratio  =     3.5423429602
  
  Lattice vectors:
  
 A1 = (   0.0000000000,   6.7778496742,   0.0000000000)
 A2 = (   0.0000000000,   0.0000000000, -11.6021432877)
 A3 = ( -24.0094680786,   0.0000000000,   0.0000000000)


Analysis of symmetry for initial positions (statically):
=====================================================================
 Subroutine PRICEL returns:
 Original cell was already a primitive cell.
 

 Routine SETGRP: Setting up the symmetry group for a 
 simple orthorhombic supercell.


 Subroutine GETGRP returns: Found  4 space group operations
 (whereof  1 operations were pure point group operations)
 out of a pool of  8 trial point group operations.


The static configuration has the point symmetry C_1 .
 The point group associated with its full space group is C_2h.


Analysis of symmetry for dynamics (positions and initial velocities):
=====================================================================
 Subroutine PRICEL returns:
 Original cell was already a primitive cell.
 

 Routine SETGRP: Setting up the symmetry group for a 
 simple orthorhombic supercell.


 Subroutine GETGRP returns: Found  4 space group operations
 (whereof  1 operations were pure point group operations)
 out of a pool of  8 trial point group operations.


The dynamic configuration has the point symmetry C_1 .
 The point group associated with its full space group is C_2h.


Analysis of constrained symmetry for selective dynamics:
=====================================================================
 Subroutine PRICEL returns:
 Original cell was already a primitive cell.
 

 Routine SETGRP: Setting up the symmetry group for a 
 simple orthorhombic supercell.


 Subroutine GETGRP returns: Found  4 space group operations
 (whereof  1 operations were pure point group operations)
 out of a pool of  8 trial point group operations.


The constrained configuration has the point symmetry C_1 .
 The point group associated with its full space group is C_2h.


 Subroutine INISYM returns: Found  4 space group operations
 (whereof  1 operations are pure point group operations),
 and found     1 'primitive' translations

 
 
 KPOINTS: k-density: 8.0                          

Automatic generation of k-mesh.
Space group operators:
 irot       det(A)        alpha          n_x          n_y          n_z        tau_x        tau_y        tau_z
    1     1.000000     0.000000     1.000000     0.000000     0.000000     0.000000     0.000000     0.000000
    2    -1.000000     0.000000     1.000000     0.000000     0.000000    -0.606011     0.000000     0.000000
    3     1.000000   180.000000     0.000000     1.000000     0.000000    -0.606011     0.500000     0.000000
    4    -1.000000   180.000000     0.000000     1.000000     0.000000     0.000000     0.500000     0.000000
 
 Subroutine IBZKPT returns following result:
 ===========================================
 
 Found     15 irreducible k-points:
 
 Following reciprocal coordinates:
            Coordinates               Weight
  0.000000  0.000000  0.000000      1.000000
  0.000000  0.125000  0.000000      2.000000
  0.000000  0.250000  0.000000      2.000000
  0.000000  0.375000  0.000000      2.000000
  0.000000  0.500000  0.000000      1.000000
  0.000000  0.000000  0.200000      2.000000
  0.000000  0.125000  0.200000      4.000000
  0.000000  0.250000  0.200000      4.000000
  0.000000  0.375000  0.200000      4.000000
  0.000000  0.500000  0.200000      2.000000
  0.000000  0.000000  0.400000      2.000000
  0.000000  0.125000  0.400000      4.000000
  0.000000  0.250000  0.400000      4.000000
  0.000000  0.375000  0.400000      4.000000
  0.000000  0.500000  0.400000      2.000000
 
 Following cartesian coordinates:
            Coordinates               Weight
  0.000000  0.000000  0.000000      1.000000
  0.000000  0.018442  0.000000      2.000000
  0.000000  0.036885  0.000000      2.000000
  0.000000  0.055327  0.000000      2.000000
  0.000000  0.073770  0.000000      1.000000
  0.000000  0.000000  0.017238      2.000000
  0.000000  0.018442  0.017238      4.000000
  0.000000  0.036885  0.017238      4.000000
  0.000000  0.055327  0.017238      4.000000
  0.000000  0.073770  0.017238      2.000000
  0.000000  0.000000  0.034476      2.000000
  0.000000  0.018442  0.034476      4.000000
  0.000000  0.036885  0.034476      4.000000
  0.000000  0.055327  0.034476      4.000000
  0.000000  0.073770  0.034476      2.000000
 
 TETIRR: Found    108 inequivalent tetrahedra from      240


--------------------------------------------------------------------------------------------------------




 Dimension of arrays:
   k-points           NKPTS =     15   k-points in BZ     NKDIM =     15   number of bands    NBANDS=     88
   number of dos      NEDOS =    301   number of ions     NIONS =     24
   non local maximal  LDIM  =      6   non local SUM 2l+1 LMDIM =     18
   total plane-waves  NPLWV = 358400
   max r-space proj   IRMAX =   3093   max aug-charges    IRDMAX=  12081
   dimension x,y,z NGX =   140 NGY =   40 NGZ =   64
   dimension x,y,z NGXF=   280 NGYF=   80 NGZF=  128
   support grid    NGXF=   280 NGYF=   80 NGZF=  128
   ions per type =               8  16
   NGX,Y,Z   is equivalent  to a cutoff of   9.69,  9.81,  9.17 a.u.
   NGXF,Y,Z  is equivalent  to a cutoff of  19.39, 19.62, 18.34 a.u.

 SYSTEM =  unknown system                          
 POSCAR =  ba8 si16                                

 Startparameter for this run:
   NWRITE =      2    write-flag & timer
   PREC   = normal    normal or accurate (medium, high low for compatibility)
   ISTART =      0    job   : 0-new  1-cont  2-samecut
   ICHARG =      2    charge: 1-file 2-atom 10-const
   ISPIN  =      1    spin polarized calculation?
   LNONCOLLINEAR =      F non collinear calculations
   LSORBIT =      F    spin-orbit coupling
   INIWAV =      1    electr: 0-lowe 1-rand  2-diag
   LASPH  =      F    aspherical Exc in radial PAW
   METAGGA=      F    non-selfconsistent MetaGGA calc.

 Electronic Relaxation 1
   ENCUT  =  500.0 eV  36.75 Ry    6.06 a.u.  43.77 12.36 21.15*2*pi/ulx,y,z
   ENINI  =  500.0     initial cutoff
   ENAUG  =  351.2 eV  augmentation charge cutoff
   NELM   =    100;   NELMIN=  2; NELMDL= -5     # of ELM steps 
   EDIFF  = 0.1E-05   stopping-criterion for ELM
   LREAL  =      T    real-space projection
   NLSPLINE    = F    spline interpolate recip. space projectors
   LCOMPAT=      F    compatible to vasp.4.4
   GGA_COMPAT  = T    GGA compatible to vasp.4.4-vasp.4.6
   LMAXPAW     = -100 max onsite density
   LMAXMIX     =    2 max onsite mixed and CHGCAR
   VOSKOWN=      0    Vosko Wilk Nusair interpolation
   ROPT   =   -0.00050  -0.00050
 Ionic relaxation
   EDIFFG = -.1E-02   stopping-criterion for IOM
   NSW    =      0    number of steps for IOM
   NBLOCK =      1;   KBLOCK =      1    inner block; outer block 
   IBRION =     -1    ionic relax: 0-MD 1-quasi-New 2-CG
   NFREE  =      0    steps in history (QN), initial steepest desc. (CG)
   ISIF   =      2    stress and relaxation
   IWAVPR =     10    prediction:  0-non 1-charg 2-wave 3-comb
   ISYM   =      2    0-nonsym 1-usesym 2-fastsym
   LCORR  =      T    Harris-Foulkes like correction to forces

   POTIM  = 0.3000    time-step for ionic-motion
   TEIN   =    0.0    initial temperature
   TEBEG  =    0.0;   TEEND  =   0.0 temperature during run
   SMASS  =  -3.00    Nose mass-parameter (am)
   estimated Nose-frequenzy (Omega)   =  0.10E-29 period in steps =****** mass=  -0.132E-25a.u.
   SCALEE = 1.0000    scale energy and forces
   NPACO  =    256;   APACO  = 16.0  distance and # of slots for P.C.
   PSTRESS=    0.0 pullay stress

  Mass of Ions in am
   POMASS = 137.33 28.09
  Ionic Valenz
   ZVAL   =  10.00  4.00
  Atomic Wigner-Seitz radii
   RWIGS  =  -1.00 -1.00
  virtual crystal weights 
   VCA    =   1.00  1.00
   NELECT =     144.0000    total number of electrons
   NUPDOWN=      -1.0000    fix difference up-down

 DOS related values:
   EMIN   =  10.00;   EMAX   =-10.00  energy-range for DOS
   EFERMI =   0.00
   ISMEAR =    -5;   SIGMA  =   0.01  broadening in eV -4-tet -1-fermi 0-gaus

 Electronic relaxation 2 (details)
   IALGO  =     38    algorithm
   LDIAG  =      T    sub-space diagonalisation (order eigenvalues)
   LSUBROT=      F    optimize rotation matrix (better conditioning)
   TURBO    =      0    0=normal 1=particle mesh
   IRESTART =      0    0=no restart 2=restart with 2 vectors
   NREBOOT  =      0    no. of reboots
   NMIN     =      0    reboot dimension
   EREF     =   0.00    reference energy to select bands
   IMIX   =      4    mixing-type and parameters
     AMIX     =   0.40;   BMIX     =  1.00
     AMIX_MAG =   1.60;   BMIX_MAG =  1.00
     AMIN     =   0.10
     WC   =   100.;   INIMIX=   1;  MIXPRE=   1;  MAXMIX= -45

 Intra band minimization:
   WEIMIN = 0.0000     energy-eigenvalue tresh-hold
   EBREAK =  0.28E-08  absolut break condition
   DEPER  =   0.30     relativ break condition  

   TIME   =   0.40     timestep for ELM

  volume/ion in A,a.u.               =      78.67       530.88
  Fermi-wavevector in a.u.,A,eV,Ry     =   0.694264  1.311969  6.558046  0.482003
  Thomas-Fermi vector in A             =   1.776709
 
 Write flags
   LWAVE        =      T    write WAVECAR
   LDOWNSAMPLE  =      F    k-point downsampling of WAVECAR
   LCHARG       =      T    write CHGCAR
   LVTOT        =      F    write LOCPOT, total local potential
   LVHAR        =      F    write LOCPOT, Hartree potential only
   LELF         =      F    write electronic localiz. function (ELF)
   LORBIT       =      0    0 simple, 1 ext, 2 COOP (PROOUT), +10 PAW based schemes


 Dipole corrections
   LMONO  =      F    monopole corrections only (constant potential shift)
   LDIPOL =      F    correct potential (dipole corrections)
   IDIPOL =      0    1-x, 2-y, 3-z, 4-all directions 
   EPSILON=  1.0000000 bulk dielectric constant

 Exchange correlation treatment:
   GGA     =    --    GGA type
   LEXCH   =     8    internal setting for exchange type
   VOSKOWN=      0    Vosko Wilk Nusair interpolation
   LHFCALC =     F    Hartree Fock is set to
   LHFONE  =     F    Hartree Fock one center treatment
   AEXX    =    0.0000 exact exchange contribution

 Linear response parameters
   LEPSILON=     F    determine dielectric tensor
   LRPA    =     F    only Hartree local field effects (RPA)
   LNABLA  =     F    use nabla operator in PAW spheres
   LVEL    =     F    velocity operator in full k-point grid
   LINTERFAST=   F  fast interpolation
   KINTER  =     0    interpolate to denser k-point grid
   CSHIFT  =0.1000    complex shift for real part using Kramers Kronig
   OMEGAMAX=  -1.0    maximum frequency
   DEG_THRESHOLD= 0.2000000E-02 threshold for treating states as degnerate
   RTIME   =   -0.100 relaxation time in fs
  (WPLASMAI=    0.000 imaginary part of plasma frequency in eV, 0.658/RTIME)
   DFIELD  = 0.0000000 0.0000000 0.0000000 field for delta impulse in time
 
 Orbital magnetization related:
   ORBITALMAG=     F  switch on orbital magnetization
   LCHIMAG   =     F  perturbation theory with respect to B field
   DQ        =  0.001000  dq finite difference perturbation B field
   LLRAUG    =     F  two centre corrections for induced B field



--------------------------------------------------------------------------------------------------------


 Static calculation
 charge density and potential will be updated during run
 non-spin polarized calculation
 Variant of blocked Davidson
 Davidson routine will perform the subspace rotation
 perform sub-space diagonalisation
    after iterative eigenvector-optimisation
 modified Broyden-mixing scheme, WC =      100.0
 initial mixing is a Kerker type mixing with AMIX =  0.4000 and BMIX =      1.0000
 Hartree-type preconditioning will be used
 using additional bands           16
 real space projection scheme for non local part
 use partial core corrections
 calculate Harris-corrections to forces 
   (improved forces if not selfconsistent)
 use gradient corrections 
 use of overlap-Matrix (Vanderbilt PP)
 Fermi weights with tetrahedron method with Bloechl corrections


--------------------------------------------------------------------------------------------------------


  energy-cutoff  :      500.00
  volume of cell :     1888.05
      direct lattice vectors                 reciprocal lattice vectors
    24.009468079  0.000000000  0.000000000     0.041650236  0.000000000  0.000000000
     0.000000000  6.777849674  0.000000000     0.000000000  0.147539419  0.000000000
     0.000000000  0.000000000 11.602143288     0.000000000  0.000000000  0.086190971

  length of vectors
    24.009468079  6.777849674 11.602143288     0.041650236  0.147539419  0.086190971


 
 k-points in units of 2pi/SCALE and weight: k-density: 8.0                          
   0.00000000  0.00000000  0.00000000       0.025
   0.00000000  0.01844243  0.00000000       0.050
   0.00000000  0.03688485  0.00000000       0.050
   0.00000000  0.05532728  0.00000000       0.050
   0.00000000  0.07376971  0.00000000       0.025
   0.00000000  0.00000000  0.01723819       0.050
   0.00000000  0.01844243  0.01723819       0.100
   0.00000000  0.03688485  0.01723819       0.100
   0.00000000  0.05532728  0.01723819       0.100
   0.00000000  0.07376971  0.01723819       0.050
   0.00000000  0.00000000  0.03447639       0.050
   0.00000000  0.01844243  0.03447639       0.100
   0.00000000  0.03688485  0.03447639       0.100
   0.00000000  0.05532728  0.03447639       0.100
   0.00000000  0.07376971  0.03447639       0.050
 
 k-points in reciprocal lattice and weights: k-density: 8.0                          
   0.00000000  0.00000000  0.00000000       0.025
   0.00000000  0.12500000  0.00000000       0.050
   0.00000000  0.25000000  0.00000000       0.050
   0.00000000  0.37500000  0.00000000       0.050
   0.00000000  0.50000000  0.00000000       0.025
   0.00000000  0.00000000  0.20000000       0.050
   0.00000000  0.12500000  0.20000000       0.100
   0.00000000  0.25000000  0.20000000       0.100
   0.00000000  0.37500000  0.20000000       0.100
   0.00000000  0.50000000  0.20000000       0.050
   0.00000000  0.00000000  0.40000000       0.050
   0.00000000  0.12500000  0.40000000       0.100
   0.00000000  0.25000000  0.40000000       0.100
   0.00000000  0.37500000  0.40000000       0.100
   0.00000000  0.50000000  0.40000000       0.050
 
 position of ions in fractional coordinates (direct lattice) 
   0.00569361  0.25000000  0.70377070
   0.38829546  0.75000002  0.29622930
   0.18192962  0.75000002  0.18454017
   0.21205945  0.25000000  0.81545981
   0.05978014  0.75000002  0.91470952
   0.33420893  0.25000000  0.08529046
   0.12784309  0.25000000  0.39578359
   0.26614598  0.75000002  0.60421645
   0.07289913  0.07282164  0.14202077
   0.32108994  0.92717835  0.85797921
   0.11472410  0.92887332  0.65984182
   0.27926497  0.07112668  0.34015818
   0.32108994  0.57282165  0.85797921
   0.07289913  0.42717835  0.14202077
   0.27926497  0.42887332  0.34015818
   0.11472410  0.57112668  0.65984182
   0.03110981  0.75000002  0.60022916
   0.36287926  0.25000000  0.39977084
   0.15651343  0.25000000  0.07996136
   0.23747566  0.75000002  0.92003862
   0.07418398  0.25000000  0.95979199
   0.31980509  0.75000002  0.04020802
   0.11343925  0.75000002  0.47758106
   0.28054982  0.25000000  0.52241886
 
 position of ions in cartesian coordinates  (Angst):
   0.13670066  1.69446242  8.16524845
   9.32276745  5.08338737  3.43689484
   4.36803341  5.08338737  2.14106151
   5.09143467  1.69446242  9.46108154
   1.43528938  5.08338737 10.61259087
   8.02417870  1.69446242  0.98955218
   3.06944466  1.69446242  4.59193797
   6.39002342  5.08338737  7.01020580
   1.75026941  0.49357413  1.64774529
   7.70919867  6.28427549  9.95439776
   2.75446463  6.29576370  7.65557930
   6.70500345  0.48208591  3.94656399
   7.70919867  3.88249902  9.95439776
   1.75026941  2.89535065  1.64774529
   6.70500345  2.90683887  3.94656399
   2.75446463  3.87101081  7.65557930
   0.74692994  5.08338737  6.96394473
   8.71253796  1.69446242  4.63819856
   3.75780416  1.69446242  0.92772314
   5.70166416  5.08338737 10.67441991
   1.78111780  1.69446242 11.13564422
   7.67835016  5.08338737  0.46649925
   2.72361612  5.08338737  5.54096390
   6.73585196  1.69446242  6.06117843
 


--------------------------------------------------------------------------------------------------------


 k-point  1 :   0.0000 0.0000 0.0000  plane waves:   47989
 k-point  2 :   0.0000 0.1250 0.0000  plane waves:   47929
 k-point  3 :   0.0000 0.2500 0.0000  plane waves:   47901
 k-point  4 :   0.0000 0.3750 0.0000  plane waves:   47910
 k-point  5 :   0.0000 0.5000 0.0000  plane waves:   47868
 k-point  6 :   0.0000 0.0000 0.2000  plane waves:   48006
 k-point  7 :   0.0000 0.1250 0.2000  plane waves:   47967
 k-point  8 :   0.0000 0.2500 0.2000  plane waves:   47907
 k-point  9 :   0.0000 0.3750 0.2000  plane waves:   47884
 k-point 10 :   0.0000 0.5000 0.2000  plane waves:   47884
 k-point 11 :   0.0000 0.0000 0.4000  plane waves:   47922
 k-point 12 :   0.0000 0.1250 0.4000  plane waves:   47954
 k-point 13 :   0.0000 0.2500 0.4000  plane waves:   47967
 k-point 14 :   0.0000 0.3750 0.4000  plane waves:   47928
 k-point 15 :   0.0000 0.5000 0.4000  plane waves:   47890

 maximum and minimum number of plane-waves per node :     12077    11868

 maximum number of plane-waves:     48006
 maximum index in each direction: 
   IXMAX=   43   IYMAX=   12   IZMAX=   21
   IXMIN=  -43   IYMIN=  -12   IZMIN=  -21


 real space projection operators:
  total allocation   :       4541.30 KBytes
  max/ min on nodes  :       1138.55       1132.47


 parallel 3D FFT for wavefunctions:
    minimum data exchange during FFTs selected (reduces bandwidth)
 parallel 3D FFT for charge:
    minimum data exchange during FFTs selected (reduces bandwidth)


 total amount of memory used by VASP MPI-rank0    79353. kBytes
=======================================================================

   base      :      30000. kBytes
   nonlr-proj:       2647. kBytes
   fftplans  :       5898. kBytes
   grid      :       8824. kBytes
   one-center:         93. kBytes
   wavefun   :      31891. kBytes
 
     INWAV:  cpu time    0.0000: real time    0.0000
 Broyden mixing: mesh for mixing (old mesh)
   NGX = 87   NGY = 25   NGZ = 43
  (NGX  =280   NGY  = 80   NGZ  =128)
  gives a total of  93525 points

 initial charge density was supplied:
 charge density of overlapping atoms calculated
 number of electron     144.0000000 magnetization 
 keeping initial charge density in first step


--------------------------------------------------------------------------------------------------------


 Maximum index for non-local projection operator          744
 Maximum index for augmentation-charges          603 (set IRDMAX)


--------------------------------------------------------------------------------------------------------


 First call to EWALD:  gamma=   0.143
 Maximum number of real-space cells 2x 5x 3
 Maximum number of reciprocal cells 5x 2x 3

    FEWALD:  cpu time    0.0071: real time    0.0071


--------------------------------------- Iteration      1(   1)  ---------------------------------------


    POTLOK:  cpu time    0.0658: real time    0.0869
    SETDIJ:  cpu time    0.0024: real time    0.0024
     EDDAV:  cpu time    2.5739: real time    2.5870
 BZINTS: Fermi energy:  6.998010;144.000000 electrons
         Band energy:-462.769866;  BLOECHL correction: -0.032516
       DOS:  cpu time    0.0129: real time    0.0131
    --------------------------------------------
      LOOP:  cpu time    2.6550: real time    2.6895

 eigenvalue-minimisations  :  2768
 total energy-change (2. order) : 0.1180397E+04  (-0.4779495E+04)
 number of electron     144.0000000 magnetization 
 augmentation part      144.0000000 magnetization 

 Free energy of the ion-electron system (eV)
  ---------------------------------------------------
  alpha Z        PSCENC =       170.45750602
  Ewald energy   TEWEN  =     11149.58860978
  -Hartree energ DENC   =    -17270.94906565
  -exchange      EXHF   =         0.00000000
  -V(xc)+E(xc)   XCENC  =        41.55024069
  PAW double counting   =      3692.15173346    -3390.49189382
  entropy T*S    EENTRO =         0.00000000
  eigenvalues    EBANDS =      -462.76986577
  atomic energy  EATOM  =      7250.85976021
  Solvation  Ediel_sol  =         0.00000000
  ---------------------------------------------------
  free energy    TOTEN  =      1180.39702492 eV

  energy without entropy =     1180.39702492  energy(sigma->0) =     1180.39702492


--------------------------------------------------------------------------------------------------------




--------------------------------------- Iteration      1(   2)  ---------------------------------------


     EDDAV:  cpu time    3.5011: real time    3.5195
 BZINTS: Fermi energy: -1.738802;144.000000 electrons
         Band energy:***********;  BLOECHL correction:  0.000000
       DOS:  cpu time    0.0027: real time    0.0027
    --------------------------------------------
      LOOP:  cpu time    3.5038: real time    3.5222

 eigenvalue-minimisations  :  3832
 total energy-change (2. order) :-0.1121087E+04  (-0.1092891E+04)
 number of electron     144.0000000 magnetization 
 augmentation part      144.0000000 magnetization 

 Free energy of the ion-electron system (eV)
  ---------------------------------------------------
  alpha Z        PSCENC =       170.45750602
  Ewald energy   TEWEN  =     11149.58860978
  -Hartree energ DENC   =    -17270.94906565
  -exchange      EXHF   =         0.00000000
  -V(xc)+E(xc)   XCENC  =        41.55024069
  PAW double counting   =      3692.15173346    -3390.49189382
  entropy T*S    EENTRO =         0.00000000
  eigenvalues    EBANDS =     -1583.85703285
  atomic energy  EATOM  =      7250.85976021
  Solvation  Ediel_sol  =         0.00000000
  ---------------------------------------------------
  free energy    TOTEN  =        59.30985783 eV

  energy without entropy =       59.30985783  energy(sigma->0) =       59.30985783


--------------------------------------------------------------------------------------------------------




--------------------------------------- Iteration      1(   3)  ---------------------------------------


     EDDAV:  cpu time    3.0571: real time    3.0761
 BZINTS: Fermi energy: -3.301375;144.000000 electrons
         Band energy:***********;  BLOECHL correction:  0.000000
       DOS:  cpu time    0.0020: real time    0.0020
    --------------------------------------------
      LOOP:  cpu time    3.0591: real time    3.0782

 eigenvalue-minimisations  :  3224
 total energy-change (2. order) :-0.1676946E+03  (-0.1669915E+03)
 number of electron     144.0000000 magnetization 
 augmentation part      144.0000000 magnetization 

 Free energy of the ion-electron system (eV)
  ---------------------------------------------------
  alpha Z        PSCENC =       170.45750602
  Ewald energy   TEWEN  =     11149.58860978
  -Hartree energ DENC   =    -17270.94906565
  -exchange      EXHF   =         0.00000000
  -V(xc)+E(xc)   XCENC  =        41.55024069
  PAW double counting   =      3692.15173346    -3390.49189382
  entropy T*S    EENTRO =         0.00000000
  eigenvalues    EBANDS =     -1751.55167390
  atomic energy  EATOM  =      7250.85976021
  Solvation  Ediel_sol  =         0.00000000
  ---------------------------------------------------
  free energy    TOTEN  =      -108.38478322 eV

  energy without entropy =     -108.38478322  energy(sigma->0) =     -108.38478322


--------------------------------------------------------------------------------------------------------




--------------------------------------- Iteration      1(   4)  ---------------------------------------


     EDDAV:  cpu time    3.3426: real time    3.3626
 BZINTS: Fermi energy: -3.289212;144.000000 electrons
         Band energy:***********;  BLOECHL correction:  0.000000
       DOS:  cpu time    0.0026: real time    0.0026
    --------------------------------------------
      LOOP:  cpu time    3.3452: real time    3.3652

 eigenvalue-minimisations  :  3768
 total energy-change (2. order) :-0.6053987E+01  (-0.6037073E+01)
 number of electron     144.0000000 magnetization 
 augmentation part      144.0000000 magnetization 

 Free energy of the ion-electron system (eV)
  ---------------------------------------------------
  alpha Z        PSCENC =       170.45750602
  Ewald energy   TEWEN  =     11149.58860978
  -Hartree energ DENC   =    -17270.94906565
  -exchange      EXHF   =         0.00000000
  -V(xc)+E(xc)   XCENC  =        41.55024069
  PAW double counting   =      3692.15173346    -3390.49189382
  entropy T*S    EENTRO =         0.00000000
  eigenvalues    EBANDS =     -1757.60566051
  atomic energy  EATOM  =      7250.85976021
  Solvation  Ediel_sol  =         0.00000000
  ---------------------------------------------------
  free energy    TOTEN  =      -114.43876983 eV

  energy without entropy =     -114.43876983  energy(sigma->0) =     -114.43876983


--------------------------------------------------------------------------------------------------------




--------------------------------------- Iteration      1(   5)  ---------------------------------------


     EDDAV:  cpu time    3.4722: real time    3.4917
 BZINTS: Fermi energy: -3.322795;144.000000 electrons
         Band energy:***********;  BLOECHL correction:  0.000000
       DOS:  cpu time    0.0022: real time    0.0022
    CHARGE:  cpu time    0.1847: real time    0.1853
    MIXING:  cpu time    0.0075: real time    0.0080
    --------------------------------------------
      LOOP:  cpu time    3.6666: real time    3.6871

 eigenvalue-minimisations  :  4168
 total energy-change (2. order) :-0.2771135E+00  (-0.2770302E+00)
 number of electron     144.0000004 magnetization 
 augmentation part      -17.5290769 magnetization 

 Broyden mixing:
  rms(total) = 0.92166E+00    rms(broyden)= 0.92166E+00
  rms(prec ) = 0.11921E+01
  weight for this iteration     100.00

 Free energy of the ion-electron system (eV)
  ---------------------------------------------------
  alpha Z        PSCENC =       170.45750602
  Ewald energy   TEWEN  =     11149.58860978
  -Hartree energ DENC   =    -17270.94906565
  -exchange      EXHF   =         0.00000000
  -V(xc)+E(xc)   XCENC  =        41.55024069
  PAW double counting   =      3692.15173346    -3390.49189382
  entropy T*S    EENTRO =         0.00000000
  eigenvalues    EBANDS =     -1757.88277401
  atomic energy  EATOM  =      7250.85976021
  Solvation  Ediel_sol  =         0.00000000
  ---------------------------------------------------
  free energy    TOTEN  =      -114.71588333 eV

  energy without entropy =     -114.71588333  energy(sigma->0) =     -114.71588333


--------------------------------------------------------------------------------------------------------




--------------------------------------- Iteration      1(   6)  ---------------------------------------


    POTLOK:  cpu time    0.0752: real time    0.0865
    SETDIJ:  cpu time    0.0024: real time    0.0025
     EDDAV:  cpu time    3.0704: real time    3.0821
 BZINTS: Fermi energy: -2.275925;144.000000 electrons
         Band energy:***********;  BLOECHL correction:  0.000000
       DOS:  cpu time    0.0029: real time    0.0029
    CHARGE:  cpu time    0.1970: real time    0.1996
    MIXING:  cpu time    0.0061: real time    0.0062
    --------------------------------------------
      LOOP:  cpu time    3.3541: real time    3.3798

 eigenvalue-minimisations  :  3008
 total energy-change (2. order) : 0.8285489E+01  (-0.2062410E+01)
 number of electron     144.0000003 magnetization 
 augmentation part      -17.4201433 magnetization 

 Broyden mixing:
  rms(total) = 0.46542E+00    rms(broyden)= 0.46542E+00
  rms(prec ) = 0.58406E+00
  weight for this iteration     100.00

 eigenvalues of (default mixing * dielectric matrix)
  average eigenvalue GAMMA=   1.5437
  1.5437

 Free energy of the ion-electron system (eV)
  ---------------------------------------------------
  alpha Z        PSCENC =       170.45750602
  Ewald energy   TEWEN  =     11149.58860978
  -Hartree energ DENC   =    -17360.88979162
  -exchange      EXHF   =         0.00000000
  -V(xc)+E(xc)   XCENC  =        44.41945234
  PAW double counting   =      3725.08692555    -3430.59980082
  entropy T*S    EENTRO =         0.00000000
  eigenvalues    EBANDS =     -1655.35305611
  atomic energy  EATOM  =      7250.85976021
  Solvation  Ediel_sol  =         0.00000000
  ---------------------------------------------------
  free energy    TOTEN  =      -106.43039465 eV

  energy without entropy =     -106.43039465  energy(sigma->0) =     -106.43039465


--------------------------------------------------------------------------------------------------------




--------------------------------------- Iteration      1(   7)  ---------------------------------------


    POTLOK:  cpu time    0.0668: real time    0.0779
    SETDIJ:  cpu time    0.0020: real time    0.0020
     EDDAV:  cpu time    3.3374: real time    3.3553
 BZINTS: Fermi energy: -1.440218;144.000000 electrons
         Band energy:***********;  BLOECHL correction:  0.000000
       DOS:  cpu time    0.0021: real time    0.0021
    CHARGE:  cpu time    0.1511: real time    0.1514
    MIXING:  cpu time    0.0049: real time    0.0053
    --------------------------------------------
      LOOP:  cpu time    3.5643: real time    3.5941

 eigenvalue-minimisations  :  3488
 total energy-change (2. order) : 0.1294684E+01  (-0.9974042E+00)
 number of electron     144.0000003 magnetization 
 augmentation part      -17.5094533 magnetization 

 Broyden mixing:
  rms(total) = 0.24430E+00    rms(broyden)= 0.24430E+00
  rms(prec ) = 0.29558E+00
  weight for this iteration     100.00

 eigenvalues of (default mixing * dielectric matrix)
  average eigenvalue GAMMA=   1.8595
  1.8595  1.8595

 Free energy of the ion-electron system (eV)
  ---------------------------------------------------
  alpha Z        PSCENC =       170.45750602
  Ewald energy   TEWEN  =     11149.58860978
  -Hartree energ DENC   =    -17437.00429493
  -exchange      EXHF   =         0.00000000
  -V(xc)+E(xc)   XCENC  =        46.73198021
  PAW double counting   =      3768.38637264    -3479.69522413
  entropy T*S    EENTRO =         0.00000000
  eigenvalues    EBANDS =     -1574.46042009
  atomic energy  EATOM  =      7250.85976021
  Solvation  Ediel_sol  =         0.00000000
  ---------------------------------------------------
  free energy    TOTEN  =      -105.13571030 eV

  energy without entropy =     -105.13571030  energy(sigma->0) =     -105.13571030


--------------------------------------------------------------------------------------------------------




--------------------------------------- Iteration      1(   8)  ---------------------------------------


    POTLOK:  cpu time    0.0946: real time    0.1058
    SETDIJ:  cpu time    0.0018: real time    0.0018
     EDDAV:  cpu time    2.8307: real time    2.8374
 BZINTS: Fermi energy: -1.231960;144.000000 electrons
         Band energy:***********;  BLOECHL correction:  0.000000
       DOS:  cpu time    0.0019: real time    0.0019
    CHARGE:  cpu time    0.1508: real time    0.1511
    MIXING:  cpu time    0.0057: real time    0.0063
    --------------------------------------------
      LOOP:  cpu time    3.0855: real time    3.1044

 eigenvalue-minimisations  :  3112
 total energy-change (2. order) : 0.2118815E+00  (-0.3526619E+00)
 number of electron     144.0000003 magnetization 
 augmentation part      -17.6417455 magnetization 

 Broyden mixing:
  rms(total) = 0.11612E+00    rms(broyden)= 0.11612E+00
  rms(prec ) = 0.18670E+00
  weight for this iteration     100.00

 eigenvalues of (default mixing * dielectric matrix)
  average eigenvalue GAMMA=   1.6820
  2.6163  1.2148  1.2148

 Free energy of the ion-electron system (eV)
  ---------------------------------------------------
  alpha Z        PSCENC =       170.45750602
  Ewald energy   TEWEN  =     11149.58860978
  -Hartree energ DENC   =    -17473.33664966
  -exchange      EXHF   =         0.00000000
  -V(xc)+E(xc)   XCENC  =        47.66673245
  PAW double counting   =      3817.67977558    -3530.77080083
  entropy T*S    EENTRO =         0.00000000
  eigenvalues    EBANDS =     -1537.06876239
  atomic energy  EATOM  =      7250.85976021
  Solvation  Ediel_sol  =         0.00000000
  ---------------------------------------------------
  free energy    TOTEN  =      -104.92382883 eV

  energy without entropy =     -104.92382883  energy(sigma->0) =     -104.92382883


--------------------------------------------------------------------------------------------------------




--------------------------------------- Iteration      1(   9)  ---------------------------------------


    POTLOK:  cpu time    0.0559: real time    0.0675
    SETDIJ:  cpu time    0.0021: real time    0.0021
     EDDAV:  cpu time    2.9786: real time    2.9856
 BZINTS: Fermi energy: -0.836215;144.000000 electrons
         Band energy:***********;  BLOECHL correction:  0.000000
       DOS:  cpu time    0.0023: real time    0.0023
    CHARGE:  cpu time    0.1481: real time    0.1484
    MIXING:  cpu time    0.0072: real time    0.0073
    --------------------------------------------
      LOOP:  cpu time    3.1943: real time    3.2133

 eigenvalue-minimisations  :  3104
 total energy-change (2. order) : 0.2706029E+00  (-0.1106937E+00)
 number of electron     144.0000003 magnetization 
 augmentation part      -17.6147127 magnetization 

 Broyden mixing:
  rms(total) = 0.55930E-01    rms(broyden)= 0.55930E-01
  rms(prec ) = 0.81329E-01
  weight for this iteration     100.00

 eigenvalues of (default mixing * dielectric matrix)
  average eigenvalue GAMMA=   1.4174
  2.5490  1.2189  1.2189  0.6829

 Free energy of the ion-electron system (eV)
  ---------------------------------------------------
  alpha Z        PSCENC =       170.45750602
  Ewald energy   TEWEN  =     11149.58860978
  -Hartree energ DENC   =    -17512.49918240
  -exchange      EXHF   =         0.00000000
  -V(xc)+E(xc)   XCENC  =        48.61133740
  PAW double counting   =      3828.09596569    -3542.50753813
  entropy T*S    EENTRO =         0.00000000
  eigenvalues    EBANDS =     -1497.25968456
  atomic energy  EATOM  =      7250.85976021
  Solvation  Ediel_sol  =         0.00000000
  ---------------------------------------------------
  free energy    TOTEN  =      -104.65322598 eV

  energy without entropy =     -104.65322598  energy(sigma->0) =     -104.65322598


--------------------------------------------------------------------------------------------------------




--------------------------------------- Iteration      1(  10)  ---------------------------------------


    POTLOK:  cpu time    0.0686: real time    0.0796
    SETDIJ:  cpu time    0.0015: real time    0.0015
     EDDAV:  cpu time    3.0718: real time    3.0792
 BZINTS: Fermi energy: -0.787263;144.000000 electrons
         Band energy:***********;  BLOECHL correction:  0.000000
       DOS:  cpu time    0.0023: real time    0.0023
    CHARGE:  cpu time    0.1500: real time    0.1504
    MIXING:  cpu time    0.0052: real time    0.0052
    --------------------------------------------
      LOOP:  cpu time    3.2994: real time    3.3182

 eigenvalue-minimisations  :  3496
 total energy-change (2. order) :-0.1405643E-01  (-0.2543819E-01)
 number of electron     144.0000003 magnetization 
 augmentation part      -17.6346888 magnetization 

 Broyden mixing:
  rms(total) = 0.42648E-01    rms(broyden)= 0.42648E-01
  rms(prec ) = 0.63404E-01
  weight for this iteration     100.00

 eigenvalues of (default mixing * dielectric matrix)
  average eigenvalue GAMMA=   1.6291
  2.5472  2.5472  1.1028  0.9741  0.9741

 Free energy of the ion-electron system (eV)
  ---------------------------------------------------
  alpha Z        PSCENC =       170.45750602
  Ewald energy   TEWEN  =     11149.58860978
  -Hartree energ DENC   =    -17523.55095608
  -exchange      EXHF   =         0.00000000
  -V(xc)+E(xc)   XCENC  =        48.65016478
  PAW double counting   =      3823.42774635    -3537.53543299
  entropy T*S    EENTRO =         0.00000000
  eigenvalues    EBANDS =     -1486.56468047
  atomic energy  EATOM  =      7250.85976021
  Solvation  Ediel_sol  =         0.00000000
  ---------------------------------------------------
  free energy    TOTEN  =      -104.66728241 eV

  energy without entropy =     -104.66728241  energy(sigma->0) =     -104.66728241


--------------------------------------------------------------------------------------------------------




--------------------------------------- Iteration      1(  11)  ---------------------------------------


    POTLOK:  cpu time    0.0572: real time    0.0680
    SETDIJ:  cpu time    0.0035: real time    0.0035
     EDDAV:  cpu time    3.0360: real time    3.0434
 BZINTS: Fermi energy: -0.669593;144.000000 electrons
         Band energy:***********;  BLOECHL correction:  0.000000
       DOS:  cpu time    0.0023: real time    0.0023
    CHARGE:  cpu time    0.1524: real time    0.1528
    MIXING:  cpu time    0.0059: real time    0.0059
    --------------------------------------------
      LOOP:  cpu time    3.2573: real time    3.2759

 eigenvalue-minimisations  :  3120
 total energy-change (2. order) : 0.7946300E-02  (-0.7375726E-02)
 number of electron     144.0000003 magnetization 
 augmentation part      -17.6415972 magnetization 

 Broyden mixing:
  rms(total) = 0.15899E-01    rms(broyden)= 0.15899E-01
  rms(prec ) = 0.31680E-01
  weight for this iteration     100.00

 eigenvalues of (default mixing * dielectric matrix)
  average eigenvalue GAMMA=   1.6327
  2.8695  2.8695  1.0781  1.0781  0.9504  0.9504

 Free energy of the ion-electron system (eV)
  ---------------------------------------------------
  alpha Z        PSCENC =       170.45750602
  Ewald energy   TEWEN  =     11149.58860978
  -Hartree energ DENC   =    -17543.40202958
  -exchange      EXHF   =         0.00000000
  -V(xc)+E(xc)   XCENC  =        48.82455120
  PAW double counting   =      3824.48253956    -3538.24527171
  entropy T*S    EENTRO =         0.00000000
  eigenvalues    EBANDS =     -1467.22500160
  atomic energy  EATOM  =      7250.85976021
  Solvation  Ediel_sol  =         0.00000000
  ---------------------------------------------------
  free energy    TOTEN  =      -104.65933611 eV

  energy without entropy =     -104.65933611  energy(sigma->0) =     -104.65933611


--------------------------------------------------------------------------------------------------------




--------------------------------------- Iteration      1(  12)  ---------------------------------------


    POTLOK:  cpu time    0.0608: real time    0.0724
    SETDIJ:  cpu time    0.0016: real time    0.0016
     EDDAV:  cpu time    2.9467: real time    2.9537
 BZINTS: Fermi energy: -0.605620;144.000000 electrons
         Band energy:***********;  BLOECHL correction:  0.000000
       DOS:  cpu time    0.0023: real time    0.0023
    CHARGE:  cpu time    0.1464: real time    0.1468
    MIXING:  cpu time    0.0054: real time    0.0055
    --------------------------------------------
      LOOP:  cpu time    3.1633: real time    3.1823

 eigenvalue-minimisations  :  3184
 total energy-change (2. order) :-0.4784827E-02  (-0.1527978E-02)
 number of electron     144.0000003 magnetization 
 augmentation part      -17.6360771 magnetization 

 Broyden mixing:
  rms(total) = 0.12376E-01    rms(broyden)= 0.12376E-01
  rms(prec ) = 0.21099E-01
  weight for this iteration     100.00

 eigenvalues of (default mixing * dielectric matrix)
  average eigenvalue GAMMA=   1.7767
  3.8016  2.5408  2.0399  1.1270  1.1270  0.9005  0.9005

 Free energy of the ion-electron system (eV)
  ---------------------------------------------------
  alpha Z        PSCENC =       170.45750602
  Ewald energy   TEWEN  =     11149.58860978
  -Hartree energ DENC   =    -17555.52391459
  -exchange      EXHF   =         0.00000000
  -V(xc)+E(xc)   XCENC  =        48.88555459
  PAW double counting   =      3822.33450404    -3535.95501084
  entropy T*S    EENTRO =         0.00000000
  eigenvalues    EBANDS =     -1455.31113015
  atomic energy  EATOM  =      7250.85976021
  Solvation  Ediel_sol  =         0.00000000
  ---------------------------------------------------
  free energy    TOTEN  =      -104.66412094 eV

  energy without entropy =     -104.66412094  energy(sigma->0) =     -104.66412094


--------------------------------------------------------------------------------------------------------




--------------------------------------- Iteration      1(  13)  ---------------------------------------


    POTLOK:  cpu time    0.0654: real time    0.0769
    SETDIJ:  cpu time    0.0015: real time    0.0015
     EDDAV:  cpu time    2.9832: real time    2.9903
 BZINTS: Fermi energy: -0.525126;144.000000 electrons
         Band energy:***********;  BLOECHL correction:  0.000000
       DOS:  cpu time    0.0021: real time    0.0021
    CHARGE:  cpu time    0.1416: real time    0.1420
    MIXING:  cpu time    0.0057: real time    0.0057
    --------------------------------------------
      LOOP:  cpu time    3.1995: real time    3.2184

 eigenvalue-minimisations  :  3264
 total energy-change (2. order) :-0.8937139E-02  (-0.1039660E-02)
 number of electron     144.0000003 magnetization 
 augmentation part      -17.6377962 magnetization 

 Broyden mixing:
  rms(total) = 0.66112E-02    rms(broyden)= 0.66111E-02
  rms(prec ) = 0.11585E-01
  weight for this iteration     100.00

 eigenvalues of (default mixing * dielectric matrix)
  average eigenvalue GAMMA=   1.8372
  4.2242  2.9370  2.4429  1.2139  1.2139  0.8987  0.8834  0.8834

 Free energy of the ion-electron system (eV)
  ---------------------------------------------------
  alpha Z        PSCENC =       170.45750602
  Ewald energy   TEWEN  =     11149.58860978
  -Hartree energ DENC   =    -17566.06311962
  -exchange      EXHF   =         0.00000000
  -V(xc)+E(xc)   XCENC  =        48.94511346
  PAW double counting   =      3820.57813747    -3534.32076450
  entropy T*S    EENTRO =         0.00000000
  eigenvalues    EBANDS =     -1444.71830090
  atomic energy  EATOM  =      7250.85976021
  Solvation  Ediel_sol  =         0.00000000
  ---------------------------------------------------
  free energy    TOTEN  =      -104.67305808 eV

  energy without entropy =     -104.67305808  energy(sigma->0) =     -104.67305808


--------------------------------------------------------------------------------------------------------




--------------------------------------- Iteration      1(  14)  ---------------------------------------


    POTLOK:  cpu time    0.0581: real time    0.0699
    SETDIJ:  cpu time    0.0040: real time    0.0040
     EDDAV:  cpu time    2.8629: real time    2.8697
 BZINTS: Fermi energy: -0.517204;144.000000 electrons
         Band energy:***********;  BLOECHL correction:  0.000000
       DOS:  cpu time    0.0021: real time    0.0021
    CHARGE:  cpu time    0.1482: real time    0.1486
    MIXING:  cpu time    0.0071: real time    0.0072
    --------------------------------------------
      LOOP:  cpu time    3.0824: real time    3.1015

 eigenvalue-minimisations  :  3040
 total energy-change (2. order) :-0.4766528E-02  (-0.2828820E-03)
 number of electron     144.0000003 magnetization 
 augmentation part      -17.6386751 magnetization 

 Broyden mixing:
  rms(total) = 0.55523E-02    rms(broyden)= 0.55523E-02
  rms(prec ) = 0.88522E-02
  weight for this iteration     100.00

 eigenvalues of (default mixing * dielectric matrix)
  average eigenvalue GAMMA=   1.8593
  4.6554  3.1153  2.2204  1.4190  1.4190  0.9092  0.9092  1.0431  1.0431

 Free energy of the ion-electron system (eV)
  ---------------------------------------------------
  alpha Z        PSCENC =       170.45750602
  Ewald energy   TEWEN  =     11149.58860978
  -Hartree energ DENC   =    -17569.37080913
  -exchange      EXHF   =         0.00000000
  -V(xc)+E(xc)   XCENC  =        48.94349281
  PAW double counting   =      3819.65270580    -3533.40496979
  entropy T*S    EENTRO =         0.00000000
  eigenvalues    EBANDS =     -1441.40412031
  atomic energy  EATOM  =      7250.85976021
  Solvation  Ediel_sol  =         0.00000000
  ---------------------------------------------------
  free energy    TOTEN  =      -104.67782461 eV

  energy without entropy =     -104.67782461  energy(sigma->0) =     -104.67782461


--------------------------------------------------------------------------------------------------------




--------------------------------------- Iteration      1(  15)  ---------------------------------------


    POTLOK:  cpu time    0.0599: real time    0.0710
    SETDIJ:  cpu time    0.0016: real time    0.0016
     EDDAV:  cpu time    2.7909: real time    2.7976
 BZINTS: Fermi energy: -0.509230;144.000000 electrons
         Band energy:***********;  BLOECHL correction:  0.000000
       DOS:  cpu time    0.0019: real time    0.0019
    CHARGE:  cpu time    0.1423: real time    0.1427
    MIXING:  cpu time    0.0058: real time    0.0059
    --------------------------------------------
      LOOP:  cpu time    3.0025: real time    3.0206

 eigenvalue-minimisations  :  3056
 total energy-change (2. order) :-0.1534145E-02  (-0.1800277E-03)
 number of electron     144.0000003 magnetization 
 augmentation part      -17.6406465 magnetization 

 Broyden mixing:
  rms(total) = 0.21948E-02    rms(broyden)= 0.21948E-02
  rms(prec ) = 0.42653E-02
  weight for this iteration     100.00

 eigenvalues of (default mixing * dielectric matrix)
  average eigenvalue GAMMA=   1.9566
  5.4093  3.5941  2.4244  1.7128  0.9048  0.9048  1.2474  1.2474  0.9973  1.1239

 Free energy of the ion-electron system (eV)
  ---------------------------------------------------
  alpha Z        PSCENC =       170.45750602
  Ewald energy   TEWEN  =     11149.58860978
  -Hartree energ DENC   =    -17571.02581703
  -exchange      EXHF   =         0.00000000
  -V(xc)+E(xc)   XCENC  =        48.93655444
  PAW double counting   =      3820.11440943    -3533.83198530
  entropy T*S    EENTRO =         0.00000000
  eigenvalues    EBANDS =     -1439.77839630
  atomic energy  EATOM  =      7250.85976021
  Solvation  Ediel_sol  =         0.00000000
  ---------------------------------------------------
  free energy    TOTEN  =      -104.67935875 eV

  energy without entropy =     -104.67935875  energy(sigma->0) =     -104.67935875


--------------------------------------------------------------------------------------------------------




--------------------------------------- Iteration      1(  16)  ---------------------------------------


    POTLOK:  cpu time    0.0592: real time    0.0689
    SETDIJ:  cpu time    0.0015: real time    0.0015
     EDDAV:  cpu time    2.9564: real time    2.9659
 BZINTS: Fermi energy: -0.499056;144.000000 electrons
         Band energy:***********;  BLOECHL correction:  0.000000
       DOS:  cpu time    0.0022: real time    0.0022
    CHARGE:  cpu time    0.1495: real time    0.1498
    MIXING:  cpu time    0.0059: real time    0.0060
    --------------------------------------------
      LOOP:  cpu time    3.1748: real time    3.1944

 eigenvalue-minimisations  :  3120
 total energy-change (2. order) :-0.9176934E-03  (-0.6789020E-04)
 number of electron     144.0000003 magnetization 
 augmentation part      -17.6404490 magnetization 

 Broyden mixing:
  rms(total) = 0.15244E-02    rms(broyden)= 0.15244E-02
  rms(prec ) = 0.28125E-02
  weight for this iteration     100.00

 eigenvalues of (default mixing * dielectric matrix)
  average eigenvalue GAMMA=   2.0060
  5.6393  4.0927  2.5237  1.8392  0.9082  0.9082  1.5730  1.2808  1.2808  1.0099
  1.0099

 Free energy of the ion-electron system (eV)
  ---------------------------------------------------
  alpha Z        PSCENC =       170.45750602
  Ewald energy   TEWEN  =     11149.58860978
  -Hartree energ DENC   =    -17572.43823205
  -exchange      EXHF   =         0.00000000
  -V(xc)+E(xc)   XCENC  =        48.93314624
  PAW double counting   =      3820.30540348    -3534.02830364
  entropy T*S    EENTRO =         0.00000000
  eigenvalues    EBANDS =     -1438.35816649
  atomic energy  EATOM  =      7250.85976021
  Solvation  Ediel_sol  =         0.00000000
  ---------------------------------------------------
  free energy    TOTEN  =      -104.68027645 eV

  energy without entropy =     -104.68027645  energy(sigma->0) =     -104.68027645


--------------------------------------------------------------------------------------------------------




--------------------------------------- Iteration      1(  17)  ---------------------------------------


    POTLOK:  cpu time    0.0574: real time    0.0687
    SETDIJ:  cpu time    0.0016: real time    0.0016
     EDDAV:  cpu time    2.9271: real time    2.9340
 BZINTS: Fermi energy: -0.491048;144.000000 electrons
         Band energy:***********;  BLOECHL correction:  0.000000
       DOS:  cpu time    0.0020: real time    0.0020
    CHARGE:  cpu time    0.1730: real time    0.1734
    MIXING:  cpu time    0.0061: real time    0.0062
    --------------------------------------------
      LOOP:  cpu time    3.1671: real time    3.1858

 eigenvalue-minimisations  :  3112
 total energy-change (2. order) :-0.4410611E-03  (-0.3293230E-04)
 number of electron     144.0000003 magnetization 
 augmentation part      -17.6403943 magnetization 

 Broyden mixing:
  rms(total) = 0.10831E-02    rms(broyden)= 0.10831E-02
  rms(prec ) = 0.19493E-02
  weight for this iteration     100.00

 eigenvalues of (default mixing * dielectric matrix)
  average eigenvalue GAMMA=   2.0559
  6.0953  4.3141  2.7968  2.2594  1.6367  0.9064  0.9064  1.2852  1.2852  1.1100
  1.1100  0.9648

 Free energy of the ion-electron system (eV)
  ---------------------------------------------------
  alpha Z        PSCENC =       170.45750602
  Ewald energy   TEWEN  =     11149.58860978
  -Hartree energ DENC   =    -17573.40759803
  -exchange      EXHF   =         0.00000000
  -V(xc)+E(xc)   XCENC  =        48.93495597
  PAW double counting   =      3820.37906986    -3534.09995426
  entropy T*S    EENTRO =         0.00000000
  eigenvalues    EBANDS =     -1437.39306706
  atomic energy  EATOM  =      7250.85976021
  Solvation  Ediel_sol  =         0.00000000
  ---------------------------------------------------
  free energy    TOTEN  =      -104.68071751 eV

  energy without entropy =     -104.68071751  energy(sigma->0) =     -104.68071751


--------------------------------------------------------------------------------------------------------




--------------------------------------- Iteration      1(  18)  ---------------------------------------


    POTLOK:  cpu time    0.0610: real time    0.0733
    SETDIJ:  cpu time    0.0015: real time    0.0015
     EDDAV:  cpu time    2.7604: real time    2.7670
 BZINTS: Fermi energy: -0.486976;144.000000 electrons
         Band energy:***********;  BLOECHL correction:  0.000000
       DOS:  cpu time    0.0019: real time    0.0019
    CHARGE:  cpu time    0.1483: real time    0.1487
    MIXING:  cpu time    0.0068: real time    0.0069
    --------------------------------------------
      LOOP:  cpu time    2.9800: real time    2.9993

 eigenvalue-minimisations  :  2984
 total energy-change (2. order) :-0.1071704E-02  (-0.1960643E-04)
 number of electron     144.0000003 magnetization 
 augmentation part      -17.6402128 magnetization 

 Broyden mixing:
  rms(total) = 0.58084E-03    rms(broyden)= 0.58084E-03
  rms(prec ) = 0.10012E-02
  weight for this iteration     100.00

 eigenvalues of (default mixing * dielectric matrix)
  average eigenvalue GAMMA=   2.1326
  6.3590  5.1060  2.9896  2.5215  1.8935  0.9060  0.9060  1.3710  1.3710  1.1826
  1.1826  0.9676  0.9676

 Free energy of the ion-electron system (eV)
  ---------------------------------------------------
  alpha Z        PSCENC =       170.45750602
  Ewald energy   TEWEN  =     11149.58860978
  -Hartree energ DENC   =    -17574.15745107
  -exchange      EXHF   =         0.00000000
  -V(xc)+E(xc)   XCENC  =        48.93682349
  PAW double counting   =      3820.28507389    -3534.00324449
  entropy T*S    EENTRO =         0.00000000
  eigenvalues    EBANDS =     -1436.64886703
  atomic energy  EATOM  =      7250.85976021
  Solvation  Ediel_sol  =         0.00000000
  ---------------------------------------------------
  free energy    TOTEN  =      -104.68178921 eV

  energy without entropy =     -104.68178921  energy(sigma->0) =     -104.68178921


--------------------------------------------------------------------------------------------------------




--------------------------------------- Iteration      1(  19)  ---------------------------------------


    POTLOK:  cpu time    0.0550: real time    0.0661
    SETDIJ:  cpu time    0.0044: real time    0.0044
     EDDAV:  cpu time    2.5674: real time    2.5734
 BZINTS: Fermi energy: -0.486982;144.000000 electrons
         Band energy:***********;  BLOECHL correction:  0.000000
       DOS:  cpu time    0.0020: real time    0.0020
    CHARGE:  cpu time    0.1479: real time    0.1482
    MIXING:  cpu time    0.0067: real time    0.0067
    --------------------------------------------
      LOOP:  cpu time    2.7833: real time    2.8009

 eigenvalue-minimisations  :  2680
 total energy-change (2. order) :-0.7091059E-03  (-0.9450895E-05)
 number of electron     144.0000003 magnetization 
 augmentation part      -17.6403423 magnetization 

 Broyden mixing:
  rms(total) = 0.48169E-03    rms(broyden)= 0.48169E-03
  rms(prec ) = 0.69422E-03
  weight for this iteration     100.00

 eigenvalues of (default mixing * dielectric matrix)
  average eigenvalue GAMMA=   2.2672
  7.1137  5.7396  3.4017  2.7322  2.3316  1.5965  1.5965  0.9059  0.9059  1.2118
  1.2118  1.0132  1.0132  0.9674

 Free energy of the ion-electron system (eV)
  ---------------------------------------------------
  alpha Z        PSCENC =       170.45750602
  Ewald energy   TEWEN  =     11149.58860978
  -Hartree energ DENC   =    -17574.34182196
  -exchange      EXHF   =         0.00000000
  -V(xc)+E(xc)   XCENC  =        48.93550228
  PAW double counting   =      3820.23959457    -3533.95763973
  entropy T*S    EENTRO =         0.00000000
  eigenvalues    EBANDS =     -1436.46400949
  atomic energy  EATOM  =      7250.85976021
  Solvation  Ediel_sol  =         0.00000000
  ---------------------------------------------------
  free energy    TOTEN  =      -104.68249832 eV

  energy without entropy =     -104.68249832  energy(sigma->0) =     -104.68249832


--------------------------------------------------------------------------------------------------------




--------------------------------------- Iteration      1(  20)  ---------------------------------------


    POTLOK:  cpu time    0.0609: real time    0.0715
    SETDIJ:  cpu time    0.0017: real time    0.0017
     EDDAV:  cpu time    2.6218: real time    2.6280
 BZINTS: Fermi energy: -0.487439;144.000000 electrons
         Band energy:***********;  BLOECHL correction:  0.000000
       DOS:  cpu time    0.0019: real time    0.0019
    CHARGE:  cpu time    0.1466: real time    0.1470
    MIXING:  cpu time    0.0064: real time    0.0064
    --------------------------------------------
      LOOP:  cpu time    2.8393: real time    2.8565

 eigenvalue-minimisations  :  2696
 total energy-change (2. order) :-0.4451139E-03  (-0.8052424E-05)
 number of electron     144.0000003 magnetization 
 augmentation part      -17.6404390 magnetization 

 Broyden mixing:
  rms(total) = 0.16685E-03    rms(broyden)= 0.16685E-03
  rms(prec ) = 0.23208E-03
  weight for this iteration     100.00

 eigenvalues of (default mixing * dielectric matrix)
  average eigenvalue GAMMA=   2.3135
  7.8226  6.2444  3.5411  2.9886  2.2940  1.7038  1.7038  0.9060  0.9060  1.2321
  1.2321  1.1090  1.1090  0.9547  0.9547

 Free energy of the ion-electron system (eV)
  ---------------------------------------------------
  alpha Z        PSCENC =       170.45750602
  Ewald energy   TEWEN  =     11149.58860978
  -Hartree energ DENC   =    -17574.43383850
  -exchange      EXHF   =         0.00000000
  -V(xc)+E(xc)   XCENC  =        48.93495096
  PAW double counting   =      3820.24690428    -3533.96518497
  entropy T*S    EENTRO =         0.00000000
  eigenvalues    EBANDS =     -1436.37165122
  atomic energy  EATOM  =      7250.85976021
  Solvation  Ediel_sol  =         0.00000000
  ---------------------------------------------------
  free energy    TOTEN  =      -104.68294343 eV

  energy without entropy =     -104.68294343  energy(sigma->0) =     -104.68294343


--------------------------------------------------------------------------------------------------------




--------------------------------------- Iteration      1(  21)  ---------------------------------------


    POTLOK:  cpu time    0.0569: real time    0.0687
    SETDIJ:  cpu time    0.0016: real time    0.0016
     EDDAV:  cpu time    2.6229: real time    2.6292
 BZINTS: Fermi energy: -0.488569;144.000000 electrons
         Band energy:***********;  BLOECHL correction:  0.000000
       DOS:  cpu time    0.0020: real time    0.0020
    CHARGE:  cpu time    0.1457: real time    0.1460
    MIXING:  cpu time    0.0074: real time    0.0075
    --------------------------------------------
      LOOP:  cpu time    2.8366: real time    2.8550

 eigenvalue-minimisations  :  2592
 total energy-change (2. order) :-0.1130423E-03  (-0.1681459E-05)
 number of electron     144.0000003 magnetization 
 augmentation part      -17.6403992 magnetization 

 Broyden mixing:
  rms(total) = 0.95073E-04    rms(broyden)= 0.95073E-04
  rms(prec ) = 0.11996E-03
  weight for this iteration     100.00

 eigenvalues of (default mixing * dielectric matrix)
  average eigenvalue GAMMA=   2.3865
  8.8796  6.5392  3.6842  3.2301  2.3582  1.8868  1.8868  0.9060  0.9060  1.2441
  1.2441  1.3020  1.1824  1.0085  0.9633  0.9633

 Free energy of the ion-electron system (eV)
  ---------------------------------------------------
  alpha Z        PSCENC =       170.45750602
  Ewald energy   TEWEN  =     11149.58860978
  -Hartree energ DENC   =    -17574.41050734
  -exchange      EXHF   =         0.00000000
  -V(xc)+E(xc)   XCENC  =        48.93454595
  PAW double counting   =      3820.24991123    -3533.96806545
  entropy T*S    EENTRO =         0.00000000
  eigenvalues    EBANDS =     -1436.39481688
  atomic energy  EATOM  =      7250.85976021
  Solvation  Ediel_sol  =         0.00000000
  ---------------------------------------------------
  free energy    TOTEN  =      -104.68305648 eV

  energy without entropy =     -104.68305648  energy(sigma->0) =     -104.68305648


--------------------------------------------------------------------------------------------------------




--------------------------------------- Iteration      1(  22)  ---------------------------------------


    POTLOK:  cpu time    0.0679: real time    0.0791
    SETDIJ:  cpu time    0.0015: real time    0.0015
     EDDAV:  cpu time    2.2211: real time    2.2264
 BZINTS: Fermi energy: -0.489488;144.000000 electrons
         Band energy:***********;  BLOECHL correction:  0.000000
       DOS:  cpu time    0.0019: real time    0.0019
    CHARGE:  cpu time    0.1441: real time    0.1445
    MIXING:  cpu time    0.0061: real time    0.0062
    --------------------------------------------
      LOOP:  cpu time    2.4428: real time    2.4596

 eigenvalue-minimisations  :  2280
 total energy-change (2. order) :-0.3712007E-04  (-0.3818375E-06)
 number of electron     144.0000003 magnetization 
 augmentation part      -17.6403986 magnetization 

 Broyden mixing:
  rms(total) = 0.49963E-04    rms(broyden)= 0.49962E-04
  rms(prec ) = 0.64775E-04
  weight for this iteration     100.00

 eigenvalues of (default mixing * dielectric matrix)
  average eigenvalue GAMMA=   2.3703
  8.9729  6.7974  3.8266  3.2952  2.5271  1.9215  1.9215  0.9060  0.9060  1.3805
  1.2476  1.2476  1.2093  1.2093  1.0071  0.9599  0.9599

 Free energy of the ion-electron system (eV)
  ---------------------------------------------------
  alpha Z        PSCENC =       170.45750602
  Ewald energy   TEWEN  =     11149.58860978
  -Hartree energ DENC   =    -17574.38564616
  -exchange      EXHF   =         0.00000000
  -V(xc)+E(xc)   XCENC  =        48.93410864
  PAW double counting   =      3820.24117524    -3533.95941869
  entropy T*S    EENTRO =         0.00000000
  eigenvalues    EBANDS =     -1436.41918865
  atomic energy  EATOM  =      7250.85976021
  Solvation  Ediel_sol  =         0.00000000
  ---------------------------------------------------
  free energy    TOTEN  =      -104.68309360 eV

  energy without entropy =     -104.68309360  energy(sigma->0) =     -104.68309360


--------------------------------------------------------------------------------------------------------




--------------------------------------- Iteration      1(  23)  ---------------------------------------


    POTLOK:  cpu time    0.0581: real time    0.0693
    SETDIJ:  cpu time    0.0017: real time    0.0017
     EDDAV:  cpu time    2.2263: real time    2.2316
 BZINTS: Fermi energy: -0.490029;144.000000 electrons
         Band energy:***********;  BLOECHL correction:  0.000000
       DOS:  cpu time    0.0020: real time    0.0020
    CHARGE:  cpu time    0.1443: real time    0.1447
    MIXING:  cpu time    0.0078: real time    0.0079
    --------------------------------------------
      LOOP:  cpu time    2.4402: real time    2.4571

 eigenvalue-minimisations  :  2112
 total energy-change (2. order) :-0.1104267E-04  (-0.8853951E-07)
 number of electron     144.0000003 magnetization 
 augmentation part      -17.6403965 magnetization 

 Broyden mixing:
  rms(total) = 0.28975E-04    rms(broyden)= 0.28975E-04
  rms(prec ) = 0.38328E-04
  weight for this iteration     100.00

 eigenvalues of (default mixing * dielectric matrix)
  average eigenvalue GAMMA=   2.3678
  9.0337  6.9155  3.6808  3.6808  2.5770  2.2359  1.8641  1.8641  0.9060  0.9060
  1.2533  1.2533  1.2586  1.2586  1.0452  0.9734  0.9734  0.9405

 Free energy of the ion-electron system (eV)
  ---------------------------------------------------
  alpha Z        PSCENC =       170.45750602
  Ewald energy   TEWEN  =     11149.58860978
  -Hartree energ DENC   =    -17574.39183850
  -exchange      EXHF   =         0.00000000
  -V(xc)+E(xc)   XCENC  =        48.93421562
  PAW double counting   =      3820.24083557    -3533.95913317
  entropy T*S    EENTRO =         0.00000000
  eigenvalues    EBANDS =     -1436.41306017
  atomic energy  EATOM  =      7250.85976021
  Solvation  Ediel_sol  =         0.00000000
  ---------------------------------------------------
  free energy    TOTEN  =      -104.68310464 eV

  energy without entropy =     -104.68310464  energy(sigma->0) =     -104.68310464


--------------------------------------------------------------------------------------------------------




--------------------------------------- Iteration      1(  24)  ---------------------------------------


    POTLOK:  cpu time    0.0590: real time    0.0697
    SETDIJ:  cpu time    0.0015: real time    0.0015
     EDDAV:  cpu time    2.0365: real time    2.0413
 BZINTS: Fermi energy: -0.490572;144.000000 electrons
         Band energy:***********;  BLOECHL correction:  0.000000
       DOS:  cpu time    0.0022: real time    0.0022
    CHARGE:  cpu time    0.1492: real time    0.1496
    MIXING:  cpu time    0.0074: real time    0.0074
    --------------------------------------------
      LOOP:  cpu time    2.2558: real time    2.2718

 eigenvalue-minimisations  :  1864
 total energy-change (2. order) :-0.2381691E-05  (-0.2411939E-07)
 number of electron     144.0000003 magnetization 
 augmentation part      -17.6403977 magnetization 

 Broyden mixing:
  rms(total) = 0.14672E-04    rms(broyden)= 0.14672E-04
  rms(prec ) = 0.21328E-04
  weight for this iteration     100.00

 eigenvalues of (default mixing * dielectric matrix)
  average eigenvalue GAMMA=   2.3680
  9.0578  6.9725  3.8712  3.8712  2.7108  2.6324  1.9266  1.9266  0.9060  0.9060
  1.2451  1.2451  1.2969  1.2969  1.2526  0.9914  0.9914  0.9461  0.9461

 Free energy of the ion-electron system (eV)
  ---------------------------------------------------
  alpha Z        PSCENC =       170.45750602
  Ewald energy   TEWEN  =     11149.58860978
  -Hartree energ DENC   =    -17574.38388252
  -exchange      EXHF   =         0.00000000
  -V(xc)+E(xc)   XCENC  =        48.93412180
  PAW double counting   =      3820.24041033    -3533.95870643
  entropy T*S    EENTRO =         0.00000000
  eigenvalues    EBANDS =     -1436.42092621
  atomic energy  EATOM  =      7250.85976021
  Solvation  Ediel_sol  =         0.00000000
  ---------------------------------------------------
  free energy    TOTEN  =      -104.68310702 eV

  energy without entropy =     -104.68310702  energy(sigma->0) =     -104.68310702


--------------------------------------------------------------------------------------------------------




--------------------------------------- Iteration      1(  25)  ---------------------------------------


    POTLOK:  cpu time    0.0595: real time    0.0731
    SETDIJ:  cpu time    0.0016: real time    0.0016
     EDDAV:  cpu time    2.0752: real time    2.0801
 BZINTS: Fermi energy: -0.491026;144.000000 electrons
         Band energy:***********;  BLOECHL correction:  0.000000
       DOS:  cpu time    0.0020: real time    0.0020
    --------------------------------------------
      LOOP:  cpu time    2.1382: real time    2.1567

 eigenvalue-minimisations  :  1912
 total energy-change (2. order) :-0.7072122E-06  (-0.1453631E-07)
 number of electron     144.0000003 magnetization 
 augmentation part      -17.6403977 magnetization 

 Free energy of the ion-electron system (eV)
  ---------------------------------------------------
  alpha Z        PSCENC =       170.45750602
  Ewald energy   TEWEN  =     11149.58860978
  -Hartree energ DENC   =    -17574.38401769
  -exchange      EXHF   =         0.00000000
  -V(xc)+E(xc)   XCENC  =        48.93409721
  PAW double counting   =      3820.23873071    -3533.95701087
  entropy T*S    EENTRO =         0.00000000
  eigenvalues    EBANDS =     -1436.42078309
  atomic energy  EATOM  =      7250.85976021
  Solvation  Ediel_sol  =         0.00000000
  ---------------------------------------------------
  free energy    TOTEN  =      -104.68310773 eV

[...]
      7     -28.0330      2.00000
      8     -28.0327      2.00000
      9     -14.8300      2.00000
     10     -14.8298      2.00000
     11     -14.7616      2.00000
     12     -14.7616      2.00000
     13     -14.6862      2.00000
     14     -14.6861      2.00000
     15     -13.9590      2.00000
     16     -13.9565      2.00000
     17     -13.9493      2.00000
     18     -13.9454      2.00000
     19     -13.8950      2.00000
     20     -13.8941      2.00000
     21     -13.8459      2.00000
     22     -13.8382      2.00000
     23     -13.7839      2.00000
     24     -13.7823      2.00000
     25     -13.7810      2.00000
     26     -13.7787      2.00000
     27     -13.3816      2.00000
     28     -13.3740      2.00000
     29     -13.3242      2.00000
     30     -13.3165      2.00000
     31     -13.3012      2.00000
     32     -13.2988      2.00000
     33     -10.9475      2.00000
     34     -10.9391      2.00000
     35     -10.6411      2.00000
     36     -10.6284      2.00000
     37      -6.3450      2.00000
     38      -6.3332      2.00000
     39      -6.1110      2.00000
     40      -6.0933      2.00000
     41      -6.0329      2.00000
     42      -6.0265      2.00000
     43      -5.8249      2.00000
     44      -5.8109      2.00000
     45      -5.7727      2.00000
     46      -5.7349      2.00000
     47      -5.7090      2.00000
     48      -5.6020      2.00000
     49      -2.7045      2.00000
     50      -2.6202      2.00000
     51      -2.4888      2.00000
     52      -2.4500      2.00000
     53      -2.1125      2.00000
     54      -2.0469      2.00000
     55      -2.0353      2.00000
     56      -1.9973      2.00000
     57      -1.8851      2.00000
     58      -1.8611      2.00000
     59      -1.7323      2.00000
     60      -1.6545      2.00000
     61      -1.6016      2.00000
     62      -1.5127      2.00000
     63      -1.4047      2.00000
     64      -1.3709      2.00000
     65      -1.2320      2.00000
     66      -1.1680      2.00000
     67      -1.1127      2.00000
     68      -0.9775      2.00000
     69      -0.8842      2.00000
     70      -0.8368      2.00000
     71      -0.7692      2.00000
     72      -0.7261      2.00000
     73       0.4493      0.00000
     74       0.4785      0.00000
     75       0.6066      0.00000
     76       0.6477      0.00000
     77       0.7295      0.00000
     78       0.7994      0.00000
     79       0.9558      0.00000
     80       0.9883      0.00000
     81       1.0404      0.00000
     82       1.1223      0.00000
     83       1.2772      0.00000
     84       1.3676      0.00000
     85       1.4240      0.00000
     86       1.5360      0.00000
     87       1.6502      0.00000
     88       1.7488      0.00000

 k-point    15 :       0.0000    0.5000    0.4000
  band No.  band energies     occupation 
      1     -29.4854      2.00000
      2     -29.4854      2.00000
      3     -28.6028      2.00000
      4     -28.6028      2.00000
      5     -28.5170      2.00000
      6     -28.5170      2.00000
      7     -28.0329      2.00000
      8     -28.0329      2.00000
      9     -14.8295      2.00000
     10     -14.8295      2.00000
     11     -14.7623      2.00000
     12     -14.7623      2.00000
     13     -14.6882      2.00000
     14     -14.6882      2.00000
     15     -13.9582      2.00000
     16     -13.9582      2.00000
     17     -13.9470      2.00000
     18     -13.9470      2.00000
     19     -13.8969      2.00000
     20     -13.8969      2.00000
     21     -13.8434      2.00000
     22     -13.8434      2.00000
     23     -13.7852      2.00000
     24     -13.7852      2.00000
     25     -13.7793      2.00000
     26     -13.7793      2.00000
     27     -13.3774      2.00000
     28     -13.3773      2.00000
     29     -13.3212      2.00000
     30     -13.3212      2.00000
     31     -13.2990      2.00000
     32     -13.2990      2.00000
     33     -10.9375      2.00000
     34     -10.9375      2.00000
     35     -10.6254      2.00000
     36     -10.6253      2.00000
     37      -6.3684      2.00000
     38      -6.3684      2.00000
     39      -6.0841      2.00000
     40      -6.0841      2.00000
     41      -6.0260      2.00000
     42      -6.0259      2.00000
     43      -5.7952      2.00000
     44      -5.7952      2.00000
     45      -5.7628      2.00000
     46      -5.7628      2.00000
     47      -5.6477      2.00000
     48      -5.6477      2.00000
     49      -2.6122      2.00000
     50      -2.6122      2.00000
     51      -2.4892      2.00000
     52      -2.4892      2.00000
     53      -2.0724      2.00000
     54      -2.0724      2.00000
     55      -2.0252      2.00000
     56      -2.0252      2.00000
     57      -1.8879      2.00000
     58      -1.8879      2.00000
     59      -1.6378      2.00000
     60      -1.6378      2.00000
     61      -1.4753      2.00000
     62      -1.4753      2.00000
     63      -1.4348      2.00000
     64      -1.4348      2.00000
     65      -1.2135      2.00000
     66      -1.2135      2.00000
     67      -1.0510      2.00000
     68      -1.0510      2.00000
     69      -0.8733      2.00000
     70      -0.8733      2.00000
     71      -0.7556      2.00000
     72      -0.7555      2.00000
     73       0.3736      0.00000
     74       0.3736      0.00000
     75       0.6009      0.00000
     76       0.6009      0.00000
     77       0.7826      0.00000
     78       0.7826      0.00000
     79       0.9076      0.00000
     80       0.9077      0.00000
     81       1.0042      0.00000
     82       1.0042      0.00000
     83       1.3403      0.00000
     84       1.3403      0.00000
     85       1.5178      0.00000
     86       1.5178      0.00000
     87       1.6113      0.00000
     88       1.6113      0.00000


--------------------------------------------------------------------------------------------------------


 soft charge-density along one line, spin component           1
         0         1         2         3         4         5         6         7         8         9
 total charge-density along one line
 
 pseudopotential strength for first ion, spin component:           1
  5.076  -5.589  -0.000  -0.008  -0.038  -0.000  -0.003  -0.015
 -5.589  -2.740   0.000   0.002   0.007  -0.000  -0.001  -0.006
 -0.000   0.000  -6.782  -0.000  -0.000   1.856  -0.000  -0.000
 -0.008   0.002  -0.000  -6.777  -0.002  -0.000   1.868  -0.004
 -0.038   0.007  -0.000  -0.002  -6.777  -0.000  -0.004   1.867
 -0.000  -0.000   1.856  -0.000  -0.000   7.309  -0.000  -0.000
 -0.003  -0.001  -0.000   1.868  -0.004  -0.000   7.311  -0.000
 -0.015  -0.006  -0.000  -0.004   1.867  -0.000  -0.000   7.311
 -0.000   0.000  -0.013  -0.000  -0.000  -0.009  -0.000  -0.000
 -0.000   0.000  -0.001  -0.000  -0.000  -0.000  -0.000  -0.000
  0.002  -0.001   0.000  -0.004   0.007   0.000  -0.003   0.005
 -0.002   0.001  -0.000  -0.013  -0.002  -0.000  -0.008  -0.002
  0.003  -0.001   0.000  -0.001  -0.012   0.000  -0.001  -0.008
  0.000   0.000   0.001   0.000   0.000   0.000   0.000   0.000
  0.000   0.000   0.000   0.000   0.000  -0.000   0.000   0.000
 -0.000  -0.000  -0.000   0.000  -0.000  -0.000   0.000  -0.000
  0.000   0.000   0.000   0.001   0.000   0.000   0.000   0.000
 -0.000  -0.000  -0.000   0.000   0.000  -0.000   0.000   0.000
 total augmentation occupancy for first ion, spin component:           1
  2.102  -0.257   0.000   0.012   0.055   0.000  -0.006  -0.020   0.000  -0.000   0.018  -0.010   0.035   0.000   0.000  -0.010
 -0.257   0.640   0.000  -0.033  -0.144   0.000   0.012   0.033  -0.000   0.000  -0.030   0.013  -0.068   0.000  -0.000   0.042
  0.000   0.000   2.012  -0.000   0.000  -0.012   0.000   0.000  -0.085   0.022   0.000   0.000  -0.000   0.079  -0.042   0.000
  0.012  -0.033   0.000   1.999   0.003   0.000  -0.002  -0.002   0.000   0.000  -0.044  -0.069  -0.014  -0.000   0.000   0.043
  0.055  -0.144   0.000   0.003   1.995  -0.000  -0.002  -0.000   0.000   0.000   0.035  -0.006  -0.052  -0.000   0.000  -0.032
  0.000  -0.000  -0.012   0.000   0.000   0.008   0.000   0.000   0.023  -0.009   0.000   0.000   0.000  -0.030   0.014   0.000
 -0.006   0.012   0.000  -0.002  -0.002   0.000   0.005   0.001   0.000   0.000   0.016   0.016   0.005   0.000   0.000  -0.022
 -0.020   0.033   0.000  -0.002  -0.000   0.000   0.001   0.004   0.000   0.000  -0.006   0.000   0.008  -0.000   0.000   0.008
  0.000   0.000  -0.085   0.000   0.000   0.023   0.000   0.000   0.150  -0.013   0.000   0.000  -0.000  -0.188   0.019   0.000
 -0.000  -0.000   0.022   0.000   0.000  -0.009   0.000   0.000  -0.013   0.068   0.000   0.000   0.000   0.017  -0.085   0.000
  0.018  -0.030   0.000  -0.044   0.035   0.000   0.016  -0.006   0.000   0.000   0.120   0.053   0.021   0.000   0.000  -0.149
 -0.010   0.013   0.000  -0.069  -0.006   0.000   0.016   0.000   0.000   0.000   0.053   0.088   0.008  -0.000  -0.000  -0.072
  0.035  -0.068   0.000  -0.014  -0.052   0.000   0.005   0.008   0.000   0.000   0.021   0.008   0.096  -0.000   0.000  -0.028
  0.000   0.000   0.079  -0.000   0.000  -0.030  -0.000   0.000  -0.188   0.017   0.000  -0.000   0.000   0.265  -0.032   0.000
  0.000   0.000  -0.042  -0.000   0.000   0.014  -0.000   0.000   0.019  -0.085  -0.000   0.000  -0.000  -0.032   0.114   0.000
 -0.010   0.042   0.000   0.043  -0.032   0.000  -0.022   0.008  -0.000   0.000  -0.149  -0.072  -0.028  -0.000   0.000   0.205
  0.007  -0.031  -0.000   0.064   0.000   0.000  -0.023  -0.001   0.000   0.000  -0.070  -0.111  -0.011   0.000   0.000   0.107
 -0.027   0.083   0.000   0.022   0.050   0.000  -0.008  -0.011   0.000   0.000  -0.030  -0.013  -0.126   0.000   0.000   0.046


------------------------ aborting loop because EDIFF is reached ----------------------------------------


    CHARGE:  cpu time    0.1529: real time    0.1532
    FORLOC:  cpu time    0.0096: real time    0.0096
    FORNL :  cpu time    0.5859: real time    0.5873
    STRESS:  cpu time    1.7518: real time    1.7561
    FORCOR:  cpu time    0.0654: real time    0.0656
    FORHAR:  cpu time    0.0223: real time    0.0223
    MIXING:  cpu time    0.0077: real time    0.0078
    OFIELD:  cpu time    0.0000: real time    0.0000

  FORCE on cell =-STRESS in cart. coord.  units (eV):
  Direction    XX          YY          ZZ          XY          YZ          ZX
  --------------------------------------------------------------------------------------
  Alpha Z   170.45751   170.45751   170.45751
  Ewald  -18880.61036 15286.03298 14744.15253    -0.00002     0.00000   141.63226
  Hartree-15832.78487 16915.96363 16491.20457     0.00000    -0.00000   110.16997
  E(xc)    -461.58584  -459.52709  -460.00594    -0.00000    -0.00000     0.13931
  Local   33300.17605-33637.35865-32662.67302     0.00001    -0.00000  -250.25798
  n-local   338.59706   338.23079   339.93295     0.05930    -0.20666    -1.14018
  augment  -169.10776  -169.54491  -169.53463    -0.00000    -0.00000     0.23560
  Kinetic  1524.38146  1544.47363  1536.04105    -0.06134    -0.81497    -0.57201
  Fock        0.00000     0.00000     0.00000     0.00000     0.00000     0.00000
  -------------------------------------------------------------------------------------
  Total     -10.47675   -11.27212   -10.42498     0.00000     0.00000     0.20696
  in kB      -8.89046    -9.56541    -8.84654     0.00000     0.00000     0.17562
  external pressure =       -9.10 kB  Pullay stress =        0.00 kB


 VOLUME and BASIS-vectors are now :
 -----------------------------------------------------------------------------
  energy-cutoff  :      500.00
  volume of cell :     1888.05
      direct lattice vectors                 reciprocal lattice vectors
    24.009468079  0.000000000  0.000000000     0.041650236  0.000000000  0.000000000
     0.000000000  6.777849674  0.000000000     0.000000000  0.147539419  0.000000000
     0.000000000  0.000000000 11.602143288     0.000000000  0.000000000  0.086190971

  length of vectors
    24.009468079  6.777849674 11.602143288     0.041650236  0.147539419  0.086190971


 FORCES acting on ions
    electron-ion (+dipol)            ewald-force                    non-local-force                 convergence-correction
 -----------------------------------------------------------------------------------------------
   0.765E+03 0.102E-04 0.441E+02   -.760E+03 0.989E-05 -.433E+02   -.431E+01 -.614E-18 -.803E+00   -.128E-03 -.996E-09 0.198E-04
   -.765E+03 -.630E-04 -.441E+02   0.760E+03 -.128E-04 0.433E+02   0.431E+01 -.581E-18 0.803E+00   0.128E-03 0.111E-08 -.198E-04
   0.876E+02 -.613E-04 -.400E+02   -.874E+02 -.176E-04 0.387E+02   0.170E+00 0.584E-18 0.134E+01   0.105E-03 0.168E-08 -.923E-04
   -.876E+02 0.107E-04 0.400E+02   0.874E+02 0.126E-04 -.387E+02   -.170E+00 0.537E-18 -.134E+01   -.105E-03 -.153E-08 0.923E-04
   0.613E+03 -.612E-04 -.482E+02   -.611E+03 -.163E-04 0.485E+02   -.179E+01 0.782E-18 -.285E+00   -.141E-04 0.137E-08 -.118E-03
   -.613E+03 0.901E-05 0.482E+02   0.611E+03 0.142E-04 -.485E+02   0.179E+01 -.193E-18 0.285E+00   0.141E-04 -.127E-08 0.118E-03
   0.351E+03 0.112E-04 -.119E+02   -.350E+03 0.129E-04 0.111E+02   -.436E+00 -.433E-17 0.743E+00   0.494E-04 -.148E-08 0.486E-04
   -.351E+03 -.622E-04 0.119E+02   0.350E+03 -.131E-04 -.111E+02   0.436E+00 -.434E-17 -.743E+00   -.494E-04 0.148E-08 -.486E-04
   0.270E+03 0.363E+02 -.465E+02   -.270E+03 -.378E+02 0.474E+02   -.236E-01 0.152E+01 -.867E+00   0.379E-04 0.507E-04 -.496E-04
   -.270E+03 -.363E+02 0.465E+02   0.270E+03 0.378E+02 -.474E+02   0.236E-01 -.152E+01 0.867E+00   -.379E-04 -.507E-04 0.496E-04
   0.116E+03 -.332E+02 0.225E+01   -.115E+03 0.344E+02 -.118E+01   -.585E-01 -.113E+01 -.107E+01   -.282E-04 -.575E-04 -.719E-05
   -.116E+03 0.332E+02 -.225E+01   0.115E+03 -.344E+02 0.118E+01   0.585E-01 0.113E+01 0.107E+01   0.282E-04 0.575E-04 0.719E-05
   -.270E+03 0.363E+02 0.465E+02   0.270E+03 -.378E+02 -.474E+02   0.236E-01 0.152E+01 0.867E+00   -.379E-04 0.507E-04 0.496E-04
   0.270E+03 -.363E+02 -.465E+02   -.270E+03 0.378E+02 0.474E+02   -.236E-01 -.152E+01 -.867E+00   0.379E-04 -.507E-04 -.496E-04
   -.116E+03 -.332E+02 -.225E+01   0.115E+03 0.344E+02 0.118E+01   0.585E-01 -.113E+01 0.107E+01   0.282E-04 -.575E-04 0.719E-05
   0.116E+03 0.332E+02 0.225E+01   -.115E+03 -.344E+02 -.118E+01   -.585E-01 0.113E+01 -.107E+01   -.282E-04 0.575E-04 -.719E-05
   0.324E+03 -.416E-05 0.460E+02   -.326E+03 -.606E-05 -.466E+02   0.141E+01 0.239E-18 0.637E+00   0.268E-04 0.422E-09 0.416E-04
   -.324E+03 0.616E-05 -.460E+02   0.326E+03 0.629E-05 0.466E+02   -.141E+01 -.154E-18 -.637E+00   -.268E-04 -.452E-09 -.416E-04
   0.332E+02 0.856E-05 -.104E+02   -.314E+02 0.743E-05 0.967E+01   -.155E+01 -.324E-18 0.687E+00   -.294E-04 -.623E-09 -.174E-04
   -.332E+02 -.257E-05 0.104E+02   0.314E+02 -.709E-05 -.967E+01   0.155E+01 -.236E-18 -.687E+00   0.294E-04 0.583E-09 0.174E-04
   0.235E+03 0.432E-05 0.143E+02   -.235E+03 0.802E-05 -.154E+02   -.105E+00 -.948E-19 0.113E+01   0.241E-04 -.543E-09 0.163E-04
   -.235E+03 -.545E-05 -.143E+02   0.235E+03 -.807E-05 0.154E+02   0.105E+00 0.305E-18 -.113E+01   -.241E-04 0.505E-09 -.163E-04
   0.151E+03 -.606E-05 0.583E+02   -.151E+03 -.738E-05 -.600E+02   -.589E+00 -.241E-17 0.174E+01   -.109E-04 0.549E-09 0.960E-04
   -.151E+03 0.371E-05 -.583E+02   0.151E+03 0.725E-05 0.600E+02   0.589E+00 0.342E-17 -.174E+01   0.109E-04 -.559E-09 -.960E-04
 -----------------------------------------------------------------------------------------------
   0.570E-04 -.213E-03 0.570E-04   0.000E+00 0.281E-13 -.711E-14   -.222E-15 -.221E-15 0.000E+00   -.259E-07 0.184E-09 -.338E-08
 
 
 POSITION                                       TOTAL-FORCE (eV/Angst)
 -----------------------------------------------------------------------------------
      0.13670      1.69446      8.16525         0.785040      0.000000     -0.000480
      9.32277      5.08339      3.43689        -0.785040      0.000000      0.000480
      4.36803      5.08339      2.14106         0.379453      0.000000      0.000193
      5.09143      1.69446      9.46108        -0.379453      0.000000     -0.000193
      1.43529      5.08339     10.61259         0.630294      0.000000     -0.000481
      8.02418      1.69446      0.98955        -0.630294      0.000000      0.000481
      3.06944      1.69446      4.59194         0.466050      0.000000      0.000093
      6.39002      5.08339      7.01021        -0.466050     -0.000000     -0.000093
      1.75027      0.49357      1.64775        -0.125568      0.000028     -0.000903
      7.70920      6.28428      9.95440         0.125568     -0.000028      0.000903
      2.75446      6.29576      7.65558         0.241299     -0.000126     -0.000008
      6.70500      0.48209      3.94656        -0.241299      0.000126      0.000008
      7.70920      3.88250      9.95440         0.125568      0.000028      0.000903
      1.75027      2.89535      1.64775        -0.125568     -0.000028     -0.000903
      6.70500      2.90684      3.94656        -0.241299     -0.000126      0.000008
      2.75446      3.87101      7.65558         0.241299      0.000126     -0.000008
      0.74693      5.08339      6.96394        -0.255001     -0.000000      0.000623
      8.71254      1.69446      4.63820         0.255001     -0.000000     -0.000623
      3.75780      1.69446      0.92772         0.242628      0.000000      0.000899
      5.70166      5.08339     10.67442        -0.242628      0.000000     -0.000899
      1.78112      1.69446     11.13564        -0.167910     -0.000000     -0.000297
      7.67835      5.08339      0.46650         0.167910     -0.000000      0.000297
      2.72362      5.08339      5.54096        -0.180351      0.000000     -0.000144
      6.73585      1.69446      6.06118         0.180351      0.000000      0.000144
 -----------------------------------------------------------------------------------
    total drift:                                0.000057     -0.000213      0.000057


--------------------------------------------------------------------------------------------------------



  FREE ENERGIE OF THE ION-ELECTRON SYSTEM (eV)
  ---------------------------------------------------
  free  energy   TOTEN  =      -104.68310773 eV

  energy  without entropy=     -104.68310773  energy(sigma->0) =     -104.68310773
 


--------------------------------------------------------------------------------------------------------


    POTLOK:  cpu time    0.0597: real time    0.0599


--------------------------------------------------------------------------------------------------------


 writing wavefunctions
     LOOP+:  cpu time   83.6725: real time   85.1673
    4ORBIT:  cpu time    0.0000: real time    0.0000
 BZINTS: Fermi energy: -0.491026;144.000000 electrons
         Band energy:***********;  BLOECHL correction:  0.000000

 total amount of memory used by VASP MPI-rank0    79353. kBytes
=======================================================================

   base      :      30000. kBytes
   nonlr-proj:       2647. kBytes
   fftplans  :       5898. kBytes
   grid      :       8824. kBytes
   one-center:         93. kBytes
   wavefun   :      31891. kBytes
 
  
  
 General timing and accounting informations for this job:
 ========================================================
  
                  Total CPU time used (sec):       91.650
                            User time (sec):       86.491
                          System time (sec):        5.159
                         Elapsed time (sec):       96.209
  
                   Maximum memory used (kb):      168596.
                   Average memory used (kb):           0.
  
                          Minor page faults:        64496
                          Major page faults:          248
                 Voluntary context switches:        12672
