 vasp.5.4.4.18Apr17-6-g9f103f2a35 (build Nov 21 2017 15:30:27) complex          
  
 executed on             LinuxIFC date 2020.09.15  08:02:32
 running on   64 total cores
 distrk:  each k-point on   32 cores,    2 groups
 distr:  one band on NCORES_PER_BAND=   4 cores,    8 groups


--------------------------------------------------------------------------------------------------------


 INCAR:
 POTCAR:   PAW_PBE Ba_sv 06Sep2000                
 POTCAR:   PAW_PBE Si 05Jan2001                   

 ----------------------------------------------------------------------------- 
|                                                                             |
|           W    W    AA    RRRRR   N    N  II  N    N   GGGG   !!!           |
|           W    W   A  A   R    R  NN   N  II  NN   N  G    G  !!!           |
|           W    W  A    A  R    R  N N  N  II  N N  N  G       !!!           |
|           W WW W  AAAAAA  RRRRR   N  N N  II  N  N N  G  GGG   !            |
|           WW  WW  A    A  R   R   N   NN  II  N   NN  G    G                |
|           W    W  A    A  R    R  N    N  II  N    N   GGGG   !!!           |
|                                                                             |
|      You have enabled k-point parallelism (KPAR>1).                         |
|      This developmental code was originally  written by Paul Kent at ORNL,  |
|      and carefully double checked in Vienna.                                |
|      GW as well as linear response parallelism added by Martijn Marsman     |
|      and Georg Kresse.                                                      |
|      Carefully verify results versus KPAR=1.                                |
|      Report problems to Paul Kent and Vienna.                               |
|                                                                             |
 ----------------------------------------------------------------------------- 

 POTCAR:   PAW_PBE Ba_sv 06Sep2000                
   VRHFIN =Ba: 5s5p6s                                                           
   LEXCH  = PE                                                                  
   EATOM  =   700.2255 eV,   51.4651 Ry                                         
                                                                                
   TITEL  = PAW_PBE Ba_sv 06Sep2000                                             
   LULTRA =        F    use ultrasoft PP ?                                      
   IUNSCR =        1    unscreen: 0-lin 1-nonlin 2-no                           
   RPACOR =    2.400    partial core radius                                     
   POMASS =  137.327; ZVAL   =   10.000    mass and valenz                      
   RCORE  =    2.800    outmost cutoff radius                                   
   RWIGS  =    3.740; RWIGS  =    1.979    wigner-seitz radius (au A)           
   ENMAX  =  187.210; ENMIN  =  140.408 eV                                      
   RCLOC  =    2.516    cutoff for local pot                                    
   LCOR   =        T    correct aug charges                                     
   LPAW   =        T    paw PP                                                  
   EAUG   =  351.165                                                            
   DEXC   =     .000                                                            
   RMAX   =    3.370    core radius for proj-oper                               
   RAUG   =    1.300    factor for augmentation sphere                          
   RDEP   =    2.976    radius for radial grids                                 
   QCUT   =   -3.709; QGAM   =    7.419    optimization parameters              
                                                                                
   Description                                                                  
     l     E      TYP  RCUT    TYP  RCUT                                        
     0   .000     23  2.800                                                     
     0   .000     23  2.800                                                     
     1   .000     23  2.700                                                     
     1  2.000     23  2.700                                                     
     2   .000     23  2.700                                                     
     2   .000     23  2.700                                                     
  local pseudopotential read in
  partial core-charges read in
  atomic valenz-charges read in
  non local Contribution for L=           0  read in
    real space projection operators read in
  non local Contribution for L=           0  read in
    real space projection operators read in
  non local Contribution for L=           1  read in
    real space projection operators read in
  non local Contribution for L=           1  read in
    real space projection operators read in
  non local Contribution for L=           2  read in
    real space projection operators read in
  non local Contribution for L=           2  read in
    real space projection operators read in
    PAW grid and wavefunctions read in
 
   number of l-projection  operators is LMAX  =           6
   number of lm-projection operators is LMMAX =          18
 
 POTCAR:   PAW_PBE Si 05Jan2001                   
   VRHFIN =Si: s2p2                                                             
   LEXCH  = PE                                                                  
   EATOM  =   103.0669 eV,    7.5752 Ry                                         
                                                                                
   TITEL  = PAW_PBE Si 05Jan2001                                                
   LULTRA =        F    use ultrasoft PP ?                                      
   IUNSCR =        1    unscreen: 0-lin 1-nonlin 2-no                           
   RPACOR =    1.500    partial core radius                                     
   POMASS =   28.085; ZVAL   =    4.000    mass and valenz                      
   RCORE  =    1.900    outmost cutoff radius                                   
   RWIGS  =    2.480; RWIGS  =    1.312    wigner-seitz radius (au A)           
   ENMAX  =  245.345; ENMIN  =  184.009 eV                                      
   ICORE  =        2    local potential                                         
   LCOR   =        T    correct aug charges                                     
   LPAW   =        T    paw PP                                                  
   EAUG   =  322.069                                                            
   DEXC   =    -.007                                                            
   RMAX   =    2.944    core radius for proj-oper                               
   RAUG   =    1.300    factor for augmentation sphere                          
   RDEP   =    1.993    radius for radial grids                                 
   QCUT   =   -4.246; QGAM   =    8.493    optimization parameters              
                                                                                
   Description                                                                  
     l     E      TYP  RCUT    TYP  RCUT                                        
     0   .000     23  1.900                                                     
     0   .000     23  1.900                                                     
     1   .000     23  1.900                                                     
     1   .000     23  1.900                                                     
     2   .000      7  1.900                                                     
  local pseudopotential read in
  partial core-charges read in
  atomic valenz-charges read in
  non local Contribution for L=           0  read in
    real space projection operators read in
  non local Contribution for L=           0  read in
    real space projection operators read in
  non local Contribution for L=           1  read in
    real space projection operators read in
  non local Contribution for L=           1  read in
    real space projection operators read in
    PAW grid and wavefunctions read in
 
   number of l-projection  operators is LMAX  =           4
   number of lm-projection operators is LMMAX =           8
 
 Optimization of the real space projectors (new method)

 maximal supplied QI-value         = 13.42
 optimisation between [QCUT,QGAM] = [ 11.40, 22.81] = [ 36.42,145.68] Ry 
 Optimized for a Real-space Cutoff    1.56 Angstroem

   l    n(q)    QCUT    max X(q) W(low)/X(q) W(high)/X(q)  e(spline) 
   0     11    11.404     7.198    0.14E-04    0.26E-04    0.99E-07
   0     11    11.404    15.603    0.29E-04    0.72E-04    0.44E-06
   1     10    11.404     3.746    0.20E-04    0.24E-04    0.43E-07
   1     10    11.404     4.362    0.22E-03    0.97E-04    0.22E-06
   2     10    11.404     5.782    0.83E-04    0.62E-05    0.27E-06
   2     10    11.404    65.505    0.42E-03    0.31E-04    0.12E-05
 Optimization of the real space projectors (new method)

 maximal supplied QI-value         = 19.84
 optimisation between [QCUT,QGAM] = [ 11.31, 22.82] = [ 35.82,145.81] Ry 
 Optimized for a Real-space Cutoff    1.16 Angstroem

   l    n(q)    QCUT    max X(q) W(low)/X(q) W(high)/X(q)  e(spline) 
   0      8    11.310     8.708    0.14E-04    0.11E-04    0.43E-08
   0      8    11.310   106.241    0.27E-03    0.30E-03    0.38E-07
   1      7    11.310     5.901    0.82E-05    0.48E-04    0.19E-07
   1      7    11.310    73.241    0.27E-03    0.27E-03    0.74E-07
 PAW_PBE Ba_sv 06Sep2000                :
 energy of atom  1       EATOM= -700.2255
 kinetic energy error for atom=    0.0005 (will be added to EATOM!!)
 PAW_PBE Si 05Jan2001                   :
 energy of atom  2       EATOM= -103.0669
 kinetic energy error for atom=    0.0006 (will be added to EATOM!!)
 
 
 POSCAR: ba8 si16                                
  positions in direct lattice
  velocities in cartesian coordinates
 exchange correlation table for  LEXCH =        8
   RHO(1)=    0.500       N(1)  =     2000
   RHO(2)=  100.500       N(2)  =     4000
 


--------------------------------------------------------------------------------------------------------


 ion  position               nearest neighbor table
   1  0.006  0.250  0.706-  21 3.42  16 3.45  11 3.45  17 3.66  17 3.66   5 4.39   5 4.39   7 4.62
                             4 4.72
   2  0.372  0.750  0.294-  22 3.42  12 3.45  15 3.45  18 3.66  18 3.66   6 4.39   6 4.39   8 4.62
                             3 4.72
   3  0.182  0.750  0.187-  20 3.30  22 3.40  12 3.42  15 3.42   9 3.44  14 3.44  19 3.64  19 3.64
                            23 3.74   5 4.27   7 4.38   7 4.38   2 4.72
   4  0.195  0.250  0.813-  19 3.30  21 3.40  16 3.42  11 3.42  13 3.44  10 3.44  20 3.64  20 3.64
                            24 3.74   6 4.27   8 4.38   8 4.38   1 4.72
   5  0.060  0.750  0.919-   9 3.44  14 3.44  21 3.45  21 3.45  11 3.51  16 3.51  17 3.77  20 3.87
                             3 4.27   1 4.39   1 4.39
   6  0.318  0.250  0.081-  13 3.44  10 3.44  22 3.45  22 3.45  15 3.51  12 3.51  18 3.77  19 3.87
                             4 4.27   2 4.39   2 4.39
   7  0.128  0.250  0.398-  14 3.43   9 3.43  15 3.52  12 3.52  23 3.53  23 3.53  24 3.57  19 3.69
                            16 3.74  11 3.74   3 4.38   3 4.38   1 4.62
   8  0.249  0.750  0.602-  10 3.43  13 3.43  11 3.52  16 3.52  24 3.53  24 3.53  23 3.57  20 3.69
                            12 3.74  15 3.74   4 4.38   4 4.38   2 4.62
   9  0.073  0.073  0.146-  14 2.40  21 2.43  19 2.44   7 3.43   5 3.44   3 3.44
  10  0.304  0.927  0.854-  13 2.40  22 2.43  20 2.44   8 3.43   6 3.44   4 3.44
  11  0.115  0.928  0.659-  16 2.41  23 2.43  17 2.44   4 3.42   1 3.45   5 3.51   8 3.52   7 3.74

  12  0.263  0.072  0.341-  15 2.41  24 2.43  18 2.44   3 3.42   2 3.45   6 3.51   7 3.52   8 3.74

  13  0.304  0.573  0.854-  10 2.40  22 2.43  20 2.44   8 3.43   6 3.44   4 3.44
  14  0.073  0.427  0.146-   9 2.40  21 2.43  19 2.44   7 3.43   5 3.44   3 3.44
  15  0.263  0.428  0.341-  12 2.41  24 2.43  18 2.44   3 3.42   2 3.45   6 3.51   7 3.52   8 3.74

  16  0.115  0.572  0.659-  11 2.41  23 2.43  17 2.44   4 3.42   1 3.45   5 3.51   8 3.52   7 3.74

  17  0.031  0.750  0.600-  23 2.44  11 2.44  16 2.44   1 3.66   1 3.66   5 3.77
  18  0.346  0.250  0.400-  24 2.44  15 2.44  12 2.44   2 3.66   2 3.66   6 3.77
  19  0.157  0.250  0.086-  21 2.43  14 2.44   9 2.44   4 3.30   3 3.64   3 3.64   7 3.69   6 3.87

  20  0.221  0.750  0.914-  22 2.43  10 2.44  13 2.44   3 3.30   4 3.64   4 3.64   8 3.69   5 3.87

  21  0.074  0.250  0.964-  14 2.43   9 2.43  19 2.43   4 3.40   1 3.42   5 3.45   5 3.45
  22  0.303  0.750  0.036-  10 2.43  13 2.43  20 2.43   3 3.40   2 3.42   6 3.45   6 3.45
  23  0.113  0.750  0.477-  11 2.43  16 2.43  17 2.44   7 3.53   7 3.53   8 3.57   3 3.74
  24  0.264  0.250  0.523-  15 2.43  12 2.43  18 2.44   8 3.53   8 3.53   7 3.57   4 3.74
 
  LATTYP: Found a simple orthorhombic cell.
 ALAT       =     6.7778496742
 B/A-ratio  =     1.7117734747
 C/A-ratio  =     3.5423429602
  
  Lattice vectors:
  
 A1 = (   0.0000000000,   6.7778496742,   0.0000000000)
 A2 = (   0.0000000000,   0.0000000000, -11.6021432877)
 A3 = ( -24.0094680786,   0.0000000000,   0.0000000000)


Analysis of symmetry for initial positions (statically):
=====================================================================
 Subroutine PRICEL returns:
 Original cell was already a primitive cell.
 

 Routine SETGRP: Setting up the symmetry group for a 
 simple orthorhombic supercell.


 Subroutine GETGRP returns: Found  4 space group operations
 (whereof  1 operations were pure point group operations)
 out of a pool of  8 trial point group operations.


The static configuration has the point symmetry C_1 .
 The point group associated with its full space group is C_2h.


Analysis of symmetry for dynamics (positions and initial velocities):
=====================================================================
 Subroutine PRICEL returns:
 Original cell was already a primitive cell.
 

 Routine SETGRP: Setting up the symmetry group for a 
 simple orthorhombic supercell.


 Subroutine GETGRP returns: Found  4 space group operations
 (whereof  1 operations were pure point group operations)
 out of a pool of  8 trial point group operations.


The dynamic configuration has the point symmetry C_1 .
 The point group associated with its full space group is C_2h.


Analysis of constrained symmetry for selective dynamics:
=====================================================================
 Subroutine PRICEL returns:
 Original cell was already a primitive cell.
 

 Routine SETGRP: Setting up the symmetry group for a 
 simple orthorhombic supercell.


 Subroutine GETGRP returns: Found  4 space group operations
 (whereof  1 operations were pure point group operations)
 out of a pool of  8 trial point group operations.


The constrained configuration has the point symmetry C_1 .
 The point group associated with its full space group is C_2h.


 Subroutine INISYM returns: Found  4 space group operations
 (whereof  1 operations are pure point group operations),
 and found     1 'primitive' translations

 
 
 KPOINTS: k-density: 8.0                          

Automatic generation of k-mesh.
Space group operators:
 irot       det(A)        alpha          n_x          n_y          n_z        tau_x        tau_y        tau_z
    1     1.000000     0.000000     1.000000     0.000000     0.000000     0.000000     0.000000     0.000000
    2    -1.000000     0.000000     1.000000     0.000000     0.000000    -0.622671     0.000000     0.000000
    3     1.000000   180.000000     0.000000     1.000000     0.000000    -0.622671     0.500000     0.000000
    4    -1.000000   180.000000     0.000000     1.000000     0.000000     0.000000     0.500000     0.000000
 
 Subroutine IBZKPT returns following result:
 ===========================================
 
 Found     15 irreducible k-points:
 
 Following reciprocal coordinates:
            Coordinates               Weight
  0.000000  0.000000  0.000000      1.000000
  0.000000  0.125000  0.000000      2.000000
  0.000000  0.250000  0.000000      2.000000
  0.000000  0.375000  0.000000      2.000000
  0.000000  0.500000  0.000000      1.000000
  0.000000  0.000000  0.200000      2.000000
  0.000000  0.125000  0.200000      4.000000
  0.000000  0.250000  0.200000      4.000000
  0.000000  0.375000  0.200000      4.000000
  0.000000  0.500000  0.200000      2.000000
  0.000000  0.000000  0.400000      2.000000
  0.000000  0.125000  0.400000      4.000000
  0.000000  0.250000  0.400000      4.000000
  0.000000  0.375000  0.400000      4.000000
  0.000000  0.500000  0.400000      2.000000
 
 Following cartesian coordinates:
            Coordinates               Weight
  0.000000  0.000000  0.000000      1.000000
  0.000000  0.018442  0.000000      2.000000
  0.000000  0.036885  0.000000      2.000000
  0.000000  0.055327  0.000000      2.000000
  0.000000  0.073770  0.000000      1.000000
  0.000000  0.000000  0.017238      2.000000
  0.000000  0.018442  0.017238      4.000000
  0.000000  0.036885  0.017238      4.000000
  0.000000  0.055327  0.017238      4.000000
  0.000000  0.073770  0.017238      2.000000
  0.000000  0.000000  0.034476      2.000000
  0.000000  0.018442  0.034476      4.000000
  0.000000  0.036885  0.034476      4.000000
  0.000000  0.055327  0.034476      4.000000
  0.000000  0.073770  0.034476      2.000000
 
 TETIRR: Found    108 inequivalent tetrahedra from      240


--------------------------------------------------------------------------------------------------------




 Dimension of arrays:
   k-points           NKPTS =     15   k-points in BZ     NKDIM =     15   number of bands    NBANDS=     88
   number of dos      NEDOS =    301   number of ions     NIONS =     24
   non local maximal  LDIM  =      6   non local SUM 2l+1 LMDIM =     18
   total plane-waves  NPLWV = 358400
   max r-space proj   IRMAX =   3093   max aug-charges    IRDMAX=  12081
   dimension x,y,z NGX =   140 NGY =   40 NGZ =   64
   dimension x,y,z NGXF=   280 NGYF=   80 NGZF=  128
   support grid    NGXF=   280 NGYF=   80 NGZF=  128
   ions per type =               8  16
   NGX,Y,Z   is equivalent  to a cutoff of   9.69,  9.81,  9.17 a.u.
   NGXF,Y,Z  is equivalent  to a cutoff of  19.39, 19.62, 18.34 a.u.

 SYSTEM =  unknown system                          
 POSCAR =  ba8 si16                                

 Startparameter for this run:
   NWRITE =      2    write-flag & timer
   PREC   = normal    normal or accurate (medium, high low for compatibility)
   ISTART =      0    job   : 0-new  1-cont  2-samecut
   ICHARG =      2    charge: 1-file 2-atom 10-const
   ISPIN  =      1    spin polarized calculation?
   LNONCOLLINEAR =      F non collinear calculations
   LSORBIT =      F    spin-orbit coupling
   INIWAV =      1    electr: 0-lowe 1-rand  2-diag
   LASPH  =      F    aspherical Exc in radial PAW
   METAGGA=      F    non-selfconsistent MetaGGA calc.

 Electronic Relaxation 1
   ENCUT  =  500.0 eV  36.75 Ry    6.06 a.u.  43.77 12.36 21.15*2*pi/ulx,y,z
   ENINI  =  500.0     initial cutoff
   ENAUG  =  351.2 eV  augmentation charge cutoff
   NELM   =    100;   NELMIN=  2; NELMDL= -5     # of ELM steps 
   EDIFF  = 0.1E-05   stopping-criterion for ELM
   LREAL  =      T    real-space projection
   NLSPLINE    = F    spline interpolate recip. space projectors
   LCOMPAT=      F    compatible to vasp.4.4
   GGA_COMPAT  = T    GGA compatible to vasp.4.4-vasp.4.6
   LMAXPAW     = -100 max onsite density
   LMAXMIX     =    2 max onsite mixed and CHGCAR
   VOSKOWN=      0    Vosko Wilk Nusair interpolation
   ROPT   =   -0.00050  -0.00050
 Ionic relaxation
   EDIFFG = -.1E-02   stopping-criterion for IOM
   NSW    =      0    number of steps for IOM
   NBLOCK =      1;   KBLOCK =      1    inner block; outer block 
   IBRION =     -1    ionic relax: 0-MD 1-quasi-New 2-CG
   NFREE  =      0    steps in history (QN), initial steepest desc. (CG)
   ISIF   =      2    stress and relaxation
   IWAVPR =     10    prediction:  0-non 1-charg 2-wave 3-comb
   ISYM   =      2    0-nonsym 1-usesym 2-fastsym
   LCORR  =      T    Harris-Foulkes like correction to forces

   POTIM  = 0.3000    time-step for ionic-motion
   TEIN   =    0.0    initial temperature
   TEBEG  =    0.0;   TEEND  =   0.0 temperature during run
   SMASS  =  -3.00    Nose mass-parameter (am)
   estimated Nose-frequenzy (Omega)   =  0.10E-29 period in steps =****** mass=  -0.132E-25a.u.
   SCALEE = 1.0000    scale energy and forces
   NPACO  =    256;   APACO  = 16.0  distance and # of slots for P.C.
   PSTRESS=    0.0 pullay stress

  Mass of Ions in am
   POMASS = 137.33 28.09
  Ionic Valenz
   ZVAL   =  10.00  4.00
  Atomic Wigner-Seitz radii
   RWIGS  =  -1.00 -1.00
  virtual crystal weights 
   VCA    =   1.00  1.00
   NELECT =     144.0000    total number of electrons
   NUPDOWN=      -1.0000    fix difference up-down

 DOS related values:
   EMIN   =  10.00;   EMAX   =-10.00  energy-range for DOS
   EFERMI =   0.00
   ISMEAR =    -5;   SIGMA  =   0.01  broadening in eV -4-tet -1-fermi 0-gaus

 Electronic relaxation 2 (details)
   IALGO  =     38    algorithm
   LDIAG  =      T    sub-space diagonalisation (order eigenvalues)
   LSUBROT=      F    optimize rotation matrix (better conditioning)
   TURBO    =      0    0=normal 1=particle mesh
   IRESTART =      0    0=no restart 2=restart with 2 vectors
   NREBOOT  =      0    no. of reboots
   NMIN     =      0    reboot dimension
   EREF     =   0.00    reference energy to select bands
   IMIX   =      4    mixing-type and parameters
     AMIX     =   0.40;   BMIX     =  1.00
     AMIX_MAG =   1.60;   BMIX_MAG =  1.00
     AMIN     =   0.10
     WC   =   100.;   INIMIX=   1;  MIXPRE=   1;  MAXMIX= -45

 Intra band minimization:
   WEIMIN = 0.0000     energy-eigenvalue tresh-hold
   EBREAK =  0.28E-08  absolut break condition
   DEPER  =   0.30     relativ break condition  

   TIME   =   0.40     timestep for ELM

  volume/ion in A,a.u.               =      78.67       530.88
  Fermi-wavevector in a.u.,A,eV,Ry     =   0.694264  1.311969  6.558046  0.482003
  Thomas-Fermi vector in A             =   1.776709
 
 Write flags
   LWAVE        =      T    write WAVECAR
   LDOWNSAMPLE  =      F    k-point downsampling of WAVECAR
   LCHARG       =      T    write CHGCAR
   LVTOT        =      F    write LOCPOT, total local potential
   LVHAR        =      F    write LOCPOT, Hartree potential only
   LELF         =      F    write electronic localiz. function (ELF)
   LORBIT       =      0    0 simple, 1 ext, 2 COOP (PROOUT), +10 PAW based schemes


 Dipole corrections
   LMONO  =      F    monopole corrections only (constant potential shift)
   LDIPOL =      F    correct potential (dipole corrections)
   IDIPOL =      0    1-x, 2-y, 3-z, 4-all directions 
   EPSILON=  1.0000000 bulk dielectric constant

 Exchange correlation treatment:
   GGA     =    --    GGA type
   LEXCH   =     8    internal setting for exchange type
   VOSKOWN=      0    Vosko Wilk Nusair interpolation
   LHFCALC =     F    Hartree Fock is set to
   LHFONE  =     F    Hartree Fock one center treatment
   AEXX    =    0.0000 exact exchange contribution

 Linear response parameters
   LEPSILON=     F    determine dielectric tensor
   LRPA    =     F    only Hartree local field effects (RPA)
   LNABLA  =     F    use nabla operator in PAW spheres
   LVEL    =     F    velocity operator in full k-point grid
   LINTERFAST=   F  fast interpolation
   KINTER  =     0    interpolate to denser k-point grid
   CSHIFT  =0.1000    complex shift for real part using Kramers Kronig
   OMEGAMAX=  -1.0    maximum frequency
   DEG_THRESHOLD= 0.2000000E-02 threshold for treating states as degnerate
   RTIME   =   -0.100 relaxation time in fs
  (WPLASMAI=    0.000 imaginary part of plasma frequency in eV, 0.658/RTIME)
   DFIELD  = 0.0000000 0.0000000 0.0000000 field for delta impulse in time
 
 Orbital magnetization related:
   ORBITALMAG=     F  switch on orbital magnetization
   LCHIMAG   =     F  perturbation theory with respect to B field
   DQ        =  0.001000  dq finite difference perturbation B field
   LLRAUG    =     F  two centre corrections for induced B field



--------------------------------------------------------------------------------------------------------


 Static calculation
 charge density and potential will be updated during run
 non-spin polarized calculation
 Variant of blocked Davidson
 Davidson routine will perform the subspace rotation
 perform sub-space diagonalisation
    after iterative eigenvector-optimisation
 modified Broyden-mixing scheme, WC =      100.0
 initial mixing is a Kerker type mixing with AMIX =  0.4000 and BMIX =      1.0000
 Hartree-type preconditioning will be used
 using additional bands           16
 real space projection scheme for non local part
 use partial core corrections
 calculate Harris-corrections to forces 
   (improved forces if not selfconsistent)
 use gradient corrections 
 use of overlap-Matrix (Vanderbilt PP)
 Fermi weights with tetrahedron method with Bloechl corrections


--------------------------------------------------------------------------------------------------------


  energy-cutoff  :      500.00
  volume of cell :     1888.05
      direct lattice vectors                 reciprocal lattice vectors
    24.009468079  0.000000000  0.000000000     0.041650236  0.000000000  0.000000000
     0.000000000  6.777849674  0.000000000     0.000000000  0.147539419  0.000000000
     0.000000000  0.000000000 11.602143288     0.000000000  0.000000000  0.086190971

  length of vectors
    24.009468079  6.777849674 11.602143288     0.041650236  0.147539419  0.086190971


 
 k-points in units of 2pi/SCALE and weight: k-density: 8.0                          
   0.00000000  0.00000000  0.00000000       0.025
   0.00000000  0.01844243  0.00000000       0.050
   0.00000000  0.03688485  0.00000000       0.050
   0.00000000  0.05532728  0.00000000       0.050
   0.00000000  0.07376971  0.00000000       0.025
   0.00000000  0.00000000  0.01723819       0.050
   0.00000000  0.01844243  0.01723819       0.100
   0.00000000  0.03688485  0.01723819       0.100
   0.00000000  0.05532728  0.01723819       0.100
   0.00000000  0.07376971  0.01723819       0.050
   0.00000000  0.00000000  0.03447639       0.050
   0.00000000  0.01844243  0.03447639       0.100
   0.00000000  0.03688485  0.03447639       0.100
   0.00000000  0.05532728  0.03447639       0.100
   0.00000000  0.07376971  0.03447639       0.050
 
 k-points in reciprocal lattice and weights: k-density: 8.0                          
   0.00000000  0.00000000  0.00000000       0.025
   0.00000000  0.12500000  0.00000000       0.050
   0.00000000  0.25000000  0.00000000       0.050
   0.00000000  0.37500000  0.00000000       0.050
   0.00000000  0.50000000  0.00000000       0.025
   0.00000000  0.00000000  0.20000000       0.050
   0.00000000  0.12500000  0.20000000       0.100
   0.00000000  0.25000000  0.20000000       0.100
   0.00000000  0.37500000  0.20000000       0.100
   0.00000000  0.50000000  0.20000000       0.050
   0.00000000  0.00000000  0.40000000       0.050
   0.00000000  0.12500000  0.40000000       0.100
   0.00000000  0.25000000  0.40000000       0.100
   0.00000000  0.37500000  0.40000000       0.100
   0.00000000  0.50000000  0.40000000       0.050
 
 position of ions in fractional coordinates (direct lattice) 
   0.00569361  0.25000000  0.70586321
   0.37163537  0.75000002  0.29413679
   0.18192962  0.75000002  0.18694874
   0.19539936  0.25000000  0.81305124
   0.05978014  0.75000002  0.91888861
   0.31754884  0.25000000  0.08111137
   0.12784309  0.25000000  0.39830268
   0.24948589  0.75000002  0.60169736
   0.07289913  0.07279732  0.14583801
   0.30442985  0.92720267  0.85416197
   0.11472410  0.92778796  0.65864602
   0.26260488  0.07221203  0.34135398
   0.30442985  0.57279733  0.85416197
   0.07289913  0.42720267  0.14583801
   0.26260488  0.42778796  0.34135398
   0.11472410  0.57221204  0.65864602
   0.03110981  0.75000002  0.59965824
   0.34621916  0.25000000  0.40034176
   0.15651343  0.25000000  0.08576917
   0.22081556  0.75000002  0.91423081
   0.07418398  0.25000000  0.96420014
   0.30314500  0.75000002  0.03579987
   0.11343925  0.75000002  0.47678584
   0.26388973  0.25000000  0.52321408
 
 position of ions in cartesian coordinates  (Angst):
   0.13670066  1.69446242  8.18952612
   8.92276745  5.08338737  3.41261717
   4.36803341  5.08338737  2.16900609
   4.69143467  1.69446242  9.43313696
   1.43528938  5.08338737 10.66107735
   7.62417870  1.69446242  0.94106570
   3.06944466  1.69446242  4.62116478
   5.99002342  5.08338737  6.98097899
   1.75026941  0.49340929  1.69203354
   7.30919867  6.28444033  9.91010951
   2.75446463  6.28840734  7.64170553
   6.30500345  0.48944228  3.96043775
   7.30919867  3.88233418  9.91010951
   1.75026941  2.89551549  1.69203354
   6.30500345  2.89948250  3.96043775
   2.75446463  3.87836717  7.64170553
   0.74692994  5.08338737  6.95732084
   8.31253796  1.69446242  4.64482245
   3.75780416  1.69446242  0.99510617
   5.30166416  5.08338737 10.60703688
   1.78111780  1.69446242 11.18678821
   7.27835016  5.08338737  0.41535526
   2.72361612  5.08338737  5.53173766
   6.33585195  1.69446242  6.07040468
 


--------------------------------------------------------------------------------------------------------


 k-point  1 :   0.0000 0.0000 0.0000  plane waves:   47989
 k-point  2 :   0.0000 0.1250 0.0000  plane waves:   47929
 k-point  3 :   0.0000 0.2500 0.0000  plane waves:   47901
 k-point  4 :   0.0000 0.3750 0.0000  plane waves:   47910
 k-point  5 :   0.0000 0.5000 0.0000  plane waves:   47868
 k-point  6 :   0.0000 0.0000 0.2000  plane waves:   48006
 k-point  7 :   0.0000 0.1250 0.2000  plane waves:   47967
 k-point  8 :   0.0000 0.2500 0.2000  plane waves:   47907
 k-point  9 :   0.0000 0.3750 0.2000  plane waves:   47884
 k-point 10 :   0.0000 0.5000 0.2000  plane waves:   47884
 k-point 11 :   0.0000 0.0000 0.4000  plane waves:   47922
 k-point 12 :   0.0000 0.1250 0.4000  plane waves:   47954
 k-point 13 :   0.0000 0.2500 0.4000  plane waves:   47967
 k-point 14 :   0.0000 0.3750 0.4000  plane waves:   47928
 k-point 15 :   0.0000 0.5000 0.4000  plane waves:   47890

 maximum and minimum number of plane-waves per node :     12077    11868

 maximum number of plane-waves:     48006
 maximum index in each direction: 
   IXMAX=   43   IYMAX=   12   IZMAX=   21
   IXMIN=  -43   IYMIN=  -12   IZMIN=  -21


 real space projection operators:
  total allocation   :       4526.00 KBytes
  max/ min on nodes  :       1132.28       1130.72


 parallel 3D FFT for wavefunctions:
    minimum data exchange during FFTs selected (reduces bandwidth)
 parallel 3D FFT for charge:
    minimum data exchange during FFTs selected (reduces bandwidth)


 total amount of memory used by VASP MPI-rank0    79348. kBytes
=======================================================================

   base      :      30000. kBytes
   nonlr-proj:       2642. kBytes
   fftplans  :       5898. kBytes
   grid      :       8824. kBytes
   one-center:         93. kBytes
   wavefun   :      31891. kBytes
 
     INWAV:  cpu time    0.0000: real time    0.0000
 Broyden mixing: mesh for mixing (old mesh)
   NGX = 87   NGY = 25   NGZ = 43
  (NGX  =280   NGY  = 80   NGZ  =128)
  gives a total of  93525 points

 initial charge density was supplied:
 charge density of overlapping atoms calculated
 number of electron     144.0000000 magnetization 
 keeping initial charge density in first step


--------------------------------------------------------------------------------------------------------


 Maximum index for non-local projection operator          745
 Maximum index for augmentation-charges          601 (set IRDMAX)


--------------------------------------------------------------------------------------------------------


 First call to EWALD:  gamma=   0.143
 Maximum number of real-space cells 2x 5x 3
 Maximum number of reciprocal cells 5x 2x 3

    FEWALD:  cpu time    0.0061: real time    0.0061


--------------------------------------- Iteration      1(   1)  ---------------------------------------


    POTLOK:  cpu time    0.0666: real time    0.1124
    SETDIJ:  cpu time    0.0024: real time    0.0027
     EDDAV:  cpu time    2.6632: real time    2.6770
 BZINTS: Fermi energy:  7.092517;144.000000 electrons
         Band energy:-463.493012;  BLOECHL correction: -0.025236
       DOS:  cpu time    0.0106: real time    0.0109
    --------------------------------------------
      LOOP:  cpu time    2.7428: real time    2.8031

 eigenvalue-minimisations  :  2768
 total energy-change (2. order) : 0.1195152E+04  (-0.4788808E+04)
 number of electron     144.0000000 magnetization 
 augmentation part      144.0000000 magnetization 

 Free energy of the ion-electron system (eV)
  ---------------------------------------------------
  alpha Z        PSCENC =       170.45750602
  Ewald energy   TEWEN  =     12492.90812124
  -Hartree energ DENC   =    -18600.28497658
  -exchange      EXHF   =         0.00000000
  -V(xc)+E(xc)   XCENC  =        43.04502037
  PAW double counting   =      3692.15173346    -3390.49189382
  entropy T*S    EENTRO =         0.00000000
  eigenvalues    EBANDS =      -463.49301233
  atomic energy  EATOM  =      7250.85976021
  Solvation  Ediel_sol  =         0.00000000
  ---------------------------------------------------
  free energy    TOTEN  =      1195.15225857 eV

  energy without entropy =     1195.15225857  energy(sigma->0) =     1195.15225857


--------------------------------------------------------------------------------------------------------




--------------------------------------- Iteration      1(   2)  ---------------------------------------


     EDDAV:  cpu time    3.1646: real time    3.1831
 BZINTS: Fermi energy: -1.946350;144.000000 electrons
         Band energy:***********;  BLOECHL correction:  0.000000
       DOS:  cpu time    0.0024: real time    0.0024
    --------------------------------------------
      LOOP:  cpu time    3.1670: real time    3.1855

 eigenvalue-minimisations  :  3760
 total energy-change (2. order) :-0.1131886E+04  (-0.1101005E+04)
 number of electron     144.0000000 magnetization 
 augmentation part      144.0000000 magnetization 

 Free energy of the ion-electron system (eV)
  ---------------------------------------------------
  alpha Z        PSCENC =       170.45750602
  Ewald energy   TEWEN  =     12492.90812124
  -Hartree energ DENC   =    -18600.28497658
  -exchange      EXHF   =         0.00000000
  -V(xc)+E(xc)   XCENC  =        43.04502037
  PAW double counting   =      3692.15173346    -3390.49189382
  entropy T*S    EENTRO =         0.00000000
  eigenvalues    EBANDS =     -1595.37858647
  atomic energy  EATOM  =      7250.85976021
  Solvation  Ediel_sol  =         0.00000000
  ---------------------------------------------------
  free energy    TOTEN  =        63.26668443 eV

  energy without entropy =       63.26668443  energy(sigma->0) =       63.26668443


--------------------------------------------------------------------------------------------------------




--------------------------------------- Iteration      1(   3)  ---------------------------------------


     EDDAV:  cpu time    2.9645: real time    2.9823
 BZINTS: Fermi energy: -3.380493;144.000000 electrons
         Band energy:***********;  BLOECHL correction:  0.000000
       DOS:  cpu time    0.0020: real time    0.0020
    --------------------------------------------
      LOOP:  cpu time    2.9665: real time    2.9843

 eigenvalue-minimisations  :  3232
 total energy-change (2. order) :-0.1723446E+03  (-0.1715942E+03)
 number of electron     144.0000000 magnetization 
 augmentation part      144.0000000 magnetization 

 Free energy of the ion-electron system (eV)
  ---------------------------------------------------
  alpha Z        PSCENC =       170.45750602
  Ewald energy   TEWEN  =     12492.90812124
  -Hartree energ DENC   =    -18600.28497658
  -exchange      EXHF   =         0.00000000
  -V(xc)+E(xc)   XCENC  =        43.04502037
  PAW double counting   =      3692.15173346    -3390.49189382
  entropy T*S    EENTRO =         0.00000000
  eigenvalues    EBANDS =     -1767.72314339
  atomic energy  EATOM  =      7250.85976021
  Solvation  Ediel_sol  =         0.00000000
  ---------------------------------------------------
  free energy    TOTEN  =      -109.07787249 eV

  energy without entropy =     -109.07787249  energy(sigma->0) =     -109.07787249


--------------------------------------------------------------------------------------------------------




--------------------------------------- Iteration      1(   4)  ---------------------------------------


     EDDAV:  cpu time    3.4663: real time    3.4855
 BZINTS: Fermi energy: -3.421067;144.000000 electrons
         Band energy:***********;  BLOECHL correction:  0.000000
       DOS:  cpu time    0.0031: real time    0.0031
    --------------------------------------------
      LOOP:  cpu time    3.4694: real time    3.4886

 eigenvalue-minimisations  :  3760
 total energy-change (2. order) :-0.6071656E+01  (-0.6055333E+01)
 number of electron     144.0000000 magnetization 
 augmentation part      144.0000000 magnetization 

 Free energy of the ion-electron system (eV)
  ---------------------------------------------------
  alpha Z        PSCENC =       170.45750602
  Ewald energy   TEWEN  =     12492.90812124
  -Hartree energ DENC   =    -18600.28497658
  -exchange      EXHF   =         0.00000000
  -V(xc)+E(xc)   XCENC  =        43.04502037
  PAW double counting   =      3692.15173346    -3390.49189382
  entropy T*S    EENTRO =         0.00000000
  eigenvalues    EBANDS =     -1773.79479908
  atomic energy  EATOM  =      7250.85976021
  Solvation  Ediel_sol  =         0.00000000
  ---------------------------------------------------
  free energy    TOTEN  =      -115.14952818 eV

  energy without entropy =     -115.14952818  energy(sigma->0) =     -115.14952818


--------------------------------------------------------------------------------------------------------




--------------------------------------- Iteration      1(   5)  ---------------------------------------


     EDDAV:  cpu time    3.5886: real time    3.6086
 BZINTS: Fermi energy: -3.415072;144.000000 electrons
         Band energy:***********;  BLOECHL correction:  0.000000
       DOS:  cpu time    0.0020: real time    0.0020
    CHARGE:  cpu time    0.1583: real time    0.1586
    MIXING:  cpu time    0.0053: real time    0.0055
    --------------------------------------------
      LOOP:  cpu time    3.7542: real time    3.7747

 eigenvalue-minimisations  :  4200
 total energy-change (2. order) :-0.2854574E+00  (-0.2853778E+00)
 number of electron     143.9999992 magnetization 
 augmentation part      -17.5694237 magnetization 

 Broyden mixing:
  rms(total) = 0.90838E+00    rms(broyden)= 0.90837E+00
  rms(prec ) = 0.11971E+01
  weight for this iteration     100.00

 Free energy of the ion-electron system (eV)
  ---------------------------------------------------
  alpha Z        PSCENC =       170.45750602
  Ewald energy   TEWEN  =     12492.90812124
  -Hartree energ DENC   =    -18600.28497658
  -exchange      EXHF   =         0.00000000
  -V(xc)+E(xc)   XCENC  =        43.04502037
  PAW double counting   =      3692.15173346    -3390.49189382
  entropy T*S    EENTRO =         0.00000000
  eigenvalues    EBANDS =     -1774.08025645
  atomic energy  EATOM  =      7250.85976021
  Solvation  Ediel_sol  =         0.00000000
  ---------------------------------------------------
  free energy    TOTEN  =      -115.43498555 eV

  energy without entropy =     -115.43498555  energy(sigma->0) =     -115.43498555


--------------------------------------------------------------------------------------------------------




--------------------------------------- Iteration      1(   6)  ---------------------------------------


    POTLOK:  cpu time    0.0583: real time    0.0696
    SETDIJ:  cpu time    0.0017: real time    0.0017
     EDDAV:  cpu time    2.9460: real time    2.9530
 BZINTS: Fermi energy: -2.243648;144.000000 electrons
         Band energy:***********;  BLOECHL correction:  0.000000
       DOS:  cpu time    0.0024: real time    0.0024
    CHARGE:  cpu time    0.1627: real time    0.1631
    MIXING:  cpu time    0.0064: real time    0.0065
    --------------------------------------------
      LOOP:  cpu time    3.1775: real time    3.1962

 eigenvalue-minimisations  :  3000
 total energy-change (2. order) : 0.8304369E+01  (-0.2042877E+01)
 number of electron     143.9999991 magnetization 
 augmentation part      -17.4648082 magnetization 

 Broyden mixing:
  rms(total) = 0.46299E+00    rms(broyden)= 0.46299E+00
  rms(prec ) = 0.58743E+00
  weight for this iteration     100.00

 eigenvalues of (default mixing * dielectric matrix)
  average eigenvalue GAMMA=   1.5331
  1.5331

 Free energy of the ion-electron system (eV)
  ---------------------------------------------------
  alpha Z        PSCENC =       170.45750602
  Ewald energy   TEWEN  =     12492.90812124
  -Hartree energ DENC   =    -18700.51869674
  -exchange      EXHF   =         0.00000000
  -V(xc)+E(xc)   XCENC  =        45.75315924
  PAW double counting   =      3732.14560782    -3437.65261444
  entropy T*S    EENTRO =         0.00000000
  eigenvalues    EBANDS =     -1661.08345991
  atomic energy  EATOM  =      7250.85976021
  Solvation  Ediel_sol  =         0.00000000
  ---------------------------------------------------
  free energy    TOTEN  =      -107.13061656 eV

  energy without entropy =     -107.13061656  energy(sigma->0) =     -107.13061656


--------------------------------------------------------------------------------------------------------




--------------------------------------- Iteration      1(   7)  ---------------------------------------


    POTLOK:  cpu time    0.0579: real time    0.0699
    SETDIJ:  cpu time    0.0023: real time    0.0023
     EDDAV:  cpu time    3.2506: real time    3.2584
 BZINTS: Fermi energy: -1.358163;144.000000 electrons
         Band energy:***********;  BLOECHL correction:  0.000000
       DOS:  cpu time    0.0024: real time    0.0024
    CHARGE:  cpu time    0.1574: real time    0.1577
    MIXING:  cpu time    0.0048: real time    0.0051
    --------------------------------------------
      LOOP:  cpu time    3.4754: real time    3.4957

 eigenvalue-minimisations  :  3480
 total energy-change (2. order) : 0.1380585E+01  (-0.9662053E+00)
 number of electron     143.9999991 magnetization 
 augmentation part      -17.5497857 magnetization 

 Broyden mixing:
  rms(total) = 0.24438E+00    rms(broyden)= 0.24438E+00
  rms(prec ) = 0.29684E+00
  weight for this iteration     100.00

 eigenvalues of (default mixing * dielectric matrix)
  average eigenvalue GAMMA=   1.8336
  1.8336  1.8336

 Free energy of the ion-electron system (eV)
  ---------------------------------------------------
  alpha Z        PSCENC =       170.45750602
  Ewald energy   TEWEN  =     12492.90812124
  -Hartree energ DENC   =    -18782.01114334
  -exchange      EXHF   =         0.00000000
  -V(xc)+E(xc)   XCENC  =        48.00934282
  PAW double counting   =      3781.53549347    -3492.88394088
  entropy T*S    EENTRO =         0.00000000
  eigenvalues    EBANDS =     -1574.62517147
  atomic energy  EATOM  =      7250.85976021
  Solvation  Ediel_sol  =         0.00000000
  ---------------------------------------------------
  free energy    TOTEN  =      -105.75003193 eV

  energy without entropy =     -105.75003193  energy(sigma->0) =     -105.75003193


--------------------------------------------------------------------------------------------------------




--------------------------------------- Iteration      1(   8)  ---------------------------------------


    POTLOK:  cpu time    0.0606: real time    0.0720
    SETDIJ:  cpu time    0.0016: real time    0.0016
     EDDAV:  cpu time    2.9032: real time    2.9101
 BZINTS: Fermi energy: -1.233593;144.000000 electrons
         Band energy:***********;  BLOECHL correction:  0.000000
       DOS:  cpu time    0.0019: real time    0.0019
    CHARGE:  cpu time    0.1494: real time    0.1498
    MIXING:  cpu time    0.0047: real time    0.0052
    --------------------------------------------
      LOOP:  cpu time    3.1214: real time    3.1405

 eigenvalue-minimisations  :  3112
 total energy-change (2. order) : 0.2378159E+00  (-0.3476352E+00)
 number of electron     143.9999991 magnetization 
 augmentation part      -17.6730199 magnetization 

 Broyden mixing:
  rms(total) = 0.11527E+00    rms(broyden)= 0.11527E+00
  rms(prec ) = 0.19155E+00
  weight for this iteration     100.00

 eigenvalues of (default mixing * dielectric matrix)
  average eigenvalue GAMMA=   1.6719
  2.6050  1.2054  1.2054

 Free energy of the ion-electron system (eV)
  ---------------------------------------------------
  alpha Z        PSCENC =       170.45750602
  Ewald energy   TEWEN  =     12492.90812124
  -Hartree energ DENC   =    -18819.26897837
  -exchange      EXHF   =         0.00000000
  -V(xc)+E(xc)   XCENC  =        48.97110695
  PAW double counting   =      3830.97250511    -3544.15970464
  entropy T*S    EENTRO =         0.00000000
  eigenvalues    EBANDS =     -1536.25253258
  atomic energy  EATOM  =      7250.85976021
  Solvation  Ediel_sol  =         0.00000000
  ---------------------------------------------------
  free energy    TOTEN  =      -105.51221605 eV

  energy without entropy =     -105.51221605  energy(sigma->0) =     -105.51221605


--------------------------------------------------------------------------------------------------------




--------------------------------------- Iteration      1(   9)  ---------------------------------------


    POTLOK:  cpu time    0.0660: real time    0.0769
    SETDIJ:  cpu time    0.0016: real time    0.0016
     EDDAV:  cpu time    2.8522: real time    2.8589
 BZINTS: Fermi energy: -0.810931;144.000000 electrons
         Band energy:***********;  BLOECHL correction:  0.000000
       DOS:  cpu time    0.0020: real time    0.0020
    CHARGE:  cpu time    0.1519: real time    0.1522
    MIXING:  cpu time    0.0052: real time    0.0053
    --------------------------------------------
      LOOP:  cpu time    3.0789: real time    3.0970

 eigenvalue-minimisations  :  3112
 total energy-change (2. order) : 0.2799996E+00  (-0.1228437E+00)
 number of electron     143.9999991 magnetization 
 augmentation part      -17.6509715 magnetization 

 Broyden mixing:
  rms(total) = 0.58533E-01    rms(broyden)= 0.58532E-01
  rms(prec ) = 0.82431E-01
  weight for this iteration     100.00

 eigenvalues of (default mixing * dielectric matrix)
  average eigenvalue GAMMA=   1.4105
  2.5222  1.2041  1.2041  0.7115

 Free energy of the ion-electron system (eV)
  ---------------------------------------------------
  alpha Z        PSCENC =       170.45750602
  Ewald energy   TEWEN  =     12492.90812124
  -Hartree energ DENC   =    -18862.96712230
  -exchange      EXHF   =         0.00000000
  -V(xc)+E(xc)   XCENC  =        49.91593590
  PAW double counting   =      3843.10001890    -3557.67638953
  entropy T*S    EENTRO =         0.00000000
  eigenvalues    EBANDS =     -1491.83004691
  atomic energy  EATOM  =      7250.85976021
  Solvation  Ediel_sol  =         0.00000000
  ---------------------------------------------------
  free energy    TOTEN  =      -105.23221647 eV

  energy without entropy =     -105.23221647  energy(sigma->0) =     -105.23221647


--------------------------------------------------------------------------------------------------------




--------------------------------------- Iteration      1(  10)  ---------------------------------------


    POTLOK:  cpu time    0.0746: real time    0.0861
    SETDIJ:  cpu time    0.0015: real time    0.0015
     EDDAV:  cpu time    3.1446: real time    3.1521
 BZINTS: Fermi energy: -0.764990;144.000000 electrons
         Band energy:***********;  BLOECHL correction:  0.000000
       DOS:  cpu time    0.0019: real time    0.0019
    CHARGE:  cpu time    0.1511: real time    0.1515
    MIXING:  cpu time    0.0079: real time    0.0079
    --------------------------------------------
      LOOP:  cpu time    3.3816: real time    3.4010

 eigenvalue-minimisations  :  3480
 total energy-change (2. order) :-0.1812204E-01  (-0.2270392E-01)
 number of electron     143.9999991 magnetization 
 augmentation part      -17.6741540 magnetization 

 Broyden mixing:
  rms(total) = 0.41649E-01    rms(broyden)= 0.41649E-01
  rms(prec ) = 0.63250E-01
  weight for this iteration     100.00

 eigenvalues of (default mixing * dielectric matrix)
  average eigenvalue GAMMA=   1.6027
  2.4912  2.4912  0.9735  0.9735  1.0840

 Free energy of the ion-electron system (eV)
  ---------------------------------------------------
  alpha Z        PSCENC =       170.45750602
  Ewald energy   TEWEN  =     12492.90812124
  -Hartree energ DENC   =    -18871.69239782
  -exchange      EXHF   =         0.00000000
  -V(xc)+E(xc)   XCENC  =        49.89207681
  PAW double counting   =      3837.96253675    -3552.13986024
  entropy T*S    EENTRO =         0.00000000
  eigenvalues    EBANDS =     -1483.49808149
  atomic energy  EATOM  =      7250.85976021
  Solvation  Ediel_sol  =         0.00000000
  ---------------------------------------------------
  free energy    TOTEN  =      -105.25033851 eV

  energy without entropy =     -105.25033851  energy(sigma->0) =     -105.25033851


--------------------------------------------------------------------------------------------------------




--------------------------------------- Iteration      1(  11)  ---------------------------------------


    POTLOK:  cpu time    0.0830: real time    0.0936
    SETDIJ:  cpu time    0.0022: real time    0.0022
     EDDAV:  cpu time    2.9894: real time    2.9964
 BZINTS: Fermi energy: -0.629705;144.000000 electrons
         Band energy:***********;  BLOECHL correction:  0.000000
       DOS:  cpu time    0.0020: real time    0.0020
    CHARGE:  cpu time    0.1481: real time    0.1485
    MIXING:  cpu time    0.0056: real time    0.0057
    --------------------------------------------
      LOOP:  cpu time    3.2303: real time    3.2484

 eigenvalue-minimisations  :  3104
 total energy-change (2. order) : 0.9096910E-02  (-0.6588296E-02)
 number of electron     143.9999991 magnetization 
 augmentation part      -17.6771773 magnetization 

 Broyden mixing:
  rms(total) = 0.16909E-01    rms(broyden)= 0.16909E-01
  rms(prec ) = 0.33647E-01
  weight for this iteration     100.00

 eigenvalues of (default mixing * dielectric matrix)
  average eigenvalue GAMMA=   1.6197
  2.8016  2.8016  1.2561  0.9799  0.9799  0.8990

 Free energy of the ion-electron system (eV)
  ---------------------------------------------------
  alpha Z        PSCENC =       170.45750602
  Ewald energy   TEWEN  =     12492.90812124
  -Hartree energ DENC   =    -18892.17038056
  -exchange      EXHF   =         0.00000000
  -V(xc)+E(xc)   XCENC  =        50.07845133
  PAW double counting   =      3838.64665419    -3552.50882982
  entropy T*S    EENTRO =         0.00000000
  eigenvalues    EBANDS =     -1463.51252422
  atomic energy  EATOM  =      7250.85976021
  Solvation  Ediel_sol  =         0.00000000
  ---------------------------------------------------
  free energy    TOTEN  =      -105.24124160 eV

  energy without entropy =     -105.24124160  energy(sigma->0) =     -105.24124160


--------------------------------------------------------------------------------------------------------




--------------------------------------- Iteration      1(  12)  ---------------------------------------


    POTLOK:  cpu time    0.0652: real time    0.0770
    SETDIJ:  cpu time    0.0016: real time    0.0016
     EDDAV:  cpu time    2.9204: real time    2.9274
 BZINTS: Fermi energy: -0.550920;144.000000 electrons
         Band energy:***********;  BLOECHL correction:  0.000000
       DOS:  cpu time    0.0019: real time    0.0019
    CHARGE:  cpu time    0.1481: real time    0.1484
    MIXING:  cpu time    0.0053: real time    0.0054
    --------------------------------------------
      LOOP:  cpu time    3.1426: real time    3.1617

 eigenvalue-minimisations  :  3072
 total energy-change (2. order) :-0.4630790E-02  (-0.1601777E-02)
 number of electron     143.9999991 magnetization 
 augmentation part      -17.6710371 magnetization 

 Broyden mixing:
  rms(total) = 0.12553E-01    rms(broyden)= 0.12553E-01
  rms(prec ) = 0.21706E-01
  weight for this iteration     100.00

 eigenvalues of (default mixing * dielectric matrix)
  average eigenvalue GAMMA=   1.7850
  3.8582  2.5699  1.9993  1.1258  1.1258  0.9081  0.9081

 Free energy of the ion-electron system (eV)
  ---------------------------------------------------
  alpha Z        PSCENC =       170.45750602
  Ewald energy   TEWEN  =     12492.90812124
  -Hartree energ DENC   =    -18905.37229021
  -exchange      EXHF   =         0.00000000
  -V(xc)+E(xc)   XCENC  =        50.15408637
  PAW double counting   =      3836.36407205    -3550.10222470
  entropy T*S    EENTRO =         0.00000000
  eigenvalues    EBANDS =     -1450.51490338
  atomic energy  EATOM  =      7250.85976021
  Solvation  Ediel_sol  =         0.00000000
  ---------------------------------------------------
  free energy    TOTEN  =      -105.24587239 eV

  energy without entropy =     -105.24587239  energy(sigma->0) =     -105.24587239


--------------------------------------------------------------------------------------------------------




--------------------------------------- Iteration      1(  13)  ---------------------------------------


    POTLOK:  cpu time    0.0612: real time    0.0721
    SETDIJ:  cpu time    0.0016: real time    0.0016
     EDDAV:  cpu time    3.0769: real time    3.0841
 BZINTS: Fermi energy: -0.489808;144.000000 electrons
         Band energy:***********;  BLOECHL correction:  0.000000
       DOS:  cpu time    0.0020: real time    0.0020
    CHARGE:  cpu time    0.1605: real time    0.1609
    MIXING:  cpu time    0.0065: real time    0.0066
    --------------------------------------------
      LOOP:  cpu time    3.3087: real time    3.3273

 eigenvalue-minimisations  :  3224
 total energy-change (2. order) :-0.1016119E-01  (-0.1037203E-02)
 number of electron     143.9999991 magnetization 
 augmentation part      -17.6730977 magnetization 

 Broyden mixing:
  rms(total) = 0.64574E-02    rms(broyden)= 0.64574E-02
  rms(prec ) = 0.10844E-01
  weight for this iteration     100.00

 eigenvalues of (default mixing * dielectric matrix)
  average eigenvalue GAMMA=   1.8297
  4.2051  2.9149  2.3749  1.2312  1.2312  0.8949  0.8927  0.8927

 Free energy of the ion-electron system (eV)
  ---------------------------------------------------
  alpha Z        PSCENC =       170.45750602
  Ewald energy   TEWEN  =     12492.90812124
  -Hartree energ DENC   =    -18916.66793660
  -exchange      EXHF   =         0.00000000
  -V(xc)+E(xc)   XCENC  =        50.20826655
  PAW double counting   =      3834.50806613    -3548.34612522
  entropy T*S    EENTRO =         0.00000000
  eigenvalues    EBANDS =     -1439.18369191
  atomic energy  EATOM  =      7250.85976021
  Solvation  Ediel_sol  =         0.00000000
  ---------------------------------------------------
  free energy    TOTEN  =      -105.25603358 eV

  energy without entropy =     -105.25603358  energy(sigma->0) =     -105.25603358


--------------------------------------------------------------------------------------------------------




--------------------------------------- Iteration      1(  14)  ---------------------------------------


    POTLOK:  cpu time    0.0657: real time    0.0786
    SETDIJ:  cpu time    0.0016: real time    0.0016
     EDDAV:  cpu time    3.0441: real time    3.0513
 BZINTS: Fermi energy: -0.387861;144.000000 electrons
         Band energy:***********;  BLOECHL correction:  0.000000
       DOS:  cpu time    0.0024: real time    0.0024
    CHARGE:  cpu time    0.1513: real time    0.1517
    MIXING:  cpu time    0.0064: real time    0.0064
    --------------------------------------------
      LOOP:  cpu time    3.2715: real time    3.2920

 eigenvalue-minimisations  :  3136
 total energy-change (2. order) :-0.5777787E-02  (-0.3060823E-03)
 number of electron     143.9999991 magnetization 
 augmentation part      -17.6736868 magnetization 

 Broyden mixing:
  rms(total) = 0.55179E-02    rms(broyden)= 0.55179E-02
  rms(prec ) = 0.88342E-02
  weight for this iteration     100.00

 eigenvalues of (default mixing * dielectric matrix)
  average eigenvalue GAMMA=   1.8821
  4.6477  3.1822  2.0228  1.8476  1.3754  0.9172  0.9172  1.0142  1.0142

 Free energy of the ion-electron system (eV)
  ---------------------------------------------------
  alpha Z        PSCENC =       170.45750602
  Ewald energy   TEWEN  =     12492.90812124
  -Hartree energ DENC   =    -18920.10221438
  -exchange      EXHF   =         0.00000000
  -V(xc)+E(xc)   XCENC  =        50.20817029
  PAW double counting   =      3833.64438973    -3547.49395737
  entropy T*S    EENTRO =         0.00000000
  eigenvalues    EBANDS =     -1435.74358711
  atomic energy  EATOM  =      7250.85976021
  Solvation  Ediel_sol  =         0.00000000
  ---------------------------------------------------
  free energy    TOTEN  =      -105.26181137 eV

  energy without entropy =     -105.26181137  energy(sigma->0) =     -105.26181137


--------------------------------------------------------------------------------------------------------




--------------------------------------- Iteration      1(  15)  ---------------------------------------


    POTLOK:  cpu time    0.0589: real time    0.0699
    SETDIJ:  cpu time    0.0030: real time    0.0030
     EDDAV:  cpu time    2.7151: real time    2.7215
 BZINTS: Fermi energy: -0.379655;144.000000 electrons
         Band energy:***********;  BLOECHL correction:  0.000000
       DOS:  cpu time    0.0023: real time    0.0023
    CHARGE:  cpu time    0.1531: real time    0.1535
    MIXING:  cpu time    0.0112: real time    0.0112
    --------------------------------------------
      LOOP:  cpu time    2.9435: real time    2.9614

 eigenvalue-minimisations  :  3024
 total energy-change (2. order) :-0.2308234E-02  (-0.1943459E-03)
 number of electron     143.9999991 magnetization 
 augmentation part      -17.6753527 magnetization 

 Broyden mixing:
  rms(total) = 0.20176E-02    rms(broyden)= 0.20176E-02
  rms(prec ) = 0.38259E-02
  weight for this iteration     100.00

 eigenvalues of (default mixing * dielectric matrix)
  average eigenvalue GAMMA=   1.9695
  5.4284  3.6652  2.4605  1.6918  0.9148  0.9148  1.2972  1.2972  1.0123  1.0123

 Free energy of the ion-electron system (eV)
  ---------------------------------------------------
  alpha Z        PSCENC =       170.45750602
  Ewald energy   TEWEN  =     12492.90812124
  -Hartree energ DENC   =    -18921.78138082
  -exchange      EXHF   =         0.00000000
  -V(xc)+E(xc)   XCENC  =        50.20290839
  PAW double counting   =      3834.15288702    -3547.97235682
  entropy T*S    EENTRO =         0.00000000
  eigenvalues    EBANDS =     -1434.09156485
  atomic energy  EATOM  =      7250.85976021
  Solvation  Ediel_sol  =         0.00000000
  ---------------------------------------------------
  free energy    TOTEN  =      -105.26411960 eV

  energy without entropy =     -105.26411960  energy(sigma->0) =     -105.26411960


--------------------------------------------------------------------------------------------------------




--------------------------------------- Iteration      1(  16)  ---------------------------------------


    POTLOK:  cpu time    0.0815: real time    0.0919
    SETDIJ:  cpu time    0.0021: real time    0.0021
     EDDAV:  cpu time    2.7967: real time    2.8033
 BZINTS: Fermi energy: -0.374933;144.000000 electrons
         Band energy:***********;  BLOECHL correction:  0.000000
       DOS:  cpu time    0.0040: real time    0.0040
    CHARGE:  cpu time    0.1579: real time    0.1583
    MIXING:  cpu time    0.0083: real time    0.0083
    --------------------------------------------
      LOOP:  cpu time    3.0505: real time    3.0679

 eigenvalue-minimisations  :  3128
 total energy-change (2. order) :-0.1034456E-02  (-0.6358915E-04)
 number of electron     143.9999991 magnetization 
 augmentation part      -17.6753847 magnetization 

 Broyden mixing:
  rms(total) = 0.14784E-02    rms(broyden)= 0.14784E-02
  rms(prec ) = 0.26061E-02
  weight for this iteration     100.00

 eigenvalues of (default mixing * dielectric matrix)
  average eigenvalue GAMMA=   2.0293
  5.7508  4.0183  2.4432  1.8669  1.8669  0.9185  0.9185  1.2825  1.2825  0.9871
  0.9871

 Free energy of the ion-electron system (eV)
  ---------------------------------------------------
  alpha Z        PSCENC =       170.45750602
  Ewald energy   TEWEN  =     12492.90812124
  -Hartree energ DENC   =    -18923.06528160
  -exchange      EXHF   =         0.00000000
  -V(xc)+E(xc)   XCENC  =        50.20016881
  PAW double counting   =      3834.29087088    -3548.12006473
  entropy T*S    EENTRO =         0.00000000
  eigenvalues    EBANDS =     -1432.79623489
  atomic energy  EATOM  =      7250.85976021
  Solvation  Ediel_sol  =         0.00000000
  ---------------------------------------------------
  free energy    TOTEN  =      -105.26515406 eV

  energy without entropy =     -105.26515406  energy(sigma->0) =     -105.26515406


--------------------------------------------------------------------------------------------------------




--------------------------------------- Iteration      1(  17)  ---------------------------------------


    POTLOK:  cpu time    0.0932: real time    0.1043
    SETDIJ:  cpu time    0.0016: real time    0.0016
     EDDAV:  cpu time    2.9840: real time    2.9911
 BZINTS: Fermi energy: -0.372116;144.000000 electrons
         Band energy:***********;  BLOECHL correction:  0.000000
       DOS:  cpu time    0.0022: real time    0.0022
    CHARGE:  cpu time    0.1472: real time    0.1475
    MIXING:  cpu time    0.0055: real time    0.0056
    --------------------------------------------
      LOOP:  cpu time    3.2338: real time    3.2524

 eigenvalue-minimisations  :  3136
 total energy-change (2. order) :-0.5060577E-03  (-0.2304994E-04)
 number of electron     143.9999991 magnetization 
 augmentation part      -17.6752979 magnetization 

 Broyden mixing:
  rms(total) = 0.79942E-03    rms(broyden)= 0.79942E-03
  rms(prec ) = 0.15752E-02
  weight for this iteration     100.00

 eigenvalues of (default mixing * dielectric matrix)
  average eigenvalue GAMMA=   2.0375
  5.9599  4.3810  2.7287  2.1801  1.6944  1.3430  1.3430  0.9179  0.9179  0.9476
  1.0183  1.0183

 Free energy of the ion-electron system (eV)
  ---------------------------------------------------
  alpha Z        PSCENC =       170.45750602
  Ewald energy   TEWEN  =     12492.90812124
  -Hartree energ DENC   =    -18924.05564408
  -exchange      EXHF   =         0.00000000
  -V(xc)+E(xc)   XCENC  =        50.20206454
  PAW double counting   =      3834.26925813    -3548.09529980
  entropy T*S    EENTRO =         0.00000000
  eigenvalues    EBANDS =     -1431.81142638
  atomic energy  EATOM  =      7250.85976021
  Solvation  Ediel_sol  =         0.00000000
  ---------------------------------------------------
  free energy    TOTEN  =      -105.26566012 eV

  energy without entropy =     -105.26566012  energy(sigma->0) =     -105.26566012


--------------------------------------------------------------------------------------------------------




--------------------------------------- Iteration      1(  18)  ---------------------------------------


    POTLOK:  cpu time    0.0603: real time    0.0715
    SETDIJ:  cpu time    0.0016: real time    0.0016
     EDDAV:  cpu time    2.5727: real time    2.5788
 BZINTS: Fermi energy: -0.373749;144.000000 electrons
         Band energy:***********;  BLOECHL correction:  0.000000
       DOS:  cpu time    0.0023: real time    0.0023
    CHARGE:  cpu time    0.1510: real time    0.1514
    MIXING:  cpu time    0.0056: real time    0.0057
    --------------------------------------------
      LOOP:  cpu time    2.7936: real time    2.8113

 eigenvalue-minimisations  :  2744
 total energy-change (2. order) :-0.4653004E-03  (-0.1055734E-04)
 number of electron     143.9999991 magnetization 
 augmentation part      -17.6752547 magnetization 

 Broyden mixing:
  rms(total) = 0.53788E-03    rms(broyden)= 0.53788E-03
  rms(prec ) = 0.10230E-02
  weight for this iteration     100.00

 eigenvalues of (default mixing * dielectric matrix)
  average eigenvalue GAMMA=   2.1077
  6.3358  4.8728  2.9318  2.4789  1.8184  1.4525  1.4525  0.9169  0.9169  1.1554
  1.1554  0.9567  0.9567

 Free energy of the ion-electron system (eV)
  ---------------------------------------------------
  alpha Z        PSCENC =       170.45750602
  Ewald energy   TEWEN  =     12492.90812124
  -Hartree energ DENC   =    -18924.51822681
  -exchange      EXHF   =         0.00000000
  -V(xc)+E(xc)   XCENC  =        50.20323537
  PAW double counting   =      3834.28621680    -3548.11129012
  entropy T*S    EENTRO =         0.00000000
  eigenvalues    EBANDS =     -1431.35144813
  atomic energy  EATOM  =      7250.85976021
  Solvation  Ediel_sol  =         0.00000000
  ---------------------------------------------------
  free energy    TOTEN  =      -105.26612542 eV

  energy without entropy =     -105.26612542  energy(sigma->0) =     -105.26612542


--------------------------------------------------------------------------------------------------------




--------------------------------------- Iteration      1(  19)  ---------------------------------------


    POTLOK:  cpu time    0.0569: real time    0.0683
    SETDIJ:  cpu time    0.0015: real time    0.0015
     EDDAV:  cpu time    2.5984: real time    2.6045
 BZINTS: Fermi energy: -0.376762;144.000000 electrons
         Band energy:***********;  BLOECHL correction:  0.000000
       DOS:  cpu time    0.0022: real time    0.0022
    CHARGE:  cpu time    0.1717: real time    0.1721
    MIXING:  cpu time    0.0065: real time    0.0066
    --------------------------------------------
      LOOP:  cpu time    2.8371: real time    2.8552

 eigenvalue-minimisations  :  2632
 total energy-change (2. order) :-0.5677211E-03  (-0.6137693E-05)
 number of electron     143.9999991 magnetization 
 augmentation part      -17.6753670 magnetization 

 Broyden mixing:
  rms(total) = 0.40430E-03    rms(broyden)= 0.40430E-03
  rms(prec ) = 0.62328E-03
  weight for this iteration     100.00

 eigenvalues of (default mixing * dielectric matrix)
  average eigenvalue GAMMA=   2.1761
  6.4644  5.4985  3.2948  2.6141  2.0589  1.6210  1.6210  0.9169  0.9169  1.2386
  1.2386  0.9576  1.0121  1.0121

 Free energy of the ion-electron system (eV)
  ---------------------------------------------------
  alpha Z        PSCENC =       170.45750602
  Ewald energy   TEWEN  =     12492.90812124
  -Hartree energ DENC   =    -18924.88180025
  -exchange      EXHF   =         0.00000000
  -V(xc)+E(xc)   XCENC  =        50.20235454
  PAW double counting   =      3834.23944554    -3548.06231970
  entropy T*S    EENTRO =         0.00000000
  eigenvalues    EBANDS =     -1430.98976073
  atomic energy  EATOM  =      7250.85976021
  Solvation  Ediel_sol  =         0.00000000
  ---------------------------------------------------
  free energy    TOTEN  =      -105.26669314 eV

  energy without entropy =     -105.26669314  energy(sigma->0) =     -105.26669314


--------------------------------------------------------------------------------------------------------




--------------------------------------- Iteration      1(  20)  ---------------------------------------


    POTLOK:  cpu time    0.0583: real time    0.0698
    SETDIJ:  cpu time    0.0016: real time    0.0016
     EDDAV:  cpu time    2.5624: real time    2.5684
 BZINTS: Fermi energy: -0.381392;144.000000 electrons
         Band energy:***********;  BLOECHL correction:  0.000000
       DOS:  cpu time    0.0022: real time    0.0022
    CHARGE:  cpu time    0.1510: real time    0.1514
    MIXING:  cpu time    0.0070: real time    0.0071
    --------------------------------------------
      LOOP:  cpu time    2.7826: real time    2.8005

 eigenvalue-minimisations  :  2592
 total energy-change (2. order) :-0.4128388E-03  (-0.6214870E-05)
 number of electron     143.9999991 magnetization 
 augmentation part      -17.6754113 magnetization 

 Broyden mixing:
  rms(total) = 0.17979E-03    rms(broyden)= 0.17979E-03
  rms(prec ) = 0.26824E-03
  weight for this iteration     100.00

 eigenvalues of (default mixing * dielectric matrix)
  average eigenvalue GAMMA=   2.2910
  7.2524  6.3568  3.5372  3.0802  2.3523  1.6595  1.6595  0.9170  0.9170  1.2749
  1.2749  1.0850  1.0850  0.9568  0.9568

 Free energy of the ion-electron system (eV)
  ---------------------------------------------------
  alpha Z        PSCENC =       170.45750602
  Ewald energy   TEWEN  =     12492.90812124
  -Hartree energ DENC   =    -18925.03042174
  -exchange      EXHF   =         0.00000000
  -V(xc)+E(xc)   XCENC  =        50.20242596
  PAW double counting   =      3834.23332086    -3548.05634405
  entropy T*S    EENTRO =         0.00000000
  eigenvalues    EBANDS =     -1430.84147449
  atomic energy  EATOM  =      7250.85976021
  Solvation  Ediel_sol  =         0.00000000
  ---------------------------------------------------
  free energy    TOTEN  =      -105.26710598 eV

  energy without entropy =     -105.26710598  energy(sigma->0) =     -105.26710598


--------------------------------------------------------------------------------------------------------




--------------------------------------- Iteration      1(  21)  ---------------------------------------


    POTLOK:  cpu time    0.0613: real time    0.0734
    SETDIJ:  cpu time    0.0016: real time    0.0016
     EDDAV:  cpu time    2.3219: real time    2.3274
 BZINTS: Fermi energy: -0.386539;144.000000 electrons
         Band energy:***********;  BLOECHL correction:  0.000000
       DOS:  cpu time    0.0024: real time    0.0024
    CHARGE:  cpu time    0.1481: real time    0.1485
    MIXING:  cpu time    0.0059: real time    0.0060
    --------------------------------------------
      LOOP:  cpu time    2.5413: real time    2.5593

 eigenvalue-minimisations  :  2392
 total energy-change (2. order) :-0.1679666E-03  (-0.2458462E-05)
 number of electron     143.9999991 magnetization 
 augmentation part      -17.6753843 magnetization 

 Broyden mixing:
  rms(total) = 0.11020E-03    rms(broyden)= 0.11020E-03
  rms(prec ) = 0.13326E-03
  weight for this iteration     100.00

 eigenvalues of (default mixing * dielectric matrix)
  average eigenvalue GAMMA=   2.3580
  8.2207  6.6869  3.7685  3.1315  2.3846  1.8831  1.8831  0.9169  0.9169  1.3263
  1.3263  1.1733  1.1733  0.9730  0.9730  0.9905

 Free energy of the ion-electron system (eV)
  ---------------------------------------------------
  alpha Z        PSCENC =       170.45750602
  Ewald energy   TEWEN  =     12492.90812124
  -Hartree energ DENC   =    -18925.01379745
  -exchange      EXHF   =         0.00000000
  -V(xc)+E(xc)   XCENC  =        50.20165722
  PAW double counting   =      3834.22907165    -3548.05272083
  entropy T*S    EENTRO =         0.00000000
  eigenvalues    EBANDS =     -1430.85687200
  atomic energy  EATOM  =      7250.85976021
  Solvation  Ediel_sol  =         0.00000000
  ---------------------------------------------------
  free energy    TOTEN  =      -105.26727394 eV

  energy without entropy =     -105.26727394  energy(sigma->0) =     -105.26727394


--------------------------------------------------------------------------------------------------------




--------------------------------------- Iteration      1(  22)  ---------------------------------------


    POTLOK:  cpu time    0.0556: real time    0.0665
    SETDIJ:  cpu time    0.0015: real time    0.0015
     EDDAV:  cpu time    2.4129: real time    2.4186
 BZINTS: Fermi energy: -0.390955;144.000000 electrons
         Band energy:***********;  BLOECHL correction:  0.000000
       DOS:  cpu time    0.0025: real time    0.0025
    CHARGE:  cpu time    0.1467: real time    0.1470
    MIXING:  cpu time    0.0072: real time    0.0072
    --------------------------------------------
      LOOP:  cpu time    2.6263: real time    2.6434

 eigenvalue-minimisations  :  2448
 total energy-change (2. order) :-0.3530655E-04  (-0.3202136E-06)
 number of electron     143.9999991 magnetization 
 augmentation part      -17.6753699 magnetization 

 Broyden mixing:
  rms(total) = 0.51775E-04    rms(broyden)= 0.51775E-04
  rms(prec ) = 0.66231E-04
  weight for this iteration     100.00

 eigenvalues of (default mixing * dielectric matrix)
  average eigenvalue GAMMA=   2.3795
  8.8533  6.9063  3.8578  3.3288  2.5444  2.1212  1.6701  1.5133  0.9170  0.9170
  1.2849  1.2849  1.1944  1.0806  1.0806  0.9485  0.9485

 Free energy of the ion-electron system (eV)
  ---------------------------------------------------
  alpha Z        PSCENC =       170.45750602
  Ewald energy   TEWEN  =     12492.90812124
  -Hartree energ DENC   =    -18925.02327932
  -exchange      EXHF   =         0.00000000
  -V(xc)+E(xc)   XCENC  =        50.20155758
  PAW double counting   =      3834.21829155    -3548.04185464
  entropy T*S    EENTRO =         0.00000000
  eigenvalues    EBANDS =     -1430.84741188
  atomic energy  EATOM  =      7250.85976021
  Solvation  Ediel_sol  =         0.00000000
  ---------------------------------------------------
  free energy    TOTEN  =      -105.26730925 eV

  energy without entropy =     -105.26730925  energy(sigma->0) =     -105.26730925


--------------------------------------------------------------------------------------------------------




--------------------------------------- Iteration      1(  23)  ---------------------------------------


    POTLOK:  cpu time    0.0620: real time    0.0731
    SETDIJ:  cpu time    0.0015: real time    0.0015
     EDDAV:  cpu time    2.2001: real time    2.2053
 BZINTS: Fermi energy: -0.394936;144.000000 electrons
         Band energy:***********;  BLOECHL correction:  0.000000
       DOS:  cpu time    0.0023: real time    0.0023
    CHARGE:  cpu time    0.1456: real time    0.1459
    MIXING:  cpu time    0.0065: real time    0.0066
    --------------------------------------------
      LOOP:  cpu time    2.4179: real time    2.4347

 eigenvalue-minimisations  :  2144
 total energy-change (2. order) :-0.1882497E-04  (-0.1655659E-06)
 number of electron     143.9999991 magnetization 
 augmentation part      -17.6753714 magnetization 

 Broyden mixing:
  rms(total) = 0.23047E-04    rms(broyden)= 0.23047E-04
  rms(prec ) = 0.29997E-04
  weight for this iteration     100.00

 eigenvalues of (default mixing * dielectric matrix)
  average eigenvalue GAMMA=   2.3662
  8.9789  6.9820  3.7136  3.7136  2.5506  2.0833  1.8847  1.8847  0.9170  0.9170
  1.2666  1.2666  1.2000  1.2000  1.1003  0.9659  0.9659  1.0014

 Free energy of the ion-electron system (eV)
  ---------------------------------------------------
  alpha Z        PSCENC =       170.45750602
  Ewald energy   TEWEN  =     12492.90812124
  -Hartree energ DENC   =    -18925.00928788
  -exchange      EXHF   =         0.00000000
  -V(xc)+E(xc)   XCENC  =        50.20143618
  PAW double counting   =      3834.21942290    -3548.04303504
  entropy T*S    EENTRO =         0.00000000
  eigenvalues    EBANDS =     -1430.86125171
  atomic energy  EATOM  =      7250.85976021
  Solvation  Ediel_sol  =         0.00000000
  ---------------------------------------------------
  free energy    TOTEN  =      -105.26732807 eV

  energy without entropy =     -105.26732807  energy(sigma->0) =     -105.26732807


--------------------------------------------------------------------------------------------------------




--------------------------------------- Iteration      1(  24)  ---------------------------------------


    POTLOK:  cpu time    0.0581: real time    0.0685
    SETDIJ:  cpu time    0.0017: real time    0.0017
     EDDAV:  cpu time    2.0321: real time    2.0369
 BZINTS: Fermi energy: -0.398400;144.000000 electrons
         Band energy:***********;  BLOECHL correction:  0.000000
       DOS:  cpu time    0.0023: real time    0.0023
    CHARGE:  cpu time    0.1468: real time    0.1472
    MIXING:  cpu time    0.0069: real time    0.0070
    --------------------------------------------
      LOOP:  cpu time    2.2479: real time    2.2635

 eigenvalue-minimisations  :  1976
 total energy-change (2. order) :-0.2820297E-05  (-0.1796493E-07)
 number of electron     143.9999991 magnetization 
 augmentation part      -17.6753750 magnetization 

 Broyden mixing:
  rms(total) = 0.14914E-04    rms(broyden)= 0.14914E-04
  rms(prec ) = 0.21638E-04
  weight for this iteration     100.00

 eigenvalues of (default mixing * dielectric matrix)
  average eigenvalue GAMMA=   2.3679
  9.0549  7.0667  3.8358  3.8358  2.8360  2.2790  2.2790  1.5870  1.5870  0.9170
  0.9170  1.2634  1.2634  1.1329  1.1329  0.9548  0.9548  1.0465  1.0465

 Free energy of the ion-electron system (eV)
  ---------------------------------------------------
  alpha Z        PSCENC =       170.45750602
  Ewald energy   TEWEN  =     12492.90812124
  -Hartree energ DENC   =    -18925.00830255
  -exchange      EXHF   =         0.00000000
  -V(xc)+E(xc)   XCENC  =        50.20139387
  PAW double counting   =      3834.22057910    -3548.04416948
  entropy T*S    EENTRO =         0.00000000
  eigenvalues    EBANDS =     -1430.86221930
  atomic energy  EATOM  =      7250.85976021
  Solvation  Ediel_sol  =         0.00000000
  ---------------------------------------------------
  free energy    TOTEN  =      -105.26733090 eV

  energy without entropy =     -105.26733090  energy(sigma->0) =     -105.26733090


--------------------------------------------------------------------------------------------------------




--------------------------------------- Iteration      1(  25)  ---------------------------------------


    POTLOK:  cpu time    0.0645: real time    0.0752
    SETDIJ:  cpu time    0.0016: real time    0.0016
     EDDAV:  cpu time    1.9270: real time    1.9316
 BZINTS: Fermi energy: -0.401301;144.000000 electrons
         Band energy:***********;  BLOECHL correction:  0.000000
       DOS:  cpu time    0.0023: real time    0.0023
    CHARGE:  cpu time    0.1474: real time    0.1478
    MIXING:  cpu time    0.0104: real time    0.0105
    --------------------------------------------
      LOOP:  cpu time    2.1532: real time    2.1689

 eigenvalue-minimisations  :  1824
 total energy-change (2. order) :-0.1290548E-05  (-0.1855769E-07)
 number of electron     143.9999991 magnetization 
 augmentation part      -17.6753759 magnetization 

 Broyden mixing:
  rms(total) = 0.60752E-05    rms(broyden)= 0.60751E-05
  rms(prec ) = 0.88901E-05
  weight for this iteration     100.00

 eigenvalues of (default mixing * dielectric matrix)
  average eigenvalue GAMMA=   2.3359
  9.1527  7.0153  4.0163  3.8345  2.8657  2.5143  1.9023  1.9023  1.4976  1.4976
  0.9170  0.9170  1.2240  1.2240  1.1423  1.1423  1.0641  0.9673  0.9673  0.9542

[...]
      7     -27.7058      2.00000
      8     -27.7054      2.00000
      9     -14.8815      2.00000
     10     -14.8812      2.00000
     11     -14.8150      2.00000
     12     -14.8150      2.00000
     13     -14.7445      2.00000
     14     -14.7445      2.00000
     15     -13.8957      2.00000
     16     -13.8945      2.00000
     17     -13.7691      2.00000
     18     -13.7662      2.00000
     19     -13.7541      2.00000
     20     -13.7510      2.00000
     21     -13.7047      2.00000
     22     -13.6980      2.00000
     23     -13.6582      2.00000
     24     -13.6572      2.00000
     25     -13.5862      2.00000
     26     -13.5787      2.00000
     27     -13.1107      2.00000
     28     -13.1003      2.00000
     29     -13.0686      2.00000
     30     -13.0611      2.00000
     31     -13.0290      2.00000
     32     -13.0282      2.00000
     33     -11.0340      2.00000
     34     -11.0187      2.00000
     35     -10.6222      2.00000
     36     -10.6060      2.00000
     37      -6.4278      2.00000
     38      -6.4074      2.00000
     39      -6.1867      2.00000
     40      -6.1715      2.00000
     41      -6.1130      2.00000
     42      -6.0969      2.00000
     43      -5.8303      2.00000
     44      -5.8167      2.00000
     45      -5.7801      2.00000
     46      -5.7294      2.00000
     47      -5.6835      2.00000
     48      -5.5748      2.00000
     49      -2.7993      2.00000
     50      -2.7003      2.00000
     51      -2.5272      2.00000
     52      -2.4689      2.00000
     53      -2.2225      2.00000
     54      -2.1267      2.00000
     55      -2.1054      2.00000
     56      -2.0776      2.00000
     57      -1.9048      2.00000
     58      -1.8810      2.00000
     59      -1.7904      2.00000
     60      -1.7070      2.00000
     61      -1.6119      2.00000
     62      -1.5646      2.00000
     63      -1.4712      2.00000
     64      -1.3850      2.00000
     65      -1.2715      2.00000
     66      -1.1947      2.00000
     67      -1.1237      2.00000
     68      -1.0155      2.00000
     69      -0.8850      2.00000
     70      -0.7667      2.00000
     71      -0.7485      2.00000
     72      -0.6836      2.00000
     73       0.4016      0.00000
     74       0.4310      0.00000
     75       0.5715      0.00000
     76       0.6178      0.00000
     77       0.6771      0.00000
     78       0.8215      0.00000
     79       0.9313      0.00000
     80       0.9711      0.00000
     81       0.9933      0.00000
     82       1.1555      0.00000
     83       1.2860      0.00000
     84       1.3782      0.00000
     85       1.4123      0.00000
     86       1.5860      0.00000
     87       1.6768      0.00000
     88       1.7761      0.00000

 k-point    15 :       0.0000    0.5000    0.4000
  band No.  band energies     occupation 
      1     -29.5436      2.00000
      2     -29.5436      2.00000
      3     -28.4758      2.00000
      4     -28.4758      2.00000
      5     -28.3096      2.00000
      6     -28.3096      2.00000
      7     -27.7056      2.00000
      8     -27.7056      2.00000
      9     -14.8809      2.00000
     10     -14.8809      2.00000
     11     -14.8156      2.00000
     12     -14.8156      2.00000
     13     -14.7465      2.00000
     14     -14.7465      2.00000
     15     -13.8945      2.00000
     16     -13.8944      2.00000
     17     -13.7695      2.00000
     18     -13.7695      2.00000
     19     -13.7550      2.00000
     20     -13.7550      2.00000
     21     -13.7021      2.00000
     22     -13.7021      2.00000
     23     -13.6604      2.00000
     24     -13.6604      2.00000
     25     -13.5817      2.00000
     26     -13.5817      2.00000
     27     -13.1053      2.00000
     28     -13.1053      2.00000
     29     -13.0643      2.00000
     30     -13.0643      2.00000
     31     -13.0285      2.00000
     32     -13.0285      2.00000
     33     -11.0206      2.00000
     34     -11.0206      2.00000
     35     -10.6045      2.00000
     36     -10.6045      2.00000
     37      -6.4457      2.00000
     38      -6.4456      2.00000
     39      -6.1514      2.00000
     40      -6.1514      2.00000
     41      -6.1047      2.00000
     42      -6.1047      2.00000
     43      -5.8017      2.00000
     44      -5.8017      2.00000
     45      -5.7624      2.00000
     46      -5.7624      2.00000
     47      -5.6279      2.00000
     48      -5.6279      2.00000
     49      -2.7057      2.00000
     50      -2.7057      2.00000
     51      -2.5152      2.00000
     52      -2.5152      2.00000
     53      -2.1694      2.00000
     54      -2.1694      2.00000
     55      -2.1072      2.00000
     56      -2.1072      2.00000
     57      -1.8938      2.00000
     58      -1.8938      2.00000
     59      -1.6955      2.00000
     60      -1.6955      2.00000
     61      -1.5097      2.00000
     62      -1.5097      2.00000
     63      -1.4594      2.00000
     64      -1.4594      2.00000
     65      -1.2519      2.00000
     66      -1.2519      2.00000
     67      -1.0603      2.00000
     68      -1.0603      2.00000
     69      -0.8750      2.00000
     70      -0.8750      2.00000
     71      -0.7156      2.00000
     72      -0.7156      2.00000
     73       0.3165      0.00000
     74       0.3165      0.00000
     75       0.5591      0.00000
     76       0.5591      0.00000
     77       0.7370      0.00000
     78       0.7370      0.00000
     79       0.9356      0.00000
     80       0.9356      0.00000
     81       0.9975      0.00000
     82       0.9975      0.00000
     83       1.3528      0.00000
     84       1.3528      0.00000
     85       1.5364      0.00000
     86       1.5364      0.00000
     87       1.6388      0.00000
     88       1.6388      0.00000


--------------------------------------------------------------------------------------------------------


 soft charge-density along one line, spin component           1
         0         1         2         3         4         5         6         7         8         9
 total charge-density along one line
 
 pseudopotential strength for first ion, spin component:           1
  5.103  -5.600  -0.000  -0.008  -0.037  -0.000  -0.003  -0.015
 -5.600  -2.740   0.000   0.002   0.007  -0.000  -0.001  -0.006
 -0.000   0.000  -6.776  -0.000  -0.000   1.864  -0.000  -0.000
 -0.008   0.002  -0.000  -6.771  -0.001  -0.000   1.875  -0.003
 -0.037   0.007  -0.000  -0.001  -6.770  -0.000  -0.003   1.875
 -0.000  -0.000   1.864  -0.000  -0.000   7.308  -0.000  -0.000
 -0.003  -0.001  -0.000   1.875  -0.003  -0.000   7.309  -0.000
 -0.015  -0.006  -0.000  -0.003   1.875  -0.000  -0.000   7.309
 -0.000   0.000  -0.013  -0.000  -0.000  -0.008  -0.000  -0.000
 -0.000   0.000  -0.001  -0.000  -0.000  -0.000  -0.000  -0.000
  0.002  -0.001   0.000  -0.004   0.007   0.000  -0.003   0.005
 -0.002   0.001  -0.000  -0.012  -0.002  -0.000  -0.008  -0.002
  0.003  -0.001   0.000  -0.001  -0.012   0.000  -0.001  -0.008
  0.000   0.000   0.001   0.000   0.000   0.000   0.000   0.000
  0.000   0.000   0.000   0.000   0.000  -0.000   0.000   0.000
 -0.000  -0.000  -0.000   0.000  -0.000  -0.000   0.000  -0.000
  0.000   0.000   0.000   0.001   0.000   0.000   0.000   0.000
 -0.000  -0.000  -0.000   0.000   0.000  -0.000   0.000   0.000
 total augmentation occupancy for first ion, spin component:           1
  2.102  -0.256   0.000   0.012   0.054   0.000  -0.006  -0.020   0.000   0.000   0.015  -0.010   0.032  -0.000   0.000  -0.011
 -0.256   0.636   0.000  -0.033  -0.143   0.000   0.012   0.033   0.000   0.000  -0.026   0.012  -0.061   0.000   0.000   0.041
  0.000   0.000   2.012  -0.000   0.000  -0.011   0.000   0.000  -0.083   0.022  -0.000   0.000   0.000   0.077  -0.042  -0.000
  0.012  -0.033  -0.000   2.000   0.003   0.000  -0.002  -0.002   0.000   0.000  -0.045  -0.067  -0.015   0.000   0.000   0.043
  0.054  -0.143   0.000   0.003   1.996   0.000  -0.002  -0.000   0.000   0.000   0.035  -0.007  -0.052  -0.000   0.000  -0.032
  0.000   0.000  -0.011  -0.000   0.000   0.008   0.000   0.000   0.022  -0.009   0.000   0.000   0.000  -0.029   0.014   0.000
 -0.006   0.012   0.000  -0.002  -0.002   0.000   0.005   0.001   0.000  -0.000   0.016   0.015   0.005   0.000   0.000  -0.022
 -0.020   0.033   0.000  -0.002  -0.000   0.000   0.001   0.004  -0.000   0.000  -0.007   0.000   0.009   0.000   0.000   0.009
  0.000   0.000  -0.083   0.000   0.000   0.022  -0.000  -0.000   0.144  -0.014  -0.000  -0.000  -0.000  -0.182   0.020   0.000
  0.000   0.000   0.022   0.000   0.000  -0.009   0.000   0.000  -0.014   0.068   0.000   0.000  -0.000   0.018  -0.084   0.000
  0.015  -0.026   0.000  -0.045   0.035   0.000   0.016  -0.007  -0.000  -0.000   0.121   0.049   0.019   0.000   0.000  -0.146
 -0.010   0.012   0.000  -0.067  -0.007   0.000   0.015   0.000  -0.000   0.000   0.049   0.086   0.009  -0.000   0.000  -0.068
  0.032  -0.061   0.000  -0.015  -0.052  -0.000   0.005   0.009   0.000   0.000   0.019   0.009   0.097   0.000   0.000  -0.025
  0.000   0.000   0.077   0.000   0.000  -0.029   0.000   0.000  -0.182   0.018  -0.000   0.000   0.000   0.257  -0.034   0.000
  0.000  -0.000  -0.042   0.000   0.000   0.014   0.000   0.000   0.020  -0.084   0.000  -0.000   0.000  -0.034   0.114   0.000
 -0.011   0.041   0.000   0.043  -0.032   0.000  -0.022   0.009   0.000   0.000  -0.146  -0.068  -0.025   0.000   0.000   0.198
  0.007  -0.028   0.000   0.062  -0.000   0.000  -0.022  -0.001   0.000   0.000  -0.066  -0.108  -0.011   0.000   0.000   0.102
 -0.024   0.073   0.000   0.022   0.049   0.000  -0.008  -0.012  -0.000   0.000  -0.027  -0.013  -0.126   0.000   0.000   0.042


------------------------ aborting loop because EDIFF is reached ----------------------------------------


    CHARGE:  cpu time    0.1422: real time    0.1425
    FORLOC:  cpu time    0.0096: real time    0.0096
    FORNL :  cpu time    0.5280: real time    0.5293
    STRESS:  cpu time    1.5894: real time    1.5932
    FORCOR:  cpu time    0.0747: real time    0.0748
    FORHAR:  cpu time    0.0241: real time    0.0241
    MIXING:  cpu time    0.0086: real time    0.0205
    OFIELD:  cpu time    0.0000: real time    0.0000

  FORCE on cell =-STRESS in cart. coord.  units (eV):
  Direction    XX          YY          ZZ          XY          YZ          ZX
  --------------------------------------------------------------------------------------
  Alpha Z   170.45751   170.45751   170.45751
  Ewald  -20272.29861 16649.11908 16116.07402    -0.00002     0.00000   141.07809
  Hartree-17197.82808 18270.81517 17852.01784     0.00000    -0.00000   106.43636
  E(xc)    -462.43752  -460.77442  -461.15873    -0.00000    -0.00000     0.21812
  Local   36053.53637-36355.16129-35394.97961     0.00001    -0.00000  -245.00919
  n-local   339.12262   339.45954   339.85737     0.05896    -0.19239    -1.82092
  augment  -169.41483  -169.70700  -169.55264    -0.00000    -0.00000     0.35953
  Kinetic  1533.60702  1547.82445  1540.15250    -0.02187    -0.81302    -1.23980
  Fock        0.00000     0.00000     0.00000     0.00000     0.00000     0.00000
  -------------------------------------------------------------------------------------
  Total      -5.25551    -7.96697    -7.13174     0.00000     0.00000     0.02219
  in kB      -4.45977    -6.76069    -6.05193     0.00000     0.00000     0.01883
  external pressure =       -5.76 kB  Pullay stress =        0.00 kB


 VOLUME and BASIS-vectors are now :
 -----------------------------------------------------------------------------
  energy-cutoff  :      500.00
  volume of cell :     1888.05
      direct lattice vectors                 reciprocal lattice vectors
    24.009468079  0.000000000  0.000000000     0.041650236  0.000000000  0.000000000
     0.000000000  6.777849674  0.000000000     0.000000000  0.147539419  0.000000000
     0.000000000  0.000000000 11.602143288     0.000000000  0.000000000  0.086190971

  length of vectors
    24.009468079  6.777849674 11.602143288     0.041650236  0.147539419  0.086190971


 FORCES acting on ions
    electron-ion (+dipol)            ewald-force                    non-local-force                 convergence-correction
 -----------------------------------------------------------------------------------------------
   0.796E+03 0.102E-04 0.437E+02   -.791E+03 0.981E-05 -.428E+02   -.425E+01 -.105E-18 -.828E+00   0.240E-04 -.723E-09 0.101E-04
   -.796E+03 -.633E-04 -.437E+02   0.791E+03 -.127E-04 0.428E+02   0.425E+01 0.174E-18 0.828E+00   -.240E-04 0.777E-09 -.101E-04
   0.750E+02 -.595E-04 -.348E+02   -.748E+02 -.194E-04 0.335E+02   -.370E+00 -.436E-19 0.124E+01   0.606E-04 0.119E-08 -.372E-04
   -.750E+02 0.122E-04 0.348E+02   0.748E+02 0.134E-04 -.335E+02   0.370E+00 0.285E-19 -.124E+01   -.606E-04 -.110E-08 0.372E-04
   0.641E+03 -.611E-04 -.499E+02   -.639E+03 -.169E-04 0.505E+02   -.209E+01 0.466E-18 -.558E+00   0.814E-04 0.965E-09 -.548E-04
   -.641E+03 0.904E-05 0.499E+02   0.639E+03 0.147E-04 -.505E+02   0.209E+01 -.471E-18 0.558E+00   -.814E-04 -.916E-09 0.548E-04
   0.373E+03 0.126E-04 -.675E+01   -.372E+03 0.136E-04 0.591E+01   -.132E+01 0.315E-17 0.837E+00   0.843E-04 -.107E-08 0.150E-04
   -.373E+03 -.613E-04 0.675E+01   0.372E+03 -.136E-04 -.591E+01   0.132E+01 -.199E-17 -.837E+00   -.843E-04 0.106E-08 -.150E-04
   0.278E+03 0.368E+02 -.466E+02   -.278E+03 -.383E+02 0.475E+02   -.111E+00 0.150E+01 -.884E+00   0.633E-04 0.370E-04 -.351E-04
   -.278E+03 -.368E+02 0.466E+02   0.278E+03 0.383E+02 -.475E+02   0.111E+00 -.150E+01 0.884E+00   -.633E-04 -.370E-04 0.351E-04
   0.128E+03 -.322E+02 0.268E+01   -.128E+03 0.333E+02 -.173E+01   -.702E+00 -.112E+01 -.953E+00   0.174E-04 -.215E-04 0.484E-07
   -.128E+03 0.322E+02 -.268E+01   0.128E+03 -.333E+02 0.173E+01   0.702E+00 0.112E+01 0.953E+00   -.174E-04 0.215E-04 -.466E-07
   -.278E+03 0.368E+02 0.466E+02   0.278E+03 -.383E+02 -.475E+02   0.111E+00 0.150E+01 0.884E+00   -.633E-04 0.370E-04 0.351E-04
   0.278E+03 -.368E+02 -.466E+02   -.278E+03 0.383E+02 0.475E+02   -.111E+00 -.150E+01 -.884E+00   0.633E-04 -.370E-04 -.351E-04
   -.128E+03 -.322E+02 -.268E+01   0.128E+03 0.333E+02 0.173E+01   0.702E+00 -.112E+01 0.953E+00   -.174E-04 -.215E-04 -.466E-07
   0.128E+03 0.322E+02 0.268E+01   -.128E+03 -.333E+02 -.173E+01   -.702E+00 0.112E+01 -.953E+00   0.174E-04 0.215E-04 0.484E-07
   0.336E+03 -.424E-05 0.456E+02   -.338E+03 -.607E-05 -.463E+02   0.135E+01 -.103E-18 0.633E+00   0.428E-04 0.315E-09 0.242E-04
   -.336E+03 0.614E-05 -.456E+02   0.338E+03 0.632E-05 0.463E+02   -.135E+01 0.914E-19 -.633E+00   -.428E-04 -.322E-09 -.242E-04
   0.317E+02 0.105E-04 -.110E+02   -.302E+02 0.778E-05 0.103E+02   -.136E+01 0.252E-18 0.780E+00   -.140E-04 -.443E-09 -.127E-04
   -.317E+02 -.770E-06 0.110E+02   0.302E+02 -.743E-05 -.103E+02   0.136E+01 0.318E-18 -.780E+00   0.140E-04 0.416E-09 0.127E-04
   0.249E+03 0.446E-05 0.933E+01   -.248E+03 0.814E-05 -.105E+02   -.841E+00 -.557E-18 0.117E+01   0.547E-04 -.386E-09 0.192E-04
   -.249E+03 -.560E-05 -.933E+01   0.248E+03 -.819E-05 0.105E+02   0.841E+00 0.634E-18 -.117E+01   -.547E-04 0.367E-09 -.192E-04
   0.162E+03 -.627E-05 0.620E+02   -.162E+03 -.773E-05 -.636E+02   -.920E+00 0.904E-17 0.164E+01   0.281E-04 0.402E-09 0.400E-04
   -.162E+03 0.376E-05 -.620E+02   0.162E+03 0.753E-05 0.636E+02   0.920E+00 0.100E-16 -.164E+01   -.281E-04 -.402E-09 -.400E-04
 -----------------------------------------------------------------------------------------------
   0.222E-04 -.205E-03 0.619E-04   0.142E-12 0.293E-13 0.142E-13   0.444E-15 0.197E-16 0.000E+00   0.427E-07 0.998E-10 -.259E-08
 
 
 POSITION                                       TOTAL-FORCE (eV/Angst)
 -----------------------------------------------------------------------------------
      0.13670      1.69446      8.18953         0.742495      0.000000      0.000163
      8.92277      5.08339      3.41262        -0.742495     -0.000000     -0.000163
      4.36803      5.08339      2.16901        -0.171816     -0.000000     -0.000030
      4.69143      1.69446      9.43314         0.171816     -0.000000      0.000030
      1.43529      5.08339     10.66108         0.692023      0.000000      0.000390
      7.62418      1.69446      0.94107        -0.692023     -0.000000     -0.000390
      3.06944      1.69446      4.62116         0.240270     -0.000000      0.000321
      5.99002      5.08339      6.98098        -0.240270     -0.000000     -0.000321
      1.75027      0.49341      1.69203        -0.165782     -0.000585      0.000493
      7.30920      6.28444      9.91011         0.165782      0.000585     -0.000493
      2.75446      6.28841      7.64171        -0.019596      0.000634      0.000072
      6.30500      0.48944      3.96044         0.019596     -0.000634     -0.000072
      7.30920      3.88233      9.91011         0.165782     -0.000585     -0.000493
      1.75027      2.89552      1.69203        -0.165782      0.000585      0.000493
      6.30500      2.89948      3.96044         0.019596      0.000634     -0.000072
      2.75446      3.87837      7.64171        -0.019596     -0.000634      0.000072
      0.74693      5.08339      6.95732        -0.232813      0.000000      0.000325
      8.31254      1.69446      4.64482         0.232813      0.000000     -0.000325
      3.75780      1.69446      0.99511         0.147290     -0.000000      0.000530
      5.30166      5.08339     10.60704        -0.147290      0.000000     -0.000530
      1.78112      1.69446     11.18679        -0.308860      0.000000      0.000635
      7.27835      5.08339      0.41536         0.308860      0.000000     -0.000635
      2.72362      5.08339      5.53174        -0.326826      0.000000      0.000168
      6.33585      1.69446      6.07040         0.326826     -0.000000     -0.000168
 -----------------------------------------------------------------------------------
    total drift:                                0.000022     -0.000205      0.000062


--------------------------------------------------------------------------------------------------------



  FREE ENERGIE OF THE ION-ELECTRON SYSTEM (eV)
  ---------------------------------------------------
  free  energy   TOTEN  =      -105.26733241 eV

  energy  without entropy=     -105.26733241  energy(sigma->0) =     -105.26733241
 


--------------------------------------------------------------------------------------------------------


    POTLOK:  cpu time    0.0757: real time    0.0759


--------------------------------------------------------------------------------------------------------


 writing wavefunctions
     LOOP+:  cpu time   85.3376: real time   86.9005
    4ORBIT:  cpu time    0.0000: real time    0.0000
 BZINTS: Fermi energy: -0.403750;144.000000 electrons
         Band energy:***********;  BLOECHL correction:  0.000000

 total amount of memory used by VASP MPI-rank0    79348. kBytes
=======================================================================

   base      :      30000. kBytes
   nonlr-proj:       2642. kBytes
   fftplans  :       5898. kBytes
   grid      :       8824. kBytes
   one-center:         93. kBytes
   wavefun   :      31891. kBytes
 
  
  
 General timing and accounting informations for this job:
 ========================================================
  
                  Total CPU time used (sec):       93.243
                            User time (sec):       87.973
                          System time (sec):        5.269
                         Elapsed time (sec):       97.109
  
                   Maximum memory used (kb):      166344.
                   Average memory used (kb):           0.
  
                          Minor page faults:        71022
                          Major page faults:          150
                 Voluntary context switches:        12599
