 vasp.5.4.4.18Apr17-6-g9f103f2a35 (build Nov 21 2017 15:30:27) complex          
  
 executed on             LinuxIFC date 2020.09.15  08:10:42
 running on   64 total cores
 distrk:  each k-point on   32 cores,    2 groups
 distr:  one band on NCORES_PER_BAND=   4 cores,    8 groups


--------------------------------------------------------------------------------------------------------


 INCAR:
 POTCAR:   PAW_PBE Ba_sv 06Sep2000                
 POTCAR:   PAW_PBE Si 05Jan2001                   

 ----------------------------------------------------------------------------- 
|                                                                             |
|           W    W    AA    RRRRR   N    N  II  N    N   GGGG   !!!           |
|           W    W   A  A   R    R  NN   N  II  NN   N  G    G  !!!           |
|           W    W  A    A  R    R  N N  N  II  N N  N  G       !!!           |
|           W WW W  AAAAAA  RRRRR   N  N N  II  N  N N  G  GGG   !            |
|           WW  WW  A    A  R   R   N   NN  II  N   NN  G    G                |
|           W    W  A    A  R    R  N    N  II  N    N   GGGG   !!!           |
|                                                                             |
|      You have enabled k-point parallelism (KPAR>1).                         |
|      This developmental code was originally  written by Paul Kent at ORNL,  |
|      and carefully double checked in Vienna.                                |
|      GW as well as linear response parallelism added by Martijn Marsman     |
|      and Georg Kresse.                                                      |
|      Carefully verify results versus KPAR=1.                                |
|      Report problems to Paul Kent and Vienna.                               |
|                                                                             |
 ----------------------------------------------------------------------------- 

 POTCAR:   PAW_PBE Ba_sv 06Sep2000                
   VRHFIN =Ba: 5s5p6s                                                           
   LEXCH  = PE                                                                  
   EATOM  =   700.2255 eV,   51.4651 Ry                                         
                                                                                
   TITEL  = PAW_PBE Ba_sv 06Sep2000                                             
   LULTRA =        F    use ultrasoft PP ?                                      
   IUNSCR =        1    unscreen: 0-lin 1-nonlin 2-no                           
   RPACOR =    2.400    partial core radius                                     
   POMASS =  137.327; ZVAL   =   10.000    mass and valenz                      
   RCORE  =    2.800    outmost cutoff radius                                   
   RWIGS  =    3.740; RWIGS  =    1.979    wigner-seitz radius (au A)           
   ENMAX  =  187.210; ENMIN  =  140.408 eV                                      
   RCLOC  =    2.516    cutoff for local pot                                    
   LCOR   =        T    correct aug charges                                     
   LPAW   =        T    paw PP                                                  
   EAUG   =  351.165                                                            
   DEXC   =     .000                                                            
   RMAX   =    3.370    core radius for proj-oper                               
   RAUG   =    1.300    factor for augmentation sphere                          
   RDEP   =    2.976    radius for radial grids                                 
   QCUT   =   -3.709; QGAM   =    7.419    optimization parameters              
                                                                                
   Description                                                                  
     l     E      TYP  RCUT    TYP  RCUT                                        
     0   .000     23  2.800                                                     
     0   .000     23  2.800                                                     
     1   .000     23  2.700                                                     
     1  2.000     23  2.700                                                     
     2   .000     23  2.700                                                     
     2   .000     23  2.700                                                     
  local pseudopotential read in
  partial core-charges read in
  atomic valenz-charges read in
  non local Contribution for L=           0  read in
    real space projection operators read in
  non local Contribution for L=           0  read in
    real space projection operators read in
  non local Contribution for L=           1  read in
    real space projection operators read in
  non local Contribution for L=           1  read in
    real space projection operators read in
  non local Contribution for L=           2  read in
    real space projection operators read in
  non local Contribution for L=           2  read in
    real space projection operators read in
    PAW grid and wavefunctions read in
 
   number of l-projection  operators is LMAX  =           6
   number of lm-projection operators is LMMAX =          18
 
 POTCAR:   PAW_PBE Si 05Jan2001                   
   VRHFIN =Si: s2p2                                                             
   LEXCH  = PE                                                                  
   EATOM  =   103.0669 eV,    7.5752 Ry                                         
                                                                                
   TITEL  = PAW_PBE Si 05Jan2001                                                
   LULTRA =        F    use ultrasoft PP ?                                      
   IUNSCR =        1    unscreen: 0-lin 1-nonlin 2-no                           
   RPACOR =    1.500    partial core radius                                     
   POMASS =   28.085; ZVAL   =    4.000    mass and valenz                      
   RCORE  =    1.900    outmost cutoff radius                                   
   RWIGS  =    2.480; RWIGS  =    1.312    wigner-seitz radius (au A)           
   ENMAX  =  245.345; ENMIN  =  184.009 eV                                      
   ICORE  =        2    local potential                                         
   LCOR   =        T    correct aug charges                                     
   LPAW   =        T    paw PP                                                  
   EAUG   =  322.069                                                            
   DEXC   =    -.007                                                            
   RMAX   =    2.944    core radius for proj-oper                               
   RAUG   =    1.300    factor for augmentation sphere                          
   RDEP   =    1.993    radius for radial grids                                 
   QCUT   =   -4.246; QGAM   =    8.493    optimization parameters              
                                                                                
   Description                                                                  
     l     E      TYP  RCUT    TYP  RCUT                                        
     0   .000     23  1.900                                                     
     0   .000     23  1.900                                                     
     1   .000     23  1.900                                                     
     1   .000     23  1.900                                                     
     2   .000      7  1.900                                                     
  local pseudopotential read in
  partial core-charges read in
  atomic valenz-charges read in
  non local Contribution for L=           0  read in
    real space projection operators read in
  non local Contribution for L=           0  read in
    real space projection operators read in
  non local Contribution for L=           1  read in
    real space projection operators read in
  non local Contribution for L=           1  read in
    real space projection operators read in
    PAW grid and wavefunctions read in
 
   number of l-projection  operators is LMAX  =           4
   number of lm-projection operators is LMMAX =           8
 
 Optimization of the real space projectors (new method)

 maximal supplied QI-value         = 13.42
 optimisation between [QCUT,QGAM] = [ 11.40, 22.81] = [ 36.42,145.68] Ry 
 Optimized for a Real-space Cutoff    1.56 Angstroem

   l    n(q)    QCUT    max X(q) W(low)/X(q) W(high)/X(q)  e(spline) 
   0     11    11.404     7.198    0.14E-04    0.26E-04    0.99E-07
   0     11    11.404    15.603    0.29E-04    0.72E-04    0.44E-06
   1     10    11.404     3.746    0.20E-04    0.24E-04    0.43E-07
   1     10    11.404     4.362    0.22E-03    0.97E-04    0.22E-06
   2     10    11.404     5.782    0.83E-04    0.62E-05    0.27E-06
   2     10    11.404    65.505    0.42E-03    0.31E-04    0.12E-05
 Optimization of the real space projectors (new method)

 maximal supplied QI-value         = 19.84
 optimisation between [QCUT,QGAM] = [ 11.31, 22.82] = [ 35.82,145.81] Ry 
 Optimized for a Real-space Cutoff    1.16 Angstroem

   l    n(q)    QCUT    max X(q) W(low)/X(q) W(high)/X(q)  e(spline) 
   0      8    11.310     8.708    0.14E-04    0.11E-04    0.43E-08
   0      8    11.310   106.241    0.27E-03    0.30E-03    0.38E-07
   1      7    11.310     5.901    0.82E-05    0.48E-04    0.19E-07
   1      7    11.310    73.241    0.27E-03    0.27E-03    0.74E-07
 PAW_PBE Ba_sv 06Sep2000                :
 energy of atom  1       EATOM= -700.2255
 kinetic energy error for atom=    0.0005 (will be added to EATOM!!)
 PAW_PBE Si 05Jan2001                   :
 energy of atom  2       EATOM= -103.0669
 kinetic energy error for atom=    0.0006 (will be added to EATOM!!)
 
 
 POSCAR: ba8 si16                                
  positions in direct lattice
  velocities in cartesian coordinates
 exchange correlation table for  LEXCH =        8
   RHO(1)=    0.500       N(1)  =     2000
   RHO(2)=  100.500       N(2)  =     4000
 


--------------------------------------------------------------------------------------------------------


 ion  position               nearest neighbor table
   1  0.006  0.250  0.705-  21 3.40  16 3.45  11 3.45  17 3.65  17 3.65   5 4.38   5 4.38   7 4.62

   2  0.380  0.750  0.295-  22 3.40  12 3.45  15 3.45  18 3.65  18 3.65   6 4.38   6 4.38   8 4.62

   3  0.182  0.750  0.186-  20 3.32   9 3.45  14 3.45  12 3.54  15 3.54  22 3.55  19 3.65  19 3.65
                            23 3.76   5 4.28   7 4.38   7 4.38
   4  0.204  0.250  0.814-  19 3.32  13 3.45  10 3.45  16 3.54  11 3.54  21 3.55  20 3.65  20 3.65
                            24 3.76   6 4.28   8 4.38   8 4.38
   5  0.060  0.750  0.917-   9 3.44  14 3.44  21 3.45  21 3.45  11 3.48  16 3.48  17 3.74   3 4.28
                             1 4.38   1 4.38
   6  0.326  0.250  0.083-  13 3.44  10 3.44  22 3.45  22 3.45  15 3.48  12 3.48  18 3.74   4 4.28
                             2 4.38   2 4.38
   7  0.128  0.250  0.397-  14 3.44   9 3.44  23 3.53  23 3.53  15 3.70  12 3.70  19 3.71  16 3.76
                            11 3.76  24 3.76   3 4.38   3 4.38   1 4.62
   8  0.258  0.750  0.603-  10 3.44  13 3.44  24 3.53  24 3.53  11 3.70  16 3.70  20 3.71  12 3.76
                            15 3.76  23 3.76   4 4.38   4 4.38   2 4.62
   9  0.073  0.073  0.144-  14 2.40  21 2.43  19 2.44   5 3.44   7 3.44   3 3.45
  10  0.313  0.927  0.856-  13 2.40  22 2.43  20 2.44   6 3.44   8 3.44   4 3.45
  11  0.115  0.928  0.659-  16 2.42  23 2.43  17 2.44   1 3.45   5 3.48   4 3.54   8 3.70   7 3.76

  12  0.271  0.072  0.341-  15 2.42  24 2.43  18 2.44   2 3.45   6 3.48   3 3.54   7 3.70   8 3.76

  13  0.313  0.573  0.856-  10 2.40  22 2.43  20 2.44   6 3.44   8 3.44   4 3.45
  14  0.073  0.427  0.144-   9 2.40  21 2.43  19 2.44   5 3.44   7 3.44   3 3.45
  15  0.271  0.428  0.341-  12 2.42  24 2.43  18 2.44   2 3.45   6 3.48   3 3.54   7 3.70   8 3.76

  16  0.115  0.572  0.659-  11 2.42  23 2.43  17 2.44   1 3.45   5 3.48   4 3.54   8 3.70   7 3.76

  17  0.031  0.750  0.600-  23 2.44  11 2.44  16 2.44   1 3.65   1 3.65   5 3.74
  18  0.355  0.250  0.400-  24 2.44  15 2.44  12 2.44   2 3.65   2 3.65   6 3.74
  19  0.157  0.250  0.083-  21 2.43  14 2.44   9 2.44   4 3.32   3 3.65   3 3.65   7 3.71
  20  0.229  0.750  0.917-  22 2.43  10 2.44  13 2.44   3 3.32   4 3.65   4 3.65   8 3.71
  21  0.074  0.250  0.962-  19 2.43  14 2.43   9 2.43   1 3.40   5 3.45   5 3.45   4 3.55
  22  0.311  0.750  0.038-  20 2.43  10 2.43  13 2.43   2 3.40   6 3.45   6 3.45   3 3.55
  23  0.113  0.750  0.477-  11 2.43  16 2.43  17 2.44   7 3.53   7 3.53   3 3.76   8 3.76
  24  0.272  0.250  0.523-  15 2.43  12 2.43  18 2.44   8 3.53   8 3.53   4 3.76   7 3.76
 
  LATTYP: Found a simple orthorhombic cell.
 ALAT       =     6.7778496742
 B/A-ratio  =     1.7117734747
 C/A-ratio  =     3.5423429602
  
  Lattice vectors:
  
 A1 = (   0.0000000000,   6.7778496742,   0.0000000000)
 A2 = (   0.0000000000,   0.0000000000, -11.6021432877)
 A3 = ( -24.0094680786,   0.0000000000,   0.0000000000)


Analysis of symmetry for initial positions (statically):
=====================================================================
 Subroutine PRICEL returns:
 Original cell was already a primitive cell.
 

 Routine SETGRP: Setting up the symmetry group for a 
 simple orthorhombic supercell.


 Subroutine GETGRP returns: Found  4 space group operations
 (whereof  1 operations were pure point group operations)
 out of a pool of  8 trial point group operations.


The static configuration has the point symmetry C_1 .
 The point group associated with its full space group is C_2h.


Analysis of symmetry for dynamics (positions and initial velocities):
=====================================================================
 Subroutine PRICEL returns:
 Original cell was already a primitive cell.
 

 Routine SETGRP: Setting up the symmetry group for a 
 simple orthorhombic supercell.


 Subroutine GETGRP returns: Found  4 space group operations
 (whereof  1 operations were pure point group operations)
 out of a pool of  8 trial point group operations.


The dynamic configuration has the point symmetry C_1 .
 The point group associated with its full space group is C_2h.


Analysis of constrained symmetry for selective dynamics:
=====================================================================
 Subroutine PRICEL returns:
 Original cell was already a primitive cell.
 

 Routine SETGRP: Setting up the symmetry group for a 
 simple orthorhombic supercell.


 Subroutine GETGRP returns: Found  4 space group operations
 (whereof  1 operations were pure point group operations)
 out of a pool of  8 trial point group operations.


The constrained configuration has the point symmetry C_1 .
 The point group associated with its full space group is C_2h.


 Subroutine INISYM returns: Found  4 space group operations
 (whereof  1 operations are pure point group operations),
 and found     1 'primitive' translations

 
 
 KPOINTS: k-density: 8.0                          

Automatic generation of k-mesh.
Space group operators:
 irot       det(A)        alpha          n_x          n_y          n_z        tau_x        tau_y        tau_z
    1     1.000000     0.000000     1.000000     0.000000     0.000000     0.000000     0.000000     0.000000
    2    -1.000000     0.000000     1.000000     0.000000     0.000000    -0.614341     0.000000     0.000000
    3     1.000000   180.000000     0.000000     1.000000     0.000000    -0.614341     0.500000     0.000000
    4    -1.000000   180.000000     0.000000     1.000000     0.000000     0.000000     0.500000     0.000000
 
 Subroutine IBZKPT returns following result:
 ===========================================
 
 Found     15 irreducible k-points:
 
 Following reciprocal coordinates:
            Coordinates               Weight
  0.000000  0.000000  0.000000      1.000000
  0.000000  0.125000  0.000000      2.000000
  0.000000  0.250000  0.000000      2.000000
  0.000000  0.375000  0.000000      2.000000
  0.000000  0.500000  0.000000      1.000000
  0.000000  0.000000  0.200000      2.000000
  0.000000  0.125000  0.200000      4.000000
  0.000000  0.250000  0.200000      4.000000
  0.000000  0.375000  0.200000      4.000000
  0.000000  0.500000  0.200000      2.000000
  0.000000  0.000000  0.400000      2.000000
  0.000000  0.125000  0.400000      4.000000
  0.000000  0.250000  0.400000      4.000000
  0.000000  0.375000  0.400000      4.000000
  0.000000  0.500000  0.400000      2.000000
 
 Following cartesian coordinates:
            Coordinates               Weight
  0.000000  0.000000  0.000000      1.000000
  0.000000  0.018442  0.000000      2.000000
  0.000000  0.036885  0.000000      2.000000
  0.000000  0.055327  0.000000      2.000000
  0.000000  0.073770  0.000000      1.000000
  0.000000  0.000000  0.017238      2.000000
  0.000000  0.018442  0.017238      4.000000
  0.000000  0.036885  0.017238      4.000000
  0.000000  0.055327  0.017238      4.000000
  0.000000  0.073770  0.017238      2.000000
  0.000000  0.000000  0.034476      2.000000
  0.000000  0.018442  0.034476      4.000000
  0.000000  0.036885  0.034476      4.000000
  0.000000  0.055327  0.034476      4.000000
  0.000000  0.073770  0.034476      2.000000
 
 TETIRR: Found    108 inequivalent tetrahedra from      240


--------------------------------------------------------------------------------------------------------




 Dimension of arrays:
   k-points           NKPTS =     15   k-points in BZ     NKDIM =     15   number of bands    NBANDS=     88
   number of dos      NEDOS =    301   number of ions     NIONS =     24
   non local maximal  LDIM  =      6   non local SUM 2l+1 LMDIM =     18
   total plane-waves  NPLWV = 358400
   max r-space proj   IRMAX =   3093   max aug-charges    IRDMAX=  12081
   dimension x,y,z NGX =   140 NGY =   40 NGZ =   64
   dimension x,y,z NGXF=   280 NGYF=   80 NGZF=  128
   support grid    NGXF=   280 NGYF=   80 NGZF=  128
   ions per type =               8  16
   NGX,Y,Z   is equivalent  to a cutoff of   9.69,  9.81,  9.17 a.u.
   NGXF,Y,Z  is equivalent  to a cutoff of  19.39, 19.62, 18.34 a.u.

 SYSTEM =  unknown system                          
 POSCAR =  ba8 si16                                

 Startparameter for this run:
   NWRITE =      2    write-flag & timer
   PREC   = normal    normal or accurate (medium, high low for compatibility)
   ISTART =      0    job   : 0-new  1-cont  2-samecut
   ICHARG =      2    charge: 1-file 2-atom 10-const
   ISPIN  =      1    spin polarized calculation?
   LNONCOLLINEAR =      F non collinear calculations
   LSORBIT =      F    spin-orbit coupling
   INIWAV =      1    electr: 0-lowe 1-rand  2-diag
   LASPH  =      F    aspherical Exc in radial PAW
   METAGGA=      F    non-selfconsistent MetaGGA calc.

 Electronic Relaxation 1
   ENCUT  =  500.0 eV  36.75 Ry    6.06 a.u.  43.77 12.36 21.15*2*pi/ulx,y,z
   ENINI  =  500.0     initial cutoff
   ENAUG  =  351.2 eV  augmentation charge cutoff
   NELM   =    100;   NELMIN=  2; NELMDL= -5     # of ELM steps 
   EDIFF  = 0.1E-05   stopping-criterion for ELM
   LREAL  =      T    real-space projection
   NLSPLINE    = F    spline interpolate recip. space projectors
   LCOMPAT=      F    compatible to vasp.4.4
   GGA_COMPAT  = T    GGA compatible to vasp.4.4-vasp.4.6
   LMAXPAW     = -100 max onsite density
   LMAXMIX     =    2 max onsite mixed and CHGCAR
   VOSKOWN=      0    Vosko Wilk Nusair interpolation
   ROPT   =   -0.00050  -0.00050
 Ionic relaxation
   EDIFFG = -.1E-02   stopping-criterion for IOM
   NSW    =      0    number of steps for IOM
   NBLOCK =      1;   KBLOCK =      1    inner block; outer block 
   IBRION =     -1    ionic relax: 0-MD 1-quasi-New 2-CG
   NFREE  =      0    steps in history (QN), initial steepest desc. (CG)
   ISIF   =      2    stress and relaxation
   IWAVPR =     10    prediction:  0-non 1-charg 2-wave 3-comb
   ISYM   =      2    0-nonsym 1-usesym 2-fastsym
   LCORR  =      T    Harris-Foulkes like correction to forces

   POTIM  = 0.3000    time-step for ionic-motion
   TEIN   =    0.0    initial temperature
   TEBEG  =    0.0;   TEEND  =   0.0 temperature during run
   SMASS  =  -3.00    Nose mass-parameter (am)
   estimated Nose-frequenzy (Omega)   =  0.10E-29 period in steps =****** mass=  -0.132E-25a.u.
   SCALEE = 1.0000    scale energy and forces
   NPACO  =    256;   APACO  = 16.0  distance and # of slots for P.C.
   PSTRESS=    0.0 pullay stress

  Mass of Ions in am
   POMASS = 137.33 28.09
  Ionic Valenz
   ZVAL   =  10.00  4.00
  Atomic Wigner-Seitz radii
   RWIGS  =  -1.00 -1.00
  virtual crystal weights 
   VCA    =   1.00  1.00
   NELECT =     144.0000    total number of electrons
   NUPDOWN=      -1.0000    fix difference up-down

 DOS related values:
   EMIN   =  10.00;   EMAX   =-10.00  energy-range for DOS
   EFERMI =   0.00
   ISMEAR =    -5;   SIGMA  =   0.01  broadening in eV -4-tet -1-fermi 0-gaus

 Electronic relaxation 2 (details)
   IALGO  =     38    algorithm
   LDIAG  =      T    sub-space diagonalisation (order eigenvalues)
   LSUBROT=      F    optimize rotation matrix (better conditioning)
   TURBO    =      0    0=normal 1=particle mesh
   IRESTART =      0    0=no restart 2=restart with 2 vectors
   NREBOOT  =      0    no. of reboots
   NMIN     =      0    reboot dimension
   EREF     =   0.00    reference energy to select bands
   IMIX   =      4    mixing-type and parameters
     AMIX     =   0.40;   BMIX     =  1.00
     AMIX_MAG =   1.60;   BMIX_MAG =  1.00
     AMIN     =   0.10
     WC   =   100.;   INIMIX=   1;  MIXPRE=   1;  MAXMIX= -45

 Intra band minimization:
   WEIMIN = 0.0000     energy-eigenvalue tresh-hold
   EBREAK =  0.28E-08  absolut break condition
   DEPER  =   0.30     relativ break condition  

   TIME   =   0.40     timestep for ELM

  volume/ion in A,a.u.               =      78.67       530.88
  Fermi-wavevector in a.u.,A,eV,Ry     =   0.694264  1.311969  6.558046  0.482003
  Thomas-Fermi vector in A             =   1.776709
 
 Write flags
   LWAVE        =      T    write WAVECAR
   LDOWNSAMPLE  =      F    k-point downsampling of WAVECAR
   LCHARG       =      T    write CHGCAR
   LVTOT        =      F    write LOCPOT, total local potential
   LVHAR        =      F    write LOCPOT, Hartree potential only
   LELF         =      F    write electronic localiz. function (ELF)
   LORBIT       =      0    0 simple, 1 ext, 2 COOP (PROOUT), +10 PAW based schemes


 Dipole corrections
   LMONO  =      F    monopole corrections only (constant potential shift)
   LDIPOL =      F    correct potential (dipole corrections)
   IDIPOL =      0    1-x, 2-y, 3-z, 4-all directions 
   EPSILON=  1.0000000 bulk dielectric constant

 Exchange correlation treatment:
   GGA     =    --    GGA type
   LEXCH   =     8    internal setting for exchange type
   VOSKOWN=      0    Vosko Wilk Nusair interpolation
   LHFCALC =     F    Hartree Fock is set to
   LHFONE  =     F    Hartree Fock one center treatment
   AEXX    =    0.0000 exact exchange contribution

 Linear response parameters
   LEPSILON=     F    determine dielectric tensor
   LRPA    =     F    only Hartree local field effects (RPA)
   LNABLA  =     F    use nabla operator in PAW spheres
   LVEL    =     F    velocity operator in full k-point grid
   LINTERFAST=   F  fast interpolation
   KINTER  =     0    interpolate to denser k-point grid
   CSHIFT  =0.1000    complex shift for real part using Kramers Kronig
   OMEGAMAX=  -1.0    maximum frequency
   DEG_THRESHOLD= 0.2000000E-02 threshold for treating states as degnerate
   RTIME   =   -0.100 relaxation time in fs
  (WPLASMAI=    0.000 imaginary part of plasma frequency in eV, 0.658/RTIME)
   DFIELD  = 0.0000000 0.0000000 0.0000000 field for delta impulse in time
 
 Orbital magnetization related:
   ORBITALMAG=     F  switch on orbital magnetization
   LCHIMAG   =     F  perturbation theory with respect to B field
   DQ        =  0.001000  dq finite difference perturbation B field
   LLRAUG    =     F  two centre corrections for induced B field



--------------------------------------------------------------------------------------------------------


 Static calculation
 charge density and potential will be updated during run
 non-spin polarized calculation
 Variant of blocked Davidson
 Davidson routine will perform the subspace rotation
 perform sub-space diagonalisation
    after iterative eigenvector-optimisation
 modified Broyden-mixing scheme, WC =      100.0
 initial mixing is a Kerker type mixing with AMIX =  0.4000 and BMIX =      1.0000
 Hartree-type preconditioning will be used
 using additional bands           16
 real space projection scheme for non local part
 use partial core corrections
 calculate Harris-corrections to forces 
   (improved forces if not selfconsistent)
 use gradient corrections 
 use of overlap-Matrix (Vanderbilt PP)
 Fermi weights with tetrahedron method with Bloechl corrections


--------------------------------------------------------------------------------------------------------


  energy-cutoff  :      500.00
  volume of cell :     1888.05
      direct lattice vectors                 reciprocal lattice vectors
    24.009468079  0.000000000  0.000000000     0.041650236  0.000000000  0.000000000
     0.000000000  6.777849674  0.000000000     0.000000000  0.147539419  0.000000000
     0.000000000  0.000000000 11.602143288     0.000000000  0.000000000  0.086190971

  length of vectors
    24.009468079  6.777849674 11.602143288     0.041650236  0.147539419  0.086190971


 
 k-points in units of 2pi/SCALE and weight: k-density: 8.0                          
   0.00000000  0.00000000  0.00000000       0.025
   0.00000000  0.01844243  0.00000000       0.050
   0.00000000  0.03688485  0.00000000       0.050
   0.00000000  0.05532728  0.00000000       0.050
   0.00000000  0.07376971  0.00000000       0.025
   0.00000000  0.00000000  0.01723819       0.050
   0.00000000  0.01844243  0.01723819       0.100
   0.00000000  0.03688485  0.01723819       0.100
   0.00000000  0.05532728  0.01723819       0.100
   0.00000000  0.07376971  0.01723819       0.050
   0.00000000  0.00000000  0.03447639       0.050
   0.00000000  0.01844243  0.03447639       0.100
   0.00000000  0.03688485  0.03447639       0.100
   0.00000000  0.05532728  0.03447639       0.100
   0.00000000  0.07376971  0.03447639       0.050
 
 k-points in reciprocal lattice and weights: k-density: 8.0                          
   0.00000000  0.00000000  0.00000000       0.025
   0.00000000  0.12500000  0.00000000       0.050
   0.00000000  0.25000000  0.00000000       0.050
   0.00000000  0.37500000  0.00000000       0.050
   0.00000000  0.50000000  0.00000000       0.025
   0.00000000  0.00000000  0.20000000       0.050
   0.00000000  0.12500000  0.20000000       0.100
   0.00000000  0.25000000  0.20000000       0.100
   0.00000000  0.37500000  0.20000000       0.100
   0.00000000  0.50000000  0.20000000       0.050
   0.00000000  0.00000000  0.40000000       0.050
   0.00000000  0.12500000  0.40000000       0.100
   0.00000000  0.25000000  0.40000000       0.100
   0.00000000  0.37500000  0.40000000       0.100
   0.00000000  0.50000000  0.40000000       0.050
 
 position of ions in fractional coordinates (direct lattice) 
   0.00569361  0.25000000  0.70483999
   0.37996541  0.75000002  0.29516001
   0.18192962  0.75000002  0.18602683
   0.20372941  0.25000000  0.81397315
   0.05978014  0.75000002  0.91675736
   0.32587889  0.25000000  0.08324262
   0.12784309  0.25000000  0.39683408
   0.25781593  0.75000002  0.60316597
   0.07289913  0.07284626  0.14352138
   0.31275989  0.92715373  0.85647860
   0.11472410  0.92841146  0.65931647
   0.27093493  0.07158853  0.34068353
   0.31275989  0.57284627  0.85647860
   0.07289913  0.42715373  0.14352138
   0.27093493  0.42841146  0.34068353
   0.11472410  0.57158854  0.65931647
   0.03110981  0.75000002  0.60003789
   0.35454921  0.25000000  0.39996211
   0.15651343  0.25000000  0.08270050
   0.22914561  0.75000002  0.91729948
   0.07418398  0.25000000  0.96154311
   0.31147505  0.75000002  0.03845690
   0.11343925  0.75000002  0.47720987
   0.27221977  0.25000000  0.52279005
 
 position of ions in cartesian coordinates  (Angst):
   0.13670066  1.69446242  8.17765462
   9.12276745  5.08338737  3.42448867
   4.36803341  5.08338737  2.15830989
   4.89143467  1.69446242  9.44383316
   1.43528938  5.08338737 10.63635023
   7.82417870  1.69446242  0.96579282
   3.06944466  1.69446242  4.60412581
   6.19002342  5.08338737  6.99801796
   1.75026941  0.49374097  1.66515564
   7.50919867  6.28410864  9.93698741
   2.75446463  6.29263331  7.64948421
   6.50500345  0.48521631  3.95265907
   7.50919867  3.88266587  9.93698741
   1.75026941  2.89518380  1.66515564
   6.50500345  2.90370847  3.95265907
   2.75446463  3.87414121  7.64948421
   0.74692994  5.08338737  6.96172559
   8.51253796  1.69446242  4.64041770
   3.75780416  1.69446242  0.95950300
   5.50166416  5.08338737 10.64264005
   1.78111780  1.69446242 11.15596099
   7.47835016  5.08338737  0.44618248
   2.72361612  5.08338737  5.53665728
   6.53585196  1.69446242  6.06548505
 


--------------------------------------------------------------------------------------------------------


 k-point  1 :   0.0000 0.0000 0.0000  plane waves:   47989
 k-point  2 :   0.0000 0.1250 0.0000  plane waves:   47929
 k-point  3 :   0.0000 0.2500 0.0000  plane waves:   47901
 k-point  4 :   0.0000 0.3750 0.0000  plane waves:   47910
 k-point  5 :   0.0000 0.5000 0.0000  plane waves:   47868
 k-point  6 :   0.0000 0.0000 0.2000  plane waves:   48006
 k-point  7 :   0.0000 0.1250 0.2000  plane waves:   47967
 k-point  8 :   0.0000 0.2500 0.2000  plane waves:   47907
 k-point  9 :   0.0000 0.3750 0.2000  plane waves:   47884
 k-point 10 :   0.0000 0.5000 0.2000  plane waves:   47884
 k-point 11 :   0.0000 0.0000 0.4000  plane waves:   47922
 k-point 12 :   0.0000 0.1250 0.4000  plane waves:   47954
 k-point 13 :   0.0000 0.2500 0.4000  plane waves:   47967
 k-point 14 :   0.0000 0.3750 0.4000  plane waves:   47928
 k-point 15 :   0.0000 0.5000 0.4000  plane waves:   47890

 maximum and minimum number of plane-waves per node :     12077    11868

 maximum number of plane-waves:     48006
 maximum index in each direction: 
   IXMAX=   43   IYMAX=   12   IZMAX=   21
   IXMIN=  -43   IYMIN=  -12   IZMIN=  -21


 real space projection operators:
  total allocation   :       4540.80 KBytes
  max/ min on nodes  :       1138.45       1128.12


 parallel 3D FFT for wavefunctions:
    minimum data exchange during FFTs selected (reduces bandwidth)
 parallel 3D FFT for charge:
    minimum data exchange during FFTs selected (reduces bandwidth)


 total amount of memory used by VASP MPI-rank0    79358. kBytes
=======================================================================

   base      :      30000. kBytes
   nonlr-proj:       2652. kBytes
   fftplans  :       5898. kBytes
   grid      :       8824. kBytes
   one-center:         93. kBytes
   wavefun   :      31891. kBytes
 
     INWAV:  cpu time    0.0000: real time    0.0000
 Broyden mixing: mesh for mixing (old mesh)
   NGX = 87   NGY = 25   NGZ = 43
  (NGX  =280   NGY  = 80   NGZ  =128)
  gives a total of  93525 points

 initial charge density was supplied:
 charge density of overlapping atoms calculated
 number of electron     144.0000000 magnetization 
 keeping initial charge density in first step


--------------------------------------------------------------------------------------------------------


 Maximum index for non-local projection operator          751
 Maximum index for augmentation-charges          603 (set IRDMAX)


--------------------------------------------------------------------------------------------------------


 First call to EWALD:  gamma=   0.143
 Maximum number of real-space cells 2x 5x 3
 Maximum number of reciprocal cells 5x 2x 3

    FEWALD:  cpu time    0.0022: real time    0.0022


--------------------------------------- Iteration      1(   1)  ---------------------------------------


    POTLOK:  cpu time    0.0659: real time    0.0923
    SETDIJ:  cpu time    0.0025: real time    0.0026
     EDDAV:  cpu time    2.5969: real time    2.6114
 BZINTS: Fermi energy:  7.044564;144.000000 electrons
         Band energy:-462.721460;  BLOECHL correction: -0.027490
       DOS:  cpu time    0.0125: real time    0.0127
    --------------------------------------------
      LOOP:  cpu time    2.6778: real time    2.7191

 eigenvalue-minimisations  :  2768
 total energy-change (2. order) : 0.1187320E+04  (-0.4783735E+04)
 number of electron     144.0000000 magnetization 
 augmentation part      144.0000000 magnetization 

 Free energy of the ion-electron system (eV)
  ---------------------------------------------------
  alpha Z        PSCENC =       170.45750602
  Ewald energy   TEWEN  =     11814.89920149
  -Hartree energ DENC   =    -17930.07650838
  -exchange      EXHF   =         0.00000000
  -V(xc)+E(xc)   XCENC  =        42.24214100
  PAW double counting   =      3692.15173346    -3390.49189382
  entropy T*S    EENTRO =         0.00000000
  eigenvalues    EBANDS =      -462.72145980
  atomic energy  EATOM  =      7250.85976021
  Solvation  Ediel_sol  =         0.00000000
  ---------------------------------------------------
  free energy    TOTEN  =      1187.32048017 eV

  energy without entropy =     1187.32048017  energy(sigma->0) =     1187.32048017


--------------------------------------------------------------------------------------------------------




--------------------------------------- Iteration      1(   2)  ---------------------------------------


     EDDAV:  cpu time    3.2449: real time    3.2641
 BZINTS: Fermi energy: -2.020506;144.000000 electrons
         Band energy:***********;  BLOECHL correction:  0.000000
       DOS:  cpu time    0.0020: real time    0.0020
    --------------------------------------------
      LOOP:  cpu time    3.2470: real time    3.2662

 eigenvalue-minimisations  :  3808
 total energy-change (2. order) :-0.1126754E+04  (-0.1097702E+04)
 number of electron     144.0000000 magnetization 
 augmentation part      144.0000000 magnetization 

 Free energy of the ion-electron system (eV)
  ---------------------------------------------------
  alpha Z        PSCENC =       170.45750602
  Ewald energy   TEWEN  =     11814.89920149
  -Hartree energ DENC   =    -17930.07650838
  -exchange      EXHF   =         0.00000000
  -V(xc)+E(xc)   XCENC  =        42.24214100
  PAW double counting   =      3692.15173346    -3390.49189382
  entropy T*S    EENTRO =         0.00000000
  eigenvalues    EBANDS =     -1589.47595788
  atomic energy  EATOM  =      7250.85976021
  Solvation  Ediel_sol  =         0.00000000
  ---------------------------------------------------
  free energy    TOTEN  =        60.56598208 eV

  energy without entropy =       60.56598208  energy(sigma->0) =       60.56598208


--------------------------------------------------------------------------------------------------------




--------------------------------------- Iteration      1(   3)  ---------------------------------------


     EDDAV:  cpu time    2.9768: real time    2.9950
 BZINTS: Fermi energy: -3.323867;144.000000 electrons
         Band energy:***********;  BLOECHL correction:  0.000000
       DOS:  cpu time    0.0020: real time    0.0020
    --------------------------------------------
      LOOP:  cpu time    2.9788: real time    2.9970

 eigenvalue-minimisations  :  3232
 total energy-change (2. order) :-0.1693206E+03  (-0.1685981E+03)
 number of electron     144.0000000 magnetization 
 augmentation part      144.0000000 magnetization 

 Free energy of the ion-electron system (eV)
  ---------------------------------------------------
  alpha Z        PSCENC =       170.45750602
  Ewald energy   TEWEN  =     11814.89920149
  -Hartree energ DENC   =    -17930.07650838
  -exchange      EXHF   =         0.00000000
  -V(xc)+E(xc)   XCENC  =        42.24214100
  PAW double counting   =      3692.15173346    -3390.49189382
  entropy T*S    EENTRO =         0.00000000
  eigenvalues    EBANDS =     -1758.79660252
  atomic energy  EATOM  =      7250.85976021
  Solvation  Ediel_sol  =         0.00000000
  ---------------------------------------------------
  free energy    TOTEN  =      -108.75466255 eV

  energy without entropy =     -108.75466255  energy(sigma->0) =     -108.75466255


--------------------------------------------------------------------------------------------------------




--------------------------------------- Iteration      1(   4)  ---------------------------------------


     EDDAV:  cpu time    3.4322: real time    3.4516
 BZINTS: Fermi energy: -3.373637;144.000000 electrons
         Band energy:***********;  BLOECHL correction:  0.000000
       DOS:  cpu time    0.0023: real time    0.0023
    --------------------------------------------
      LOOP:  cpu time    3.4345: real time    3.4539

 eigenvalue-minimisations  :  3752
 total energy-change (2. order) :-0.6052454E+01  (-0.6035936E+01)
 number of electron     144.0000000 magnetization 
 augmentation part      144.0000000 magnetization 

 Free energy of the ion-electron system (eV)
  ---------------------------------------------------
  alpha Z        PSCENC =       170.45750602
  Ewald energy   TEWEN  =     11814.89920149
  -Hartree energ DENC   =    -17930.07650838
  -exchange      EXHF   =         0.00000000
  -V(xc)+E(xc)   XCENC  =        42.24214100
  PAW double counting   =      3692.15173346    -3390.49189382
  entropy T*S    EENTRO =         0.00000000
  eigenvalues    EBANDS =     -1764.84905628
  atomic energy  EATOM  =      7250.85976021
  Solvation  Ediel_sol  =         0.00000000
  ---------------------------------------------------
  free energy    TOTEN  =      -114.80711631 eV

  energy without entropy =     -114.80711631  energy(sigma->0) =     -114.80711631


--------------------------------------------------------------------------------------------------------




--------------------------------------- Iteration      1(   5)  ---------------------------------------


     EDDAV:  cpu time    3.5701: real time    3.5893
 BZINTS: Fermi energy: -3.409976;144.000000 electrons
         Band energy:***********;  BLOECHL correction:  0.000000
       DOS:  cpu time    0.0021: real time    0.0021
    CHARGE:  cpu time    0.1687: real time    0.1691
    MIXING:  cpu time    0.0059: real time    0.0062
    --------------------------------------------
      LOOP:  cpu time    3.7469: real time    3.7667

 eigenvalue-minimisations  :  4200
 total energy-change (2. order) :-0.2800919E+00  (-0.2800076E+00)
 number of electron     143.9999994 magnetization 
 augmentation part      -17.5460469 magnetization 

 Broyden mixing:
  rms(total) = 0.91307E+00    rms(broyden)= 0.91306E+00
  rms(prec ) = 0.11907E+01
  weight for this iteration     100.00

 Free energy of the ion-electron system (eV)
  ---------------------------------------------------
  alpha Z        PSCENC =       170.45750602
  Ewald energy   TEWEN  =     11814.89920149
  -Hartree energ DENC   =    -17930.07650838
  -exchange      EXHF   =         0.00000000
  -V(xc)+E(xc)   XCENC  =        42.24214100
  PAW double counting   =      3692.15173346    -3390.49189382
  entropy T*S    EENTRO =         0.00000000
  eigenvalues    EBANDS =     -1765.12914822
  atomic energy  EATOM  =      7250.85976021
  Solvation  Ediel_sol  =         0.00000000
  ---------------------------------------------------
  free energy    TOTEN  =      -115.08720826 eV

  energy without entropy =     -115.08720826  energy(sigma->0) =     -115.08720826


--------------------------------------------------------------------------------------------------------




--------------------------------------- Iteration      1(   6)  ---------------------------------------


    POTLOK:  cpu time    0.0580: real time    0.0688
    SETDIJ:  cpu time    0.0041: real time    0.0041
     EDDAV:  cpu time    2.8621: real time    2.8689
 BZINTS: Fermi energy: -2.231724;144.000000 electrons
         Band energy:***********;  BLOECHL correction:  0.000000
       DOS:  cpu time    0.0020: real time    0.0020
    CHARGE:  cpu time    0.1556: real time    0.1560
    MIXING:  cpu time    0.0072: real time    0.0073
    --------------------------------------------
      LOOP:  cpu time    3.0891: real time    3.1071

 eigenvalue-minimisations  :  3008
 total energy-change (2. order) : 0.8227493E+01  (-0.2035250E+01)
 number of electron     143.9999993 magnetization 
 augmentation part      -17.4379566 magnetization 

 Broyden mixing:
  rms(total) = 0.46369E+00    rms(broyden)= 0.46369E+00
  rms(prec ) = 0.58492E+00
  weight for this iteration     100.00

 eigenvalues of (default mixing * dielectric matrix)
  average eigenvalue GAMMA=   1.5412
  1.5412

 Free energy of the ion-electron system (eV)
  ---------------------------------------------------
  alpha Z        PSCENC =       170.45750602
  Ewald energy   TEWEN  =     11814.89920149
  -Hartree energ DENC   =    -18024.71367801
  -exchange      EXHF   =         0.00000000
  -V(xc)+E(xc)   XCENC  =        45.02576330
  PAW double counting   =      3727.86535678    -3433.36833609
  entropy T*S    EENTRO =         0.00000000
  eigenvalues    EBANDS =     -1657.88528936
  atomic energy  EATOM  =      7250.85976021
  Solvation  Ediel_sol  =         0.00000000
  ---------------------------------------------------
  free energy    TOTEN  =      -106.85971566 eV

  energy without entropy =     -106.85971566  energy(sigma->0) =     -106.85971566


--------------------------------------------------------------------------------------------------------




--------------------------------------- Iteration      1(   7)  ---------------------------------------


    POTLOK:  cpu time    0.0597: real time    0.0721
    SETDIJ:  cpu time    0.0018: real time    0.0019
     EDDAV:  cpu time    3.0816: real time    3.0890
 BZINTS: Fermi energy: -1.352369;144.000000 electrons
         Band energy:***********;  BLOECHL correction:  0.000000
       DOS:  cpu time    0.0023: real time    0.0023
    CHARGE:  cpu time    0.1470: real time    0.1473
    MIXING:  cpu time    0.0050: real time    0.0055
    --------------------------------------------
      LOOP:  cpu time    3.2975: real time    3.3182

 eigenvalue-minimisations  :  3480
 total energy-change (2. order) : 0.1335076E+01  (-0.9765824E+00)
 number of electron     143.9999993 magnetization 
 augmentation part      -17.5249176 magnetization 

 Broyden mixing:
  rms(total) = 0.24371E+00    rms(broyden)= 0.24371E+00
  rms(prec ) = 0.29544E+00
  weight for this iteration     100.00

 eigenvalues of (default mixing * dielectric matrix)
  average eigenvalue GAMMA=   1.8510
  1.8510  1.8510

 Free energy of the ion-electron system (eV)
  ---------------------------------------------------
  alpha Z        PSCENC =       170.45750602
  Ewald energy   TEWEN  =     11814.89920149
  -Hartree energ DENC   =    -18103.46906848
  -exchange      EXHF   =         0.00000000
  -V(xc)+E(xc)   XCENC  =        47.30889531
  PAW double counting   =      3773.80843857    -3485.13557379
  entropy T*S    EENTRO =         0.00000000
  eigenvalues    EBANDS =     -1574.25379868
  atomic energy  EATOM  =      7250.85976021
  Solvation  Ediel_sol  =         0.00000000
  ---------------------------------------------------
  free energy    TOTEN  =      -105.52463936 eV

  energy without entropy =     -105.52463936  energy(sigma->0) =     -105.52463936


--------------------------------------------------------------------------------------------------------




--------------------------------------- Iteration      1(   8)  ---------------------------------------


    POTLOK:  cpu time    0.0570: real time    0.0692
    SETDIJ:  cpu time    0.0015: real time    0.0015
     EDDAV:  cpu time    2.8958: real time    2.9026
 BZINTS: Fermi energy: -1.174004;144.000000 electrons
         Band energy:***********;  BLOECHL correction:  0.000000
       DOS:  cpu time    0.0023: real time    0.0023
    CHARGE:  cpu time    0.1502: real time    0.1506
    MIXING:  cpu time    0.0050: real time    0.0054
    --------------------------------------------
      LOOP:  cpu time    3.1118: real time    3.1316

 eigenvalue-minimisations  :  3104
 total energy-change (2. order) : 0.2232292E+00  (-0.3500770E+00)
 number of electron     143.9999993 magnetization 
 augmentation part      -17.6529887 magnetization 

 Broyden mixing:
  rms(total) = 0.11561E+00    rms(broyden)= 0.11561E+00
  rms(prec ) = 0.18909E+00
  weight for this iteration     100.00

 eigenvalues of (default mixing * dielectric matrix)
  average eigenvalue GAMMA=   1.6778
  2.6110  1.2112  1.2112

 Free energy of the ion-electron system (eV)
  ---------------------------------------------------
  alpha Z        PSCENC =       170.45750602
  Ewald energy   TEWEN  =     11814.89920149
  -Hartree energ DENC   =    -18140.30249964
  -exchange      EXHF   =         0.00000000
  -V(xc)+E(xc)   XCENC  =        48.25722543
  PAW double counting   =      3823.20661795    -3536.34484597
  entropy T*S    EENTRO =         0.00000000
  eigenvalues    EBANDS =     -1536.33437568
  atomic energy  EATOM  =      7250.85976021
  Solvation  Ediel_sol  =         0.00000000
  ---------------------------------------------------
  free energy    TOTEN  =      -105.30141020 eV

  energy without entropy =     -105.30141020  energy(sigma->0) =     -105.30141020


--------------------------------------------------------------------------------------------------------




--------------------------------------- Iteration      1(   9)  ---------------------------------------


    POTLOK:  cpu time    0.0602: real time    0.0711
    SETDIJ:  cpu time    0.0018: real time    0.0018
     EDDAV:  cpu time    2.9108: real time    2.9177
 BZINTS: Fermi energy: -0.826949;144.000000 electrons
         Band energy:***********;  BLOECHL correction:  0.000000
       DOS:  cpu time    0.0020: real time    0.0020
    CHARGE:  cpu time    0.1448: real time    0.1451
    MIXING:  cpu time    0.0046: real time    0.0047
    --------------------------------------------
      LOOP:  cpu time    3.1242: real time    3.1423

 eigenvalue-minimisations  :  3120
 total energy-change (2. order) : 0.2751130E+00  (-0.1150173E+00)
 number of electron     143.9999993 magnetization 
 augmentation part      -17.6282942 magnetization 

 Broyden mixing:
  rms(total) = 0.56924E-01    rms(broyden)= 0.56923E-01
  rms(prec ) = 0.81779E-01
  weight for this iteration     100.00

 eigenvalues of (default mixing * dielectric matrix)
  average eigenvalue GAMMA=   1.4131
  2.5368  1.2114  1.2114  0.6930

 Free energy of the ion-electron system (eV)
  ---------------------------------------------------
  alpha Z        PSCENC =       170.45750602
  Ewald energy   TEWEN  =     11814.89920149
  -Hartree energ DENC   =    -18181.22939050
  -exchange      EXHF   =         0.00000000
  -V(xc)+E(xc)   XCENC  =        49.18974229
  PAW double counting   =      3834.10318304    -3548.58020759
  entropy T*S    EENTRO =         0.00000000
  eigenvalues    EBANDS =     -1494.72609212
  atomic energy  EATOM  =      7250.85976021
  Solvation  Ediel_sol  =         0.00000000
  ---------------------------------------------------
  free energy    TOTEN  =      -105.02629716 eV

  energy without entropy =     -105.02629716  energy(sigma->0) =     -105.02629716


--------------------------------------------------------------------------------------------------------




--------------------------------------- Iteration      1(  10)  ---------------------------------------


    POTLOK:  cpu time    0.0570: real time    0.0697
    SETDIJ:  cpu time    0.0016: real time    0.0016
     EDDAV:  cpu time    3.1381: real time    3.1455
 BZINTS: Fermi energy: -0.775282;144.000000 electrons
         Band energy:***********;  BLOECHL correction:  0.000000
       DOS:  cpu time    0.0019: real time    0.0019
    CHARGE:  cpu time    0.1494: real time    0.1498
    MIXING:  cpu time    0.0058: real time    0.0058
    --------------------------------------------
      LOOP:  cpu time    3.3538: real time    3.3743

 eigenvalue-minimisations  :  3496
 total energy-change (2. order) :-0.1592781E-01  (-0.2430470E-01)
 number of electron     143.9999993 magnetization 
 augmentation part      -17.6499109 magnetization 

 Broyden mixing:
  rms(total) = 0.42238E-01    rms(broyden)= 0.42238E-01
  rms(prec ) = 0.63387E-01
  weight for this iteration     100.00

 eigenvalues of (default mixing * dielectric matrix)
  average eigenvalue GAMMA=   1.6110
  2.5050  2.5050  1.1097  0.9678  0.9678

 Free energy of the ion-electron system (eV)
  ---------------------------------------------------
  alpha Z        PSCENC =       170.45750602
  Ewald energy   TEWEN  =     11814.89920149
  -Hartree energ DENC   =    -18191.41746337
  -exchange      EXHF   =         0.00000000
  -V(xc)+E(xc)   XCENC  =        49.20298906
  PAW double counting   =      3829.31069253    -3543.44695927
  entropy T*S    EENTRO =         0.00000000
  eigenvalues    EBANDS =     -1484.90795165
  atomic energy  EATOM  =      7250.85976021
  Solvation  Ediel_sol  =         0.00000000
  ---------------------------------------------------
  free energy    TOTEN  =      -105.04222497 eV

  energy without entropy =     -105.04222497  energy(sigma->0) =     -105.04222497


--------------------------------------------------------------------------------------------------------




--------------------------------------- Iteration      1(  11)  ---------------------------------------


    POTLOK:  cpu time    0.0554: real time    0.0672
    SETDIJ:  cpu time    0.0031: real time    0.0031
     EDDAV:  cpu time    2.8008: real time    2.8075
 BZINTS: Fermi energy: -0.670963;144.000000 electrons
         Band energy:***********;  BLOECHL correction:  0.000000
       DOS:  cpu time    0.0023: real time    0.0023
    CHARGE:  cpu time    0.1527: real time    0.1531
    MIXING:  cpu time    0.0060: real time    0.0061
    --------------------------------------------
      LOOP:  cpu time    3.0204: real time    3.0392

 eigenvalue-minimisations  :  3128
 total energy-change (2. order) : 0.8678951E-02  (-0.6839338E-02)
 number of electron     143.9999993 magnetization 
 augmentation part      -17.6548404 magnetization 

 Broyden mixing:
  rms(total) = 0.16398E-01    rms(broyden)= 0.16398E-01
  rms(prec ) = 0.32562E-01
  weight for this iteration     100.00

 eigenvalues of (default mixing * dielectric matrix)
  average eigenvalue GAMMA=   1.6270
  2.8405  2.8405  1.1986  0.9574  0.9627  0.9627

 Free energy of the ion-electron system (eV)
  ---------------------------------------------------
  alpha Z        PSCENC =       170.45750602
  Ewald energy   TEWEN  =     11814.89920149
  -Hartree energ DENC   =    -18211.49706114
  -exchange      EXHF   =         0.00000000
  -V(xc)+E(xc)   XCENC  =        49.38497208
  PAW double counting   =      3830.26106679    -3544.07455474
  entropy T*S    EENTRO =         0.00000000
  eigenvalues    EBANDS =     -1465.32443673
  atomic energy  EATOM  =      7250.85976021
  Solvation  Ediel_sol  =         0.00000000
  ---------------------------------------------------
  free energy    TOTEN  =      -105.03354602 eV

  energy without entropy =     -105.03354602  energy(sigma->0) =     -105.03354602


--------------------------------------------------------------------------------------------------------




--------------------------------------- Iteration      1(  12)  ---------------------------------------


    POTLOK:  cpu time    0.0580: real time    0.0697
    SETDIJ:  cpu time    0.0016: real time    0.0016
     EDDAV:  cpu time    2.7508: real time    2.7573
 BZINTS: Fermi energy: -0.563019;144.000000 electrons
         Band energy:***********;  BLOECHL correction:  0.000000
       DOS:  cpu time    0.0019: real time    0.0020
    CHARGE:  cpu time    0.1483: real time    0.1487
    MIXING:  cpu time    0.0053: real time    0.0053
    --------------------------------------------
      LOOP:  cpu time    2.9659: real time    2.9846

 eigenvalue-minimisations  :  3096
 total energy-change (2. order) :-0.5014592E-02  (-0.1564056E-02)
 number of electron     143.9999993 magnetization 
 augmentation part      -17.6491503 magnetization 

 Broyden mixing:
  rms(total) = 0.12422E-01    rms(broyden)= 0.12422E-01
  rms(prec ) = 0.21327E-01
  weight for this iteration     100.00

 eigenvalues of (default mixing * dielectric matrix)
  average eigenvalue GAMMA=   1.7809
  3.8294  2.5524  2.0263  1.1271  1.1271  0.9019  0.9019

 Free energy of the ion-electron system (eV)
  ---------------------------------------------------
  alpha Z        PSCENC =       170.45750602
  Ewald energy   TEWEN  =     11814.89920149
  -Hartree energ DENC   =    -18224.28065883
  -exchange      EXHF   =         0.00000000
  -V(xc)+E(xc)   XCENC  =        49.45126636
  PAW double counting   =      3827.97221045    -3541.63977425
  entropy T*S    EENTRO =         0.00000000
  eigenvalues    EBANDS =     -1452.75807206
  atomic energy  EATOM  =      7250.85976021
  Solvation  Ediel_sol  =         0.00000000
  ---------------------------------------------------
  free energy    TOTEN  =      -105.03856061 eV

  energy without entropy =     -105.03856061  energy(sigma->0) =     -105.03856061


--------------------------------------------------------------------------------------------------------




--------------------------------------- Iteration      1(  13)  ---------------------------------------


    POTLOK:  cpu time    0.0559: real time    0.0671
    SETDIJ:  cpu time    0.0032: real time    0.0032
     EDDAV:  cpu time    2.9858: real time    2.9930
 BZINTS: Fermi energy: -0.499734;144.000000 electrons
         Band energy:***********;  BLOECHL correction:  0.000000
       DOS:  cpu time    0.0021: real time    0.0020
    CHARGE:  cpu time    0.1430: real time    0.1433
    MIXING:  cpu time    0.0052: real time    0.0053
    --------------------------------------------
      LOOP:  cpu time    3.1952: real time    3.2140

 eigenvalue-minimisations  :  3256
 total energy-change (2. order) :-0.9534513E-02  (-0.1017825E-02)
 number of electron     143.9999993 magnetization 
 augmentation part      -17.6509589 magnetization 

 Broyden mixing:
  rms(total) = 0.64968E-02    rms(broyden)= 0.64968E-02
  rms(prec ) = 0.11178E-01
  weight for this iteration     100.00

 eigenvalues of (default mixing * dielectric matrix)
  average eigenvalue GAMMA=   1.8348
  4.2244  2.9202  2.4215  1.2207  1.2207  0.8977  0.8865  0.8865

 Free energy of the ion-electron system (eV)
  ---------------------------------------------------
  alpha Z        PSCENC =       170.45750602
  Ewald energy   TEWEN  =     11814.89920149
  -Hartree energ DENC   =    -18235.16260086
  -exchange      EXHF   =         0.00000000
  -V(xc)+E(xc)   XCENC  =        49.50794592
  PAW double counting   =      3826.19175005    -3539.97331188
  entropy T*S    EENTRO =         0.00000000
  eigenvalues    EBANDS =     -1441.82834608
  atomic energy  EATOM  =      7250.85976021
  Solvation  Ediel_sol  =         0.00000000
  ---------------------------------------------------
  free energy    TOTEN  =      -105.04809513 eV

  energy without entropy =     -105.04809513  energy(sigma->0) =     -105.04809513


--------------------------------------------------------------------------------------------------------




--------------------------------------- Iteration      1(  14)  ---------------------------------------


    POTLOK:  cpu time    0.0588: real time    0.0703
    SETDIJ:  cpu time    0.0018: real time    0.0018
     EDDAV:  cpu time    2.8523: real time    2.8591
 BZINTS: Fermi energy: -0.483160;144.000000 electrons
         Band energy:***********;  BLOECHL correction:  0.000000
       DOS:  cpu time    0.0019: real time    0.0019
    CHARGE:  cpu time    0.1455: real time    0.1458
    MIXING:  cpu time    0.0075: real time    0.0075
    --------------------------------------------
      LOOP:  cpu time    3.0678: real time    3.0864

 eigenvalue-minimisations  :  3080
 total energy-change (2. order) :-0.5301880E-02  (-0.2874780E-03)
 number of electron     143.9999993 magnetization 
 augmentation part      -17.6516694 magnetization 

 Broyden mixing:
  rms(total) = 0.54630E-02    rms(broyden)= 0.54630E-02
  rms(prec ) = 0.87464E-02
  weight for this iteration     100.00

 eigenvalues of (default mixing * dielectric matrix)
  average eigenvalue GAMMA=   1.8665
  4.6455  3.1415  2.1338  1.4952  1.4952  0.9102  0.9102  1.0335  1.0335

 Free energy of the ion-electron system (eV)
  ---------------------------------------------------
  alpha Z        PSCENC =       170.45750602
  Ewald energy   TEWEN  =     11814.89920149
  -Hartree energ DENC   =    -18238.51630871
  -exchange      EXHF   =         0.00000000
  -V(xc)+E(xc)   XCENC  =        49.50724119
  PAW double counting   =      3825.29489593    -3539.08820601
  entropy T*S    EENTRO =         0.00000000
  eigenvalues    EBANDS =     -1438.46748712
  atomic energy  EATOM  =      7250.85976021
  Solvation  Ediel_sol  =         0.00000000
  ---------------------------------------------------
  free energy    TOTEN  =      -105.05339701 eV

  energy without entropy =     -105.05339701  energy(sigma->0) =     -105.05339701


--------------------------------------------------------------------------------------------------------




--------------------------------------- Iteration      1(  15)  ---------------------------------------


    POTLOK:  cpu time    0.0661: real time    0.0769
    SETDIJ:  cpu time    0.0015: real time    0.0015
     EDDAV:  cpu time    2.8916: real time    2.8984
 BZINTS: Fermi energy: -0.474147;144.000000 electrons
         Band energy:***********;  BLOECHL correction:  0.000000
       DOS:  cpu time    0.0020: real time    0.0020
    CHARGE:  cpu time    0.1440: real time    0.1443
    MIXING:  cpu time    0.0060: real time    0.0060
    --------------------------------------------
      LOOP:  cpu time    3.1111: real time    3.1291

 eigenvalue-minimisations  :  3016
 total energy-change (2. order) :-0.1883646E-02  (-0.1779638E-03)
 number of electron     143.9999993 magnetization 
 augmentation part      -17.6534586 magnetization 

 Broyden mixing:
  rms(total) = 0.21029E-02    rms(broyden)= 0.21029E-02
  rms(prec ) = 0.40418E-02
  weight for this iteration     100.00

 eigenvalues of (default mixing * dielectric matrix)
  average eigenvalue GAMMA=   1.9630
  5.4211  3.6252  2.4457  1.7348  0.9069  0.9069  1.2595  1.2595  1.0353  1.0353

 Free energy of the ion-electron system (eV)
  ---------------------------------------------------
  alpha Z        PSCENC =       170.45750602
  Ewald energy   TEWEN  =     11814.89920149
  -Hartree energ DENC   =    -18240.16498816
  -exchange      EXHF   =         0.00000000
  -V(xc)+E(xc)   XCENC  =        49.50074200
  PAW double counting   =      3825.75471276    -3539.51378983
  entropy T*S    EENTRO =         0.00000000
  eigenvalues    EBANDS =     -1436.84842514
  atomic energy  EATOM  =      7250.85976021
  Solvation  Ediel_sol  =         0.00000000
  ---------------------------------------------------
  free energy    TOTEN  =      -105.05528065 eV

  energy without entropy =     -105.05528065  energy(sigma->0) =     -105.05528065


--------------------------------------------------------------------------------------------------------




--------------------------------------- Iteration      1(  16)  ---------------------------------------


    POTLOK:  cpu time    0.0620: real time    0.0728
    SETDIJ:  cpu time    0.0016: real time    0.0016
     EDDAV:  cpu time    2.8261: real time    2.8327
 BZINTS: Fermi energy: -0.467395;144.000000 electrons
         Band energy:***********;  BLOECHL correction:  0.000000
       DOS:  cpu time    0.0021: real time    0.0021
    CHARGE:  cpu time    0.1457: real time    0.1460
    MIXING:  cpu time    0.0060: real time    0.0061
    --------------------------------------------
      LOOP:  cpu time    3.0435: real time    3.0613

 eigenvalue-minimisations  :  3112
 total energy-change (2. order) :-0.9774173E-03  (-0.6626952E-04)
 number of electron     143.9999993 magnetization 
 augmentation part      -17.6533848 magnetization 

 Broyden mixing:
  rms(total) = 0.15077E-02    rms(broyden)= 0.15077E-02
  rms(prec ) = 0.27167E-02
  weight for this iteration     100.00

 eigenvalues of (default mixing * dielectric matrix)
  average eigenvalue GAMMA=   2.0156
  5.6754  4.0591  2.4802  1.7969  1.7969  0.9103  0.9103  1.2717  1.2717  0.9996
  0.9996

 Free energy of the ion-electron system (eV)
  ---------------------------------------------------
  alpha Z        PSCENC =       170.45750602
  Ewald energy   TEWEN  =     11814.89920149
  -Hartree energ DENC   =    -18241.51270275
  -exchange      EXHF   =         0.00000000
  -V(xc)+E(xc)   XCENC  =        49.49799454
  PAW double counting   =      3825.93547180    -3539.70292834
  entropy T*S    EENTRO =         0.00000000
  eigenvalues    EBANDS =     -1435.49056103
  atomic energy  EATOM  =      7250.85976021
  Solvation  Ediel_sol  =         0.00000000
  ---------------------------------------------------
  free energy    TOTEN  =      -105.05625807 eV

  energy without entropy =     -105.05625807  energy(sigma->0) =     -105.05625807


--------------------------------------------------------------------------------------------------------




--------------------------------------- Iteration      1(  17)  ---------------------------------------


    POTLOK:  cpu time    0.0586: real time    0.0708
    SETDIJ:  cpu time    0.0015: real time    0.0015
     EDDAV:  cpu time    2.9542: real time    2.9612
 BZINTS: Fermi energy: -0.462706;144.000000 electrons
         Band energy:***********;  BLOECHL correction:  0.000000
       DOS:  cpu time    0.0020: real time    0.0020
    CHARGE:  cpu time    0.1520: real time    0.1524
    MIXING:  cpu time    0.0065: real time    0.0066
    --------------------------------------------
      LOOP:  cpu time    3.1749: real time    3.1945

 eigenvalue-minimisations  :  3112
 total energy-change (2. order) :-0.4539866E-03  (-0.2713549E-04)
 number of electron     143.9999993 magnetization 
 augmentation part      -17.6533348 magnetization 

 Broyden mixing:
  rms(total) = 0.94611E-03    rms(broyden)= 0.94611E-03
  rms(prec ) = 0.17805E-02
  weight for this iteration     100.00

 eigenvalues of (default mixing * dielectric matrix)
  average eigenvalue GAMMA=   2.0428
  6.0103  4.3351  2.7538  2.1917  1.6612  0.9091  0.9091  1.3357  1.3357  0.9619
  1.0551  1.0551

 Free energy of the ion-electron system (eV)
  ---------------------------------------------------
  alpha Z        PSCENC =       170.45750602
  Ewald energy   TEWEN  =     11814.89920149
  -Hartree energ DENC   =    -18242.47994546
  -exchange      EXHF   =         0.00000000
  -V(xc)+E(xc)   XCENC  =        49.49965430
  PAW double counting   =      3825.95602807    -3539.72103540
  entropy T*S    EENTRO =         0.00000000
  eigenvalues    EBANDS =     -1434.52788127
  atomic energy  EATOM  =      7250.85976021
  Solvation  Ediel_sol  =         0.00000000
  ---------------------------------------------------
  free energy    TOTEN  =      -105.05671206 eV

  energy without entropy =     -105.05671206  energy(sigma->0) =     -105.05671206


--------------------------------------------------------------------------------------------------------




--------------------------------------- Iteration      1(  18)  ---------------------------------------


    POTLOK:  cpu time    0.0581: real time    0.0696
    SETDIJ:  cpu time    0.0020: real time    0.0020
     EDDAV:  cpu time    2.7070: real time    2.7134
 BZINTS: Fermi energy: -0.461469;144.000000 electrons
         Band energy:***********;  BLOECHL correction:  0.000000
       DOS:  cpu time    0.0020: real time    0.0020
    CHARGE:  cpu time    0.1507: real time    0.1511
    MIXING:  cpu time    0.0057: real time    0.0058
    --------------------------------------------
      LOOP:  cpu time    2.9255: real time    2.9438

 eigenvalue-minimisations  :  2992
 total energy-change (2. order) :-0.7311384E-03  (-0.1485212E-04)
 number of electron     143.9999993 magnetization 
 augmentation part      -17.6531900 magnetization 

 Broyden mixing:
  rms(total) = 0.57747E-03    rms(broyden)= 0.57747E-03
  rms(prec ) = 0.10392E-02
  weight for this iteration     100.00

 eigenvalues of (default mixing * dielectric matrix)
  average eigenvalue GAMMA=   2.1178
  6.3271  4.9907  2.9631  2.4986  1.8556  0.9084  0.9084  1.3897  1.3897  1.1830
  1.1830  0.9672  0.9672

 Free energy of the ion-electron system (eV)
  ---------------------------------------------------
  alpha Z        PSCENC =       170.45750602
  Ewald energy   TEWEN  =     11814.89920149
  -Hartree energ DENC   =    -18243.10521412
  -exchange      EXHF   =         0.00000000
  -V(xc)+E(xc)   XCENC  =        49.50146212
  PAW double counting   =      3825.92638153    -3539.68950489
  entropy T*S    EENTRO =         0.00000000
  eigenvalues    EBANDS =     -1433.90703555
  atomic energy  EATOM  =      7250.85976021
  Solvation  Ediel_sol  =         0.00000000
  ---------------------------------------------------
  free energy    TOTEN  =      -105.05744320 eV

  energy without entropy =     -105.05744320  energy(sigma->0) =     -105.05744320


--------------------------------------------------------------------------------------------------------




--------------------------------------- Iteration      1(  19)  ---------------------------------------


    POTLOK:  cpu time    0.0605: real time    0.0718
    SETDIJ:  cpu time    0.0014: real time    0.0014
     EDDAV:  cpu time    2.5395: real time    2.5455
 BZINTS: Fermi energy: -0.462789;144.000000 electrons
         Band energy:***********;  BLOECHL correction:  0.000000
       DOS:  cpu time    0.0020: real time    0.0020
    CHARGE:  cpu time    0.1468: real time    0.1472
    MIXING:  cpu time    0.0078: real time    0.0079
    --------------------------------------------
      LOOP:  cpu time    2.7581: real time    2.7758

 eigenvalue-minimisations  :  2632
 total energy-change (2. order) :-0.6572946E-03  (-0.7860313E-05)
 number of electron     143.9999993 magnetization 
 augmentation part      -17.6533368 magnetization 

 Broyden mixing:
  rms(total) = 0.43490E-03    rms(broyden)= 0.43490E-03
  rms(prec ) = 0.64429E-03
  weight for this iteration     100.00

 eigenvalues of (default mixing * dielectric matrix)
  average eigenvalue GAMMA=   2.2270
  6.8031  5.6016  3.3859  2.7001  2.1747  1.6220  1.6220  0.9084  0.9084  1.2291
  1.2291  0.9682  1.0124  1.0124

 Free energy of the ion-electron system (eV)
  ---------------------------------------------------
  alpha Z        PSCENC =       170.45750602
  Ewald energy   TEWEN  =     11814.89920149
  -Hartree energ DENC   =    -18243.39014009
  -exchange      EXHF   =         0.00000000
  -V(xc)+E(xc)   XCENC  =        49.50019443
  PAW double counting   =      3825.87635504    -3539.63802275
  entropy T*S    EENTRO =         0.00000000
  eigenvalues    EBANDS =     -1433.62295485
  atomic energy  EATOM  =      7250.85976021
  Solvation  Ediel_sol  =         0.00000000
  ---------------------------------------------------
  free energy    TOTEN  =      -105.05810049 eV

  energy without entropy =     -105.05810049  energy(sigma->0) =     -105.05810049


--------------------------------------------------------------------------------------------------------




--------------------------------------- Iteration      1(  20)  ---------------------------------------


    POTLOK:  cpu time    0.0617: real time    0.0727
    SETDIJ:  cpu time    0.0016: real time    0.0016
     EDDAV:  cpu time    2.6647: real time    2.6710
 BZINTS: Fermi energy: -0.465088;144.000000 electrons
         Band energy:***********;  BLOECHL correction:  0.000000
       DOS:  cpu time    0.0019: real time    0.0019
    CHARGE:  cpu time    0.1512: real time    0.1516
    MIXING:  cpu time    0.0061: real time    0.0061
    --------------------------------------------
      LOOP:  cpu time    2.8873: real time    2.9049

 eigenvalue-minimisations  :  2728
 total energy-change (2. order) :-0.4448969E-03  (-0.7610336E-05)
 number of electron     143.9999993 magnetization 
 augmentation part      -17.6533983 magnetization 

 Broyden mixing:
  rms(total) = 0.17356E-03    rms(broyden)= 0.17356E-03
  rms(prec ) = 0.24893E-03
  weight for this iteration     100.00

 eigenvalues of (default mixing * dielectric matrix)
  average eigenvalue GAMMA=   2.3143
  7.5150  6.4106  3.4603  3.1139  2.3409  1.6735  1.6735  0.9085  0.9085  1.2755
  1.2755  1.1173  1.1173  0.9619  0.9619

 Free energy of the ion-electron system (eV)
  ---------------------------------------------------
  alpha Z        PSCENC =       170.45750602
  Ewald energy   TEWEN  =     11814.89920149
  -Hartree energ DENC   =    -18243.52314066
  -exchange      EXHF   =         0.00000000
  -V(xc)+E(xc)   XCENC  =        49.50001190
  PAW double counting   =      3825.87066290    -3539.63236818
  entropy T*S    EENTRO =         0.00000000
  eigenvalues    EBANDS =     -1433.49017907
  atomic energy  EATOM  =      7250.85976021
  Solvation  Ediel_sol  =         0.00000000
  ---------------------------------------------------
  free energy    TOTEN  =      -105.05854539 eV

  energy without entropy =     -105.05854539  energy(sigma->0) =     -105.05854539


--------------------------------------------------------------------------------------------------------




--------------------------------------- Iteration      1(  21)  ---------------------------------------


    POTLOK:  cpu time    0.0632: real time    0.0772
    SETDIJ:  cpu time    0.0016: real time    0.0016
     EDDAV:  cpu time    2.3937: real time    2.3994
 BZINTS: Fermi energy: -0.468368;144.000000 electrons
         Band energy:***********;  BLOECHL correction:  0.000000
       DOS:  cpu time    0.0020: real time    0.0020
    CHARGE:  cpu time    0.1517: real time    0.1521
    MIXING:  cpu time    0.0065: real time    0.0065
    --------------------------------------------
      LOOP:  cpu time    2.6187: real time    2.6387

 eigenvalue-minimisations  :  2416
 total energy-change (2. order) :-0.1398709E-03  (-0.2100213E-05)
 number of electron     143.9999993 magnetization 
 augmentation part      -17.6533754 magnetization 

 Broyden mixing:
  rms(total) = 0.99887E-04    rms(broyden)= 0.99887E-04
  rms(prec ) = 0.12241E-03
  weight for this iteration     100.00

 eigenvalues of (default mixing * dielectric matrix)
  average eigenvalue GAMMA=   2.3795
  8.7330  6.5349  3.8016  3.1509  2.3917  1.8711  1.8711  0.9085  0.9085  1.2898
  1.2898  1.1892  1.1892  0.9701  0.9701  1.0023

 Free energy of the ion-electron system (eV)
  ---------------------------------------------------
  alpha Z        PSCENC =       170.45750602
  Ewald energy   TEWEN  =     11814.89920149
  -Hartree energ DENC   =    -18243.48219003
  -exchange      EXHF   =         0.00000000
  -V(xc)+E(xc)   XCENC  =        49.49934313
  PAW double counting   =      3825.87591325    -3539.63821907
  entropy T*S    EENTRO =         0.00000000
  eigenvalues    EBANDS =     -1433.53000025
  atomic energy  EATOM  =      7250.85976021
  Solvation  Ediel_sol  =         0.00000000
  ---------------------------------------------------
  free energy    TOTEN  =      -105.05868526 eV

  energy without entropy =     -105.05868526  energy(sigma->0) =     -105.05868526


--------------------------------------------------------------------------------------------------------




--------------------------------------- Iteration      1(  22)  ---------------------------------------


    POTLOK:  cpu time    0.0563: real time    0.0674
    SETDIJ:  cpu time    0.0015: real time    0.0015
     EDDAV:  cpu time    2.3536: real time    2.3592
 BZINTS: Fermi energy: -0.471059;144.000000 electrons
         Band energy:***********;  BLOECHL correction:  0.000000
       DOS:  cpu time    0.0021: real time    0.0021
    CHARGE:  cpu time    0.1423: real time    0.1427
    MIXING:  cpu time    0.0063: real time    0.0063
    --------------------------------------------
      LOOP:  cpu time    2.5620: real time    2.5791

 eigenvalue-minimisations  :  2384
 total energy-change (2. order) :-0.3110130E-04  (-0.2782303E-06)
 number of electron     143.9999993 magnetization 
 augmentation part      -17.6533708 magnetization 

 Broyden mixing:
  rms(total) = 0.52888E-04    rms(broyden)= 0.52887E-04
  rms(prec ) = 0.66753E-04
  weight for this iteration     100.00

 eigenvalues of (default mixing * dielectric matrix)
  average eigenvalue GAMMA=   2.3764
  8.8895  6.8789  3.7625  3.3756  2.5116  2.0923  1.8319  0.9085  0.9085  1.4216
  1.2654  1.2654  1.1601  1.1601  1.0588  0.9538  0.9538

 Free energy of the ion-electron system (eV)
  ---------------------------------------------------
  alpha Z        PSCENC =       170.45750602
  Ewald energy   TEWEN  =     11814.89920149
  -Hartree energ DENC   =    -18243.48519693
  -exchange      EXHF   =         0.00000000
  -V(xc)+E(xc)   XCENC  =        49.49915385
  PAW double counting   =      3825.86505609    -3539.62729501
  entropy T*S    EENTRO =         0.00000000
  eigenvalues    EBANDS =     -1433.52690208
  atomic energy  EATOM  =      7250.85976021
  Solvation  Ediel_sol  =         0.00000000
  ---------------------------------------------------
  free energy    TOTEN  =      -105.05871636 eV

  energy without entropy =     -105.05871636  energy(sigma->0) =     -105.05871636


--------------------------------------------------------------------------------------------------------




--------------------------------------- Iteration      1(  23)  ---------------------------------------


    POTLOK:  cpu time    0.0575: real time    0.0696
    SETDIJ:  cpu time    0.0014: real time    0.0014
     EDDAV:  cpu time    2.1819: real time    2.1872
 BZINTS: Fermi energy: -0.473528;144.000000 electrons
         Band energy:***********;  BLOECHL correction:  0.000000
       DOS:  cpu time    0.0019: real time    0.0019
    CHARGE:  cpu time    0.1457: real time    0.1461
    MIXING:  cpu time    0.0070: real time    0.0070
    --------------------------------------------
      LOOP:  cpu time    2.3955: real time    2.4133

 eigenvalue-minimisations  :  2088
 total energy-change (2. order) :-0.1496563E-04  (-0.1306448E-06)
 number of electron     143.9999993 magnetization 
 augmentation part      -17.6533695 magnetization 

 Broyden mixing:
  rms(total) = 0.23506E-04    rms(broyden)= 0.23506E-04
  rms(prec ) = 0.30863E-04
  weight for this iteration     100.00

 eigenvalues of (default mixing * dielectric matrix)
  average eigenvalue GAMMA=   2.3606
  9.0244  6.9411  3.6927  3.6927  2.5389  2.1486  1.8589  1.8589  0.9085  0.9085
  1.2648  1.2648  1.2025  1.2025  1.0381  0.9700  0.9700  1.0051

 Free energy of the ion-electron system (eV)
  ---------------------------------------------------
  alpha Z        PSCENC =       170.45750602
  Ewald energy   TEWEN  =     11814.89920149
  -Hartree energ DENC   =    -18243.47797717
  -exchange      EXHF   =         0.00000000
  -V(xc)+E(xc)   XCENC  =        49.49910966
  PAW double counting   =      3825.86494698    -3539.62718044
  entropy T*S    EENTRO =         0.00000000
  eigenvalues    EBANDS =     -1433.53409806
  atomic energy  EATOM  =      7250.85976021
  Solvation  Ediel_sol  =         0.00000000
  ---------------------------------------------------
  free energy    TOTEN  =      -105.05873132 eV

  energy without entropy =     -105.05873132  energy(sigma->0) =     -105.05873132


--------------------------------------------------------------------------------------------------------




--------------------------------------- Iteration      1(  24)  ---------------------------------------


    POTLOK:  cpu time    0.0610: real time    0.0718
    SETDIJ:  cpu time    0.0017: real time    0.0017
     EDDAV:  cpu time    2.1037: real time    2.1087
 BZINTS: Fermi energy: -0.389286;144.000000 electrons
         Band energy:***********;  BLOECHL correction:  0.000000
       DOS:  cpu time    0.0023: real time    0.0023
    CHARGE:  cpu time    0.1432: real time    0.1436
    MIXING:  cpu time    0.0071: real time    0.0072
    --------------------------------------------
      LOOP:  cpu time    2.3190: real time    2.3352

 eigenvalue-minimisations  :  1936
 total energy-change (2. order) :-0.2512301E-05  (-0.1755554E-07)
 number of electron     143.9999993 magnetization 
 augmentation part      -17.6533734 magnetization 

 Broyden mixing:
  rms(total) = 0.16925E-04    rms(broyden)= 0.16925E-04
  rms(prec ) = 0.24551E-04
  weight for this iteration     100.00

 eigenvalues of (default mixing * dielectric matrix)
  average eigenvalue GAMMA=   2.3647
  9.0480  7.0216  3.8246  3.8246  2.7873  2.3673  2.2410  1.7209  0.9085  0.9085
  1.4791  1.2583  1.2583  1.1584  1.1584  0.9572  0.9572  1.0254  1.0254

 Free energy of the ion-electron system (eV)
  ---------------------------------------------------
  alpha Z        PSCENC =       170.45750602
  Ewald energy   TEWEN  =     11814.89920149
  -Hartree energ DENC   =    -18243.47342351
  -exchange      EXHF   =         0.00000000
  -V(xc)+E(xc)   XCENC  =        49.49904539
  PAW double counting   =      3825.86582591    -3539.62804271
  entropy T*S    EENTRO =         0.00000000
  eigenvalues    EBANDS =     -1433.53860663
  atomic energy  EATOM  =      7250.85976021
  Solvation  Ediel_sol  =         0.00000000
  ---------------------------------------------------
  free energy    TOTEN  =      -105.05873384 eV

  energy without entropy =     -105.05873384  energy(sigma->0) =     -105.05873384


--------------------------------------------------------------------------------------------------------




--------------------------------------- Iteration      1(  25)  ---------------------------------------


    POTLOK:  cpu time    0.0567: real time    0.0682
    SETDIJ:  cpu time    0.0016: real time    0.0016
     EDDAV:  cpu time    1.9840: real time    1.9887
 BZINTS: Fermi energy: -0.391216;144.000000 electrons
         Band energy:***********;  BLOECHL correction:  0.000000
       DOS:  cpu time    0.0025: real time    0.0025
    CHARGE:  cpu time    0.1437: real time    0.1441
    MIXING:  cpu time    0.0072: real time    0.0073
    --------------------------------------------
      LOOP:  cpu time    2.1959: real time    2.2124

 eigenvalue-minimisations  :  1848
 total energy-change (2. order) :-0.1061020E-05  (-0.1601570E-07)
 number of electron     143.9999993 magnetization 
 augmentation part      -17.6533746 magnetization 

 Broyden mixing:
  rms(total) = 0.62658E-05    rms(broyden)= 0.62658E-05
  rms(prec ) = 0.91593E-05
  weight for this iteration     100.00

 eigenvalues of (default mixing * dielectric matrix)
  average eigenvalue GAMMA=   2.3304
  9.1083  6.9907  4.0610  3.6945  3.0111  2.5042  1.8909  1.8909  0.9085  0.9085
  1.4563  1.4563  1.2267  1.2267  1.1632  1.1632  0.9674  0.9674  0.9550  1.0574

 Free energy of the ion-electron system (eV)
  ---------------------------------------------------
  alpha Z        PSCENC =       170.45750602
[...]
      7     -27.8668      2.00000
      8     -27.8665      2.00000
      9     -14.8529      2.00000
     10     -14.8527      2.00000
     11     -14.7854      2.00000
     12     -14.7854      2.00000
     13     -14.7128      2.00000
     14     -14.7128      2.00000
     15     -13.9243      2.00000
     16     -13.9236      2.00000
     17     -13.8457      2.00000
     18     -13.8353      2.00000
     19     -13.7923      2.00000
     20     -13.7878      2.00000
     21     -13.7724      2.00000
     22     -13.7701      2.00000
     23     -13.7604      2.00000
     24     -13.7585      2.00000
     25     -13.7200      2.00000
     26     -13.7128      2.00000
     27     -13.2400      2.00000
     28     -13.2309      2.00000
     29     -13.1895      2.00000
     30     -13.1815      2.00000
     31     -13.1619      2.00000
     32     -13.1604      2.00000
     33     -10.9912      2.00000
     34     -10.9799      2.00000
     35     -10.6300      2.00000
     36     -10.6155      2.00000
     37      -6.3853      2.00000
     38      -6.3695      2.00000
     39      -6.1421      2.00000
     40      -6.1318      2.00000
     41      -6.0707      2.00000
     42      -6.0671      2.00000
     43      -5.8267      2.00000
     44      -5.8135      2.00000
     45      -5.7740      2.00000
     46      -5.7295      2.00000
     47      -5.6944      2.00000
     48      -5.5850      2.00000
     49      -2.7495      2.00000
     50      -2.6596      2.00000
     51      -2.5064      2.00000
     52      -2.4606      2.00000
     53      -2.1627      2.00000
     54      -2.0843      2.00000
     55      -2.0660      2.00000
     56      -2.0307      2.00000
     57      -1.8969      2.00000
     58      -1.8731      2.00000
     59      -1.7649      2.00000
     60      -1.6752      2.00000
     61      -1.6107      2.00000
     62      -1.5345      2.00000
     63      -1.4335      2.00000
     64      -1.3766      2.00000
     65      -1.2459      2.00000
     66      -1.1769      2.00000
     67      -1.1188      2.00000
     68      -0.9960      2.00000
     69      -0.8748      2.00000
     70      -0.7954      2.00000
     71      -0.7623      2.00000
     72      -0.7075      2.00000
     73       0.4311      0.00000
     74       0.4599      0.00000
     75       0.5961      0.00000
     76       0.6340      0.00000
     77       0.7071      0.00000
     78       0.8116      0.00000
     79       0.9466      0.00000
     80       0.9894      0.00000
     81       1.0111      0.00000
     82       1.1432      0.00000
     83       1.2808      0.00000
     84       1.3728      0.00000
     85       1.4237      0.00000
     86       1.5613      0.00000
     87       1.6649      0.00000
     88       1.7895      0.00000

 k-point    15 :       0.0000    0.5000    0.4000
  band No.  band energies     occupation 
      1     -29.5116      2.00000
      2     -29.5116      2.00000
      3     -28.4966      2.00000
      4     -28.4966      2.00000
      5     -28.4705      2.00000
      6     -28.4705      2.00000
      7     -27.8667      2.00000
      8     -27.8667      2.00000
      9     -14.8524      2.00000
     10     -14.8524      2.00000
     11     -14.7861      2.00000
     12     -14.7861      2.00000
     13     -14.7148      2.00000
     14     -14.7148      2.00000
     15     -13.9232      2.00000
     16     -13.9232      2.00000
     17     -13.8422      2.00000
     18     -13.8422      2.00000
     19     -13.7924      2.00000
     20     -13.7924      2.00000
     21     -13.7751      2.00000
     22     -13.7751      2.00000
     23     -13.7585      2.00000
     24     -13.7585      2.00000
     25     -13.7159      2.00000
     26     -13.7159      2.00000
     27     -13.2352      2.00000
     28     -13.2352      2.00000
     29     -13.1857      2.00000
     30     -13.1857      2.00000
     31     -13.1606      2.00000
     32     -13.1606      2.00000
     33     -10.9799      2.00000
     34     -10.9799      2.00000
     35     -10.6132      2.00000
     36     -10.6132      2.00000
     37      -6.4063      2.00000
     38      -6.4063      2.00000
     39      -6.1117      2.00000
     40      -6.1117      2.00000
     41      -6.0692      2.00000
     42      -6.0692      2.00000
     43      -5.7969      2.00000
     44      -5.7969      2.00000
     45      -5.7610      2.00000
     46      -5.7610      2.00000
     47      -5.6356      2.00000
     48      -5.6356      2.00000
     49      -2.6574      2.00000
     50      -2.6574      2.00000
     51      -2.5022      2.00000
     52      -2.5022      2.00000
     53      -2.1173      2.00000
     54      -2.1173      2.00000
     55      -2.0624      2.00000
     56      -2.0624      2.00000
     57      -1.8909      2.00000
     58      -1.8909      2.00000
     59      -1.6688      2.00000
     60      -1.6688      2.00000
     61      -1.4705      2.00000
     62      -1.4705      2.00000
     63      -1.4627      2.00000
     64      -1.4627      2.00000
     65      -1.2279      2.00000
     66      -1.2279      2.00000
     67      -1.0558      2.00000
     68      -1.0558      2.00000
     69      -0.8627      2.00000
     70      -0.8627      2.00000
     71      -0.7407      2.00000
     72      -0.7407      2.00000
     73       0.3501      0.00000
     74       0.3501      0.00000
     75       0.5864      0.00000
     76       0.5864      0.00000
     77       0.7611      0.00000
     78       0.7611      0.00000
     79       0.9267      0.00000
     80       0.9267      0.00000
     81       1.0001      0.00000
     82       1.0001      0.00000
     83       1.3471      0.00000
     84       1.3471      0.00000
     85       1.5308      0.00000
     86       1.5308      0.00000
     87       1.6251      0.00000
     88       1.6251      0.00000


--------------------------------------------------------------------------------------------------------


 soft charge-density along one line, spin component           1
         0         1         2         3         4         5         6         7         8         9
 total charge-density along one line
 
 pseudopotential strength for first ion, spin component:           1
  5.088  -5.594  -0.000  -0.008  -0.037  -0.000  -0.003  -0.015
 -5.594  -2.740   0.000   0.002   0.007  -0.000  -0.001  -0.006
 -0.000   0.000  -6.779  -0.000  -0.000   1.859  -0.000  -0.000
 -0.008   0.002  -0.000  -6.774  -0.002  -0.000   1.871  -0.004
 -0.037   0.007  -0.000  -0.002  -6.774  -0.000  -0.004   1.870
 -0.000  -0.000   1.859  -0.000  -0.000   7.309  -0.000  -0.000
 -0.003  -0.001  -0.000   1.871  -0.004  -0.000   7.310  -0.000
 -0.015  -0.006  -0.000  -0.004   1.870  -0.000  -0.000   7.310
 -0.000   0.000  -0.013  -0.000  -0.000  -0.009  -0.000  -0.000
 -0.000   0.000  -0.001  -0.000  -0.000  -0.000  -0.000  -0.000
  0.002  -0.001   0.000  -0.004   0.007   0.000  -0.003   0.005
 -0.002   0.001  -0.000  -0.013  -0.002  -0.000  -0.008  -0.002
  0.003  -0.001   0.000  -0.001  -0.012   0.000  -0.001  -0.008
  0.000   0.000   0.001   0.000   0.000   0.000   0.000   0.000
  0.000   0.000   0.000   0.000   0.000  -0.000   0.000   0.000
 -0.000  -0.000  -0.000   0.000  -0.000  -0.000   0.000  -0.000
  0.000   0.000   0.000   0.001   0.000   0.000   0.000   0.000
 -0.000  -0.000  -0.000   0.000   0.000  -0.000   0.000   0.000
 total augmentation occupancy for first ion, spin component:           1
  2.102  -0.256   0.000   0.012   0.055   0.000  -0.006  -0.020   0.000   0.000   0.016  -0.010   0.034   0.000  -0.000  -0.010
 -0.256   0.638   0.000  -0.033  -0.144   0.000   0.012   0.033  -0.000   0.000  -0.028   0.012  -0.065   0.000   0.000   0.041
  0.000  -0.000   2.012   0.000  -0.000  -0.011   0.000   0.000  -0.084   0.022   0.000   0.000   0.000   0.078  -0.042   0.000
  0.012  -0.033   0.000   2.000   0.003   0.000  -0.002  -0.002   0.000   0.000  -0.045  -0.068  -0.014   0.000  -0.000   0.044
  0.055  -0.144   0.000   0.003   1.995  -0.000  -0.002  -0.000   0.000   0.000   0.035  -0.007  -0.052   0.000   0.000  -0.032
  0.000   0.000  -0.011   0.000  -0.000   0.008   0.000   0.000   0.022  -0.009  -0.000   0.000  -0.000  -0.030   0.014   0.000
 -0.006   0.012  -0.000  -0.002  -0.002   0.000   0.005   0.001   0.000   0.000   0.016   0.016   0.005  -0.000   0.000  -0.022
 -0.020   0.033   0.000  -0.002  -0.000   0.000   0.001   0.004   0.000   0.000  -0.007   0.000   0.008  -0.000   0.000   0.008
  0.000   0.000  -0.084   0.000   0.000   0.022   0.000  -0.000   0.147  -0.014   0.000   0.000   0.000  -0.185   0.019   0.000
  0.000   0.000   0.022   0.000   0.000  -0.009   0.000   0.000  -0.014   0.068   0.000   0.000   0.000   0.018  -0.085   0.000
  0.016  -0.028   0.000  -0.045   0.035   0.000   0.016  -0.007   0.000   0.000   0.121   0.051   0.020   0.000   0.000  -0.148
 -0.010   0.012  -0.000  -0.068  -0.007   0.000   0.016   0.000   0.000  -0.000   0.051   0.087   0.008   0.000   0.000  -0.070
  0.034  -0.065   0.000  -0.014  -0.052   0.000   0.005   0.008   0.000  -0.000   0.020   0.008   0.096  -0.000   0.000  -0.027
  0.000   0.000   0.078   0.000   0.000  -0.030   0.000  -0.000  -0.185   0.018   0.000  -0.000  -0.000   0.261  -0.033  -0.000
  0.000   0.000  -0.042  -0.000   0.000   0.014   0.000   0.000   0.019  -0.085   0.000   0.000   0.000  -0.033   0.114   0.000
 -0.010   0.041   0.000   0.044  -0.032   0.000  -0.022   0.008   0.000   0.000  -0.148  -0.070  -0.027   0.000   0.000   0.203
  0.007  -0.030   0.000   0.064   0.000   0.000  -0.022  -0.001  -0.000   0.000  -0.069  -0.110  -0.011   0.000   0.000   0.105
 -0.026   0.078   0.000   0.022   0.050  -0.000  -0.008  -0.011   0.000   0.000  -0.028  -0.013  -0.126   0.000   0.000   0.044


------------------------ aborting loop because EDIFF is reached ----------------------------------------


    CHARGE:  cpu time    0.1539: real time    0.1543
    FORLOC:  cpu time    0.0093: real time    0.0093
    FORNL :  cpu time    0.5368: real time    0.5381
    STRESS:  cpu time    1.5970: real time    1.6009
    FORCOR:  cpu time    0.0703: real time    0.0704
    FORHAR:  cpu time    0.0231: real time    0.0232
    MIXING:  cpu time    0.0085: real time    0.0089
    OFIELD:  cpu time    0.0000: real time    0.0000

  FORCE on cell =-STRESS in cart. coord.  units (eV):
  Direction    XX          YY          ZZ          XY          YZ          ZX
  --------------------------------------------------------------------------------------
  Alpha Z   170.45751   170.45751   170.45751
  Ewald  -19571.04027 15961.63673 15424.28907    -0.00002     0.00000   143.30077
  Hartree-16510.02923 17587.66590 17165.83329     0.00000    -0.00000   109.73599
  E(xc)    -461.94978  -460.08266  -460.50830    -0.00000    -0.00000     0.18280
  Local   34666.14278-34984.49768-34017.19806     0.00001    -0.00000  -251.07206
  n-local   338.83036   338.78690   339.82852     0.05857    -0.20227    -1.49073
  augment  -169.22512  -169.59762  -169.51426    -0.00000    -0.00000     0.30018
  Kinetic  1528.13482  1545.88091  1537.88507    -0.04442    -0.81970    -0.91125
  Fock        0.00000     0.00000     0.00000     0.00000     0.00000     0.00000
  -------------------------------------------------------------------------------------
  Total      -8.67894    -9.75000    -8.92717     0.00000     0.00000     0.04570
  in kB      -7.36486    -8.27375    -7.57551     0.00000     0.00000     0.03878
  external pressure =       -7.74 kB  Pullay stress =        0.00 kB


 VOLUME and BASIS-vectors are now :
 -----------------------------------------------------------------------------
  energy-cutoff  :      500.00
  volume of cell :     1888.05
      direct lattice vectors                 reciprocal lattice vectors
    24.009468079  0.000000000  0.000000000     0.041650236  0.000000000  0.000000000
     0.000000000  6.777849674  0.000000000     0.000000000  0.147539419  0.000000000
     0.000000000  0.000000000 11.602143288     0.000000000  0.000000000  0.086190971

  length of vectors
    24.009468079  6.777849674 11.602143288     0.041650236  0.147539419  0.086190971


 FORCES acting on ions
    electron-ion (+dipol)            ewald-force                    non-local-force                 convergence-correction
 -----------------------------------------------------------------------------------------------
   0.780E+03 0.102E-04 0.440E+02   -.775E+03 0.985E-05 -.432E+02   -.428E+01 -.612E-18 -.828E+00   0.913E-04 -.645E-09 0.639E-05
   -.780E+03 -.631E-04 -.440E+02   0.775E+03 -.128E-04 0.432E+02   0.428E+01 -.641E-18 0.828E+00   -.913E-04 0.650E-09 -.639E-05
   0.826E+02 -.605E-04 -.376E+02   -.824E+02 -.184E-04 0.363E+02   -.113E+00 0.673E-19 0.129E+01   0.808E-04 0.103E-08 -.592E-04
   -.826E+02 0.114E-04 0.376E+02   0.824E+02 0.130E-04 -.363E+02   0.113E+00 0.127E-22 -.129E+01   -.808E-04 -.991E-09 0.592E-04
   0.627E+03 -.611E-04 -.490E+02   -.625E+03 -.166E-04 0.494E+02   -.192E+01 -.199E-17 -.426E+00   0.163E-03 0.823E-09 -.531E-04
   -.627E+03 0.902E-05 0.490E+02   0.625E+03 0.144E-04 -.494E+02   0.192E+01 -.217E-17 0.426E+00   -.163E-03 -.818E-09 0.531E-04
   0.362E+03 0.118E-04 -.942E+01   -.361E+03 0.132E-04 0.863E+01   -.853E+00 0.121E-17 0.788E+00   0.140E-03 -.962E-09 0.103E-04
   -.362E+03 -.618E-04 0.942E+01   0.361E+03 -.133E-04 -.863E+01   0.853E+00 0.818E-18 -.788E+00   -.140E-03 0.916E-09 -.103E-04
   0.274E+03 0.365E+02 -.467E+02   -.274E+03 -.380E+02 0.476E+02   -.762E-01 0.152E+01 -.870E+00   0.994E-04 0.518E-04 -.464E-04
   -.274E+03 -.365E+02 0.467E+02   0.274E+03 0.380E+02 -.476E+02   0.762E-01 -.152E+01 0.870E+00   -.994E-04 -.518E-04 0.464E-04
   0.122E+03 -.326E+02 0.263E+01   -.122E+03 0.337E+02 -.161E+01   -.322E+00 -.114E+01 -.102E+01   0.368E-04 -.352E-04 -.409E-05
   -.122E+03 0.326E+02 -.263E+01   0.122E+03 -.337E+02 0.161E+01   0.322E+00 0.114E+01 0.102E+01   -.368E-04 0.352E-04 0.409E-05
   -.274E+03 0.365E+02 0.467E+02   0.274E+03 -.380E+02 -.476E+02   0.762E-01 0.152E+01 0.870E+00   -.994E-04 0.518E-04 0.464E-04
   0.274E+03 -.365E+02 -.467E+02   -.274E+03 0.380E+02 0.476E+02   -.762E-01 -.152E+01 -.870E+00   0.994E-04 -.518E-04 -.464E-04
   -.122E+03 -.326E+02 -.263E+01   0.122E+03 0.337E+02 0.161E+01   0.322E+00 -.114E+01 0.102E+01   -.368E-04 -.352E-04 0.409E-05
   0.122E+03 0.326E+02 0.263E+01   -.122E+03 -.337E+02 -.161E+01   -.322E+00 0.114E+01 -.102E+01   0.368E-04 0.352E-04 -.409E-05
   0.330E+03 -.419E-05 0.459E+02   -.332E+03 -.606E-05 -.465E+02   0.140E+01 -.461E-18 0.644E+00   0.822E-04 0.281E-09 0.231E-04
   -.330E+03 0.615E-05 -.459E+02   0.332E+03 0.630E-05 0.465E+02   -.140E+01 -.547E-18 -.644E+00   -.822E-04 -.285E-09 -.231E-04
   0.326E+02 0.942E-05 -.110E+02   -.310E+02 0.759E-05 0.103E+02   -.145E+01 -.703E-19 0.732E+00   -.156E-04 -.393E-09 -.173E-04
   -.326E+02 -.175E-05 0.110E+02   0.310E+02 -.725E-05 -.103E+02   0.145E+01 0.584E-19 -.732E+00   0.156E-04 0.372E-09 0.172E-04
   0.242E+03 0.438E-05 0.119E+02   -.242E+03 0.808E-05 -.131E+02   -.382E+00 -.237E-18 0.115E+01   0.961E-04 -.341E-09 0.368E-04
   -.242E+03 -.551E-05 -.119E+02   0.242E+03 -.813E-05 0.131E+02   0.382E+00 0.225E-19 -.115E+01   -.961E-04 0.326E-09 -.368E-04
   0.157E+03 -.616E-05 0.599E+02   -.156E+03 -.754E-05 -.616E+02   -.708E+00 -.536E-18 0.173E+01   0.448E-04 0.360E-09 0.585E-04
   -.157E+03 0.373E-05 -.599E+02   0.156E+03 0.738E-05 0.616E+02   0.708E+00 0.210E-17 -.173E+01   -.448E-04 -.358E-09 -.585E-04
 -----------------------------------------------------------------------------------------------
   0.703E-04 -.209E-03 0.812E-04   -.853E-13 0.128E-13 -.213E-13   0.000E+00 0.333E-18 0.444E-15   -.817E-09 -.623E-10 -.447E-08
 
 
 POSITION                                       TOTAL-FORCE (eV/Angst)
 -----------------------------------------------------------------------------------
      0.13670      1.69446      8.17765         0.769099     -0.000000     -0.000183
      9.12277      5.08339      3.42449        -0.769099      0.000000      0.000183
      4.36803      5.08339      2.15831         0.155318      0.000000     -0.000441
      4.89143      1.69446      9.44383        -0.155318     -0.000000      0.000441
      1.43529      5.08339     10.63635         0.676167      0.000000     -0.000385
      7.82418      1.69446      0.96579        -0.676167     -0.000000      0.000385
      3.06944      1.69446      4.60413         0.427190     -0.000000      0.000395
      6.19002      5.08339      6.99802        -0.427190     -0.000000     -0.000395
      1.75027      0.49374      1.66516        -0.153161      0.000505      0.000598
      7.50920      6.28411      9.93699         0.153161     -0.000505     -0.000598
      2.75446      6.29263      7.64948         0.146961      0.000228      0.000280
      6.50500      0.48522      3.95266        -0.146961     -0.000228     -0.000280
      7.50920      3.88267      9.93699         0.153161      0.000505     -0.000598
      1.75027      2.89518      1.66516        -0.153161     -0.000505      0.000598
      6.50500      2.90371      3.95266        -0.146961      0.000228     -0.000280
      2.75446      3.87414      7.64948         0.146961     -0.000228      0.000280
      0.74693      5.08339      6.96173        -0.243192      0.000000     -0.000262
      8.51254      1.69446      4.64042         0.243192      0.000000      0.000262
      3.75780      1.69446      0.95950         0.192610     -0.000000     -0.000961
      5.50166      5.08339     10.64264        -0.192610      0.000000      0.000961
      1.78112      1.69446     11.15596        -0.206858     -0.000000      0.000448
      7.47835      5.08339      0.44618         0.206858      0.000000     -0.000448
      2.72362      5.08339      5.53666        -0.226368     -0.000000      0.000411
      6.53585      1.69446      6.06549         0.226368      0.000000     -0.000411
 -----------------------------------------------------------------------------------
    total drift:                                0.000070     -0.000209      0.000081


--------------------------------------------------------------------------------------------------------



  FREE ENERGIE OF THE ION-ELECTRON SYSTEM (eV)
  ---------------------------------------------------
  free  energy   TOTEN  =      -105.05873506 eV

  energy  without entropy=     -105.05873506  energy(sigma->0) =     -105.05873506
 


--------------------------------------------------------------------------------------------------------


    POTLOK:  cpu time    0.0638: real time    0.0639


--------------------------------------------------------------------------------------------------------


 writing wavefunctions
     LOOP+:  cpu time   84.4751: real time   85.4785
    4ORBIT:  cpu time    0.0000: real time    0.0000
 BZINTS: Fermi energy: -0.392885;144.000000 electrons
         Band energy:***********;  BLOECHL correction:  0.000000

 total amount of memory used by VASP MPI-rank0    79358. kBytes
=======================================================================

   base      :      30000. kBytes
   nonlr-proj:       2652. kBytes
   fftplans  :       5898. kBytes
   grid      :       8824. kBytes
   one-center:         93. kBytes
   wavefun   :      31891. kBytes
 
  
  
 General timing and accounting informations for this job:
 ========================================================
  
                  Total CPU time used (sec):       92.325
                            User time (sec):       87.125
                          System time (sec):        5.199
                         Elapsed time (sec):       95.633
  
                   Maximum memory used (kb):      170624.
                   Average memory used (kb):           0.
  
                          Minor page faults:        65873
                          Major page faults:          212
                 Voluntary context switches:        13035
