 vasp.5.4.4.18Apr17-6-g9f103f2a35 (build Nov 21 2017 15:30:27) complex          
  
 executed on             LinuxIFC date 2020.09.15  08:15:49
 running on   64 total cores
 distrk:  each k-point on   32 cores,    2 groups
 distr:  one band on NCORES_PER_BAND=   4 cores,    8 groups


--------------------------------------------------------------------------------------------------------


 INCAR:
 POTCAR:   PAW_PBE Ba_sv 06Sep2000                
 POTCAR:   PAW_PBE Si 05Jan2001                   

 ----------------------------------------------------------------------------- 
|                                                                             |
|           W    W    AA    RRRRR   N    N  II  N    N   GGGG   !!!           |
|           W    W   A  A   R    R  NN   N  II  NN   N  G    G  !!!           |
|           W    W  A    A  R    R  N N  N  II  N N  N  G       !!!           |
|           W WW W  AAAAAA  RRRRR   N  N N  II  N  N N  G  GGG   !            |
|           WW  WW  A    A  R   R   N   NN  II  N   NN  G    G                |
|           W    W  A    A  R    R  N    N  II  N    N   GGGG   !!!           |
|                                                                             |
|      You have enabled k-point parallelism (KPAR>1).                         |
|      This developmental code was originally  written by Paul Kent at ORNL,  |
|      and carefully double checked in Vienna.                                |
|      GW as well as linear response parallelism added by Martijn Marsman     |
|      and Georg Kresse.                                                      |
|      Carefully verify results versus KPAR=1.                                |
|      Report problems to Paul Kent and Vienna.                               |
|                                                                             |
 ----------------------------------------------------------------------------- 

 POTCAR:   PAW_PBE Ba_sv 06Sep2000                
   VRHFIN =Ba: 5s5p6s                                                           
   LEXCH  = PE                                                                  
   EATOM  =   700.2255 eV,   51.4651 Ry                                         
                                                                                
   TITEL  = PAW_PBE Ba_sv 06Sep2000                                             
   LULTRA =        F    use ultrasoft PP ?                                      
   IUNSCR =        1    unscreen: 0-lin 1-nonlin 2-no                           
   RPACOR =    2.400    partial core radius                                     
   POMASS =  137.327; ZVAL   =   10.000    mass and valenz                      
   RCORE  =    2.800    outmost cutoff radius                                   
   RWIGS  =    3.740; RWIGS  =    1.979    wigner-seitz radius (au A)           
   ENMAX  =  187.210; ENMIN  =  140.408 eV                                      
   RCLOC  =    2.516    cutoff for local pot                                    
   LCOR   =        T    correct aug charges                                     
   LPAW   =        T    paw PP                                                  
   EAUG   =  351.165                                                            
   DEXC   =     .000                                                            
   RMAX   =    3.370    core radius for proj-oper                               
   RAUG   =    1.300    factor for augmentation sphere                          
   RDEP   =    2.976    radius for radial grids                                 
   QCUT   =   -3.709; QGAM   =    7.419    optimization parameters              
                                                                                
   Description                                                                  
     l     E      TYP  RCUT    TYP  RCUT                                        
     0   .000     23  2.800                                                     
     0   .000     23  2.800                                                     
     1   .000     23  2.700                                                     
     1  2.000     23  2.700                                                     
     2   .000     23  2.700                                                     
     2   .000     23  2.700                                                     
  local pseudopotential read in
  partial core-charges read in
  atomic valenz-charges read in
  non local Contribution for L=           0  read in
    real space projection operators read in
  non local Contribution for L=           0  read in
    real space projection operators read in
  non local Contribution for L=           1  read in
    real space projection operators read in
  non local Contribution for L=           1  read in
    real space projection operators read in
  non local Contribution for L=           2  read in
    real space projection operators read in
  non local Contribution for L=           2  read in
    real space projection operators read in
    PAW grid and wavefunctions read in
 
   number of l-projection  operators is LMAX  =           6
   number of lm-projection operators is LMMAX =          18
 
 POTCAR:   PAW_PBE Si 05Jan2001                   
   VRHFIN =Si: s2p2                                                             
   LEXCH  = PE                                                                  
   EATOM  =   103.0669 eV,    7.5752 Ry                                         
                                                                                
   TITEL  = PAW_PBE Si 05Jan2001                                                
   LULTRA =        F    use ultrasoft PP ?                                      
   IUNSCR =        1    unscreen: 0-lin 1-nonlin 2-no                           
   RPACOR =    1.500    partial core radius                                     
   POMASS =   28.085; ZVAL   =    4.000    mass and valenz                      
   RCORE  =    1.900    outmost cutoff radius                                   
   RWIGS  =    2.480; RWIGS  =    1.312    wigner-seitz radius (au A)           
   ENMAX  =  245.345; ENMIN  =  184.009 eV                                      
   ICORE  =        2    local potential                                         
   LCOR   =        T    correct aug charges                                     
   LPAW   =        T    paw PP                                                  
   EAUG   =  322.069                                                            
   DEXC   =    -.007                                                            
   RMAX   =    2.944    core radius for proj-oper                               
   RAUG   =    1.300    factor for augmentation sphere                          
   RDEP   =    1.993    radius for radial grids                                 
   QCUT   =   -4.246; QGAM   =    8.493    optimization parameters              
                                                                                
   Description                                                                  
     l     E      TYP  RCUT    TYP  RCUT                                        
     0   .000     23  1.900                                                     
     0   .000     23  1.900                                                     
     1   .000     23  1.900                                                     
     1   .000     23  1.900                                                     
     2   .000      7  1.900                                                     
  local pseudopotential read in
  partial core-charges read in
  atomic valenz-charges read in
  non local Contribution for L=           0  read in
    real space projection operators read in
  non local Contribution for L=           0  read in
    real space projection operators read in
  non local Contribution for L=           1  read in
    real space projection operators read in
  non local Contribution for L=           1  read in
    real space projection operators read in
    PAW grid and wavefunctions read in
 
   number of l-projection  operators is LMAX  =           4
   number of lm-projection operators is LMMAX =           8
 
 Optimization of the real space projectors (new method)

 maximal supplied QI-value         = 13.42
 optimisation between [QCUT,QGAM] = [ 11.40, 22.81] = [ 36.42,145.68] Ry 
 Optimized for a Real-space Cutoff    1.56 Angstroem

   l    n(q)    QCUT    max X(q) W(low)/X(q) W(high)/X(q)  e(spline) 
   0     11    11.404     7.198    0.14E-04    0.26E-04    0.99E-07
   0     11    11.404    15.603    0.29E-04    0.72E-04    0.44E-06
   1     10    11.404     3.746    0.20E-04    0.24E-04    0.43E-07
   1     10    11.404     4.362    0.22E-03    0.97E-04    0.22E-06
   2     10    11.404     5.782    0.83E-04    0.62E-05    0.27E-06
   2     10    11.404    65.505    0.42E-03    0.31E-04    0.12E-05
 Optimization of the real space projectors (new method)

 maximal supplied QI-value         = 19.84
 optimisation between [QCUT,QGAM] = [ 11.31, 22.82] = [ 35.82,145.81] Ry 
 Optimized for a Real-space Cutoff    1.16 Angstroem

   l    n(q)    QCUT    max X(q) W(low)/X(q) W(high)/X(q)  e(spline) 
   0      8    11.310     8.708    0.14E-04    0.11E-04    0.43E-08
   0      8    11.310   106.241    0.27E-03    0.30E-03    0.38E-07
   1      7    11.310     5.901    0.82E-05    0.48E-04    0.19E-07
   1      7    11.310    73.241    0.27E-03    0.27E-03    0.74E-07
 PAW_PBE Ba_sv 06Sep2000                :
 energy of atom  1       EATOM= -700.2255
 kinetic energy error for atom=    0.0005 (will be added to EATOM!!)
 PAW_PBE Si 05Jan2001                   :
 energy of atom  2       EATOM= -103.0669
 kinetic energy error for atom=    0.0006 (will be added to EATOM!!)
 
 
 POSCAR: ba8 si16                                
  positions in direct lattice
  velocities in cartesian coordinates
 exchange correlation table for  LEXCH =        8
   RHO(1)=    0.500       N(1)  =     2000
   RHO(2)=  100.500       N(2)  =     4000
 


--------------------------------------------------------------------------------------------------------


 ion  position               nearest neighbor table
   1  0.006  0.250  0.703-  21 3.40  16 3.44  11 3.44  17 3.64  17 3.64   5 4.38   5 4.38   7 4.62

   2  0.390  0.750  0.297-  22 3.40  12 3.44  15 3.44  18 3.64  18 3.64   6 4.38   6 4.38   8 4.62

   3  0.182  0.750  0.184-  20 3.35   9 3.45  14 3.45  19 3.66  19 3.66  12 3.70  15 3.70  22 3.75
                            23 3.77   5 4.30   7 4.37   7 4.37
   4  0.214  0.250  0.816-  19 3.35  13 3.45  10 3.45  20 3.66  20 3.66  16 3.70  11 3.70  21 3.75
                            24 3.77   6 4.30   8 4.37   8 4.37
   5  0.060  0.750  0.914-   9 3.44  14 3.44  21 3.45  21 3.45  11 3.45  16 3.45  17 3.71   3 4.30
                             1 4.38   1 4.38
   6  0.336  0.250  0.086-  13 3.44  10 3.44  22 3.45  22 3.45  15 3.45  12 3.45  18 3.71   4 4.30
                             2 4.38   2 4.38
   7  0.128  0.250  0.395-  14 3.45   9 3.45  23 3.54  23 3.54  19 3.73  16 3.77  11 3.77  15 3.93
                            12 3.93   3 4.37   3 4.37   1 4.62
   8  0.268  0.750  0.605-  10 3.45  13 3.45  24 3.54  24 3.54  20 3.73  12 3.77  15 3.77  11 3.93
                            16 3.93   4 4.37   4 4.37   2 4.62
   9  0.073  0.073  0.141-  14 2.40  21 2.43  19 2.45   5 3.44   7 3.45   3 3.45
  10  0.323  0.927  0.859-  13 2.40  22 2.43  20 2.45   6 3.44   8 3.45   4 3.45
  11  0.115  0.929  0.659-  16 2.43  23 2.44  17 2.44   1 3.44   5 3.45   4 3.70   7 3.77   8 3.93

  12  0.281  0.071  0.341-  15 2.43  24 2.44  18 2.44   2 3.44   6 3.45   3 3.70   8 3.77   7 3.93

  13  0.323  0.573  0.859-  10 2.40  22 2.43  20 2.45   6 3.44   8 3.45   4 3.45
  14  0.073  0.427  0.141-   9 2.40  21 2.43  19 2.45   5 3.44   7 3.45   3 3.45
  15  0.281  0.429  0.341-  12 2.43  24 2.44  18 2.44   2 3.44   6 3.45   3 3.70   8 3.77   7 3.93

  16  0.115  0.571  0.659-  11 2.43  23 2.44  17 2.44   1 3.44   5 3.45   4 3.70   7 3.77   8 3.93

  17  0.031  0.750  0.600-  23 2.44  11 2.44  16 2.44   1 3.64   1 3.64   5 3.71
  18  0.365  0.250  0.400-  24 2.44  15 2.44  12 2.44   2 3.64   2 3.64   6 3.71
  19  0.157  0.250  0.079-  21 2.42  14 2.45   9 2.45   4 3.35   3 3.66   3 3.66   7 3.73
  20  0.240  0.750  0.921-  22 2.42  10 2.45  13 2.45   3 3.35   4 3.66   4 3.66   8 3.73
  21  0.074  0.250  0.959-  19 2.42  14 2.43   9 2.43   1 3.40   5 3.45   5 3.45   4 3.75
  22  0.322  0.750  0.041-  20 2.42  10 2.43  13 2.43   2 3.40   6 3.45   6 3.45   3 3.75
  23  0.113  0.750  0.477-  17 2.44  11 2.44  16 2.44   7 3.54   7 3.54   3 3.77
  24  0.283  0.250  0.523-  18 2.44  15 2.44  12 2.44   8 3.54   8 3.54   4 3.77
 
  LATTYP: Found a simple orthorhombic cell.
 ALAT       =     6.7778496742
 B/A-ratio  =     1.7117734747
 C/A-ratio  =     3.5423429602
  
  Lattice vectors:
  
 A1 = (   0.0000000000,   6.7778496742,   0.0000000000)
 A2 = (   0.0000000000,   0.0000000000, -11.6021432877)
 A3 = ( -24.0094680786,   0.0000000000,   0.0000000000)


Analysis of symmetry for initial positions (statically):
=====================================================================
 Subroutine PRICEL returns:
 Original cell was already a primitive cell.
 

 Routine SETGRP: Setting up the symmetry group for a 
 simple orthorhombic supercell.


 Subroutine GETGRP returns: Found  4 space group operations
 (whereof  1 operations were pure point group operations)
 out of a pool of  8 trial point group operations.


The static configuration has the point symmetry C_1 .
 The point group associated with its full space group is C_2h.


Analysis of symmetry for dynamics (positions and initial velocities):
=====================================================================
 Subroutine PRICEL returns:
 Original cell was already a primitive cell.
 

 Routine SETGRP: Setting up the symmetry group for a 
 simple orthorhombic supercell.


 Subroutine GETGRP returns: Found  4 space group operations
 (whereof  1 operations were pure point group operations)
 out of a pool of  8 trial point group operations.


The dynamic configuration has the point symmetry C_1 .
 The point group associated with its full space group is C_2h.


Analysis of constrained symmetry for selective dynamics:
=====================================================================
 Subroutine PRICEL returns:
 Original cell was already a primitive cell.
 

 Routine SETGRP: Setting up the symmetry group for a 
 simple orthorhombic supercell.


 Subroutine GETGRP returns: Found  4 space group operations
 (whereof  1 operations were pure point group operations)
 out of a pool of  8 trial point group operations.


The constrained configuration has the point symmetry C_1 .
 The point group associated with its full space group is C_2h.


 Subroutine INISYM returns: Found  4 space group operations
 (whereof  1 operations are pure point group operations),
 and found     1 'primitive' translations

 
 
 KPOINTS: k-density: 8.0                          

Automatic generation of k-mesh.
Space group operators:
 irot       det(A)        alpha          n_x          n_y          n_z        tau_x        tau_y        tau_z
    1     1.000000     0.000000     1.000000     0.000000     0.000000     0.000000     0.000000     0.000000
    2    -1.000000     0.000000     1.000000     0.000000     0.000000    -0.603928     0.000000     0.000000
    3     1.000000   180.000000     0.000000     1.000000     0.000000    -0.603928     0.500000     0.000000
    4    -1.000000   180.000000     0.000000     1.000000     0.000000     0.000000     0.500000     0.000000
 
 Subroutine IBZKPT returns following result:
 ===========================================
 
 Found     15 irreducible k-points:
 
 Following reciprocal coordinates:
            Coordinates               Weight
  0.000000  0.000000  0.000000      1.000000
  0.000000  0.125000  0.000000      2.000000
  0.000000  0.250000  0.000000      2.000000
  0.000000  0.375000  0.000000      2.000000
  0.000000  0.500000  0.000000      1.000000
  0.000000  0.000000  0.200000      2.000000
  0.000000  0.125000  0.200000      4.000000
  0.000000  0.250000  0.200000      4.000000
  0.000000  0.375000  0.200000      4.000000
  0.000000  0.500000  0.200000      2.000000
  0.000000  0.000000  0.400000      2.000000
  0.000000  0.125000  0.400000      4.000000
  0.000000  0.250000  0.400000      4.000000
  0.000000  0.375000  0.400000      4.000000
  0.000000  0.500000  0.400000      2.000000
 
 Following cartesian coordinates:
            Coordinates               Weight
  0.000000  0.000000  0.000000      1.000000
  0.000000  0.018442  0.000000      2.000000
  0.000000  0.036885  0.000000      2.000000
  0.000000  0.055327  0.000000      2.000000
  0.000000  0.073770  0.000000      1.000000
  0.000000  0.000000  0.017238      2.000000
  0.000000  0.018442  0.017238      4.000000
  0.000000  0.036885  0.017238      4.000000
  0.000000  0.055327  0.017238      4.000000
  0.000000  0.073770  0.017238      2.000000
  0.000000  0.000000  0.034476      2.000000
  0.000000  0.018442  0.034476      4.000000
  0.000000  0.036885  0.034476      4.000000
  0.000000  0.055327  0.034476      4.000000
  0.000000  0.073770  0.034476      2.000000
 
 TETIRR: Found    108 inequivalent tetrahedra from      240


--------------------------------------------------------------------------------------------------------




 Dimension of arrays:
   k-points           NKPTS =     15   k-points in BZ     NKDIM =     15   number of bands    NBANDS=     88
   number of dos      NEDOS =    301   number of ions     NIONS =     24
   non local maximal  LDIM  =      6   non local SUM 2l+1 LMDIM =     18
   total plane-waves  NPLWV = 358400
   max r-space proj   IRMAX =   3093   max aug-charges    IRDMAX=  12081
   dimension x,y,z NGX =   140 NGY =   40 NGZ =   64
   dimension x,y,z NGXF=   280 NGYF=   80 NGZF=  128
   support grid    NGXF=   280 NGYF=   80 NGZF=  128
   ions per type =               8  16
   NGX,Y,Z   is equivalent  to a cutoff of   9.69,  9.81,  9.17 a.u.
   NGXF,Y,Z  is equivalent  to a cutoff of  19.39, 19.62, 18.34 a.u.

 SYSTEM =  unknown system                          
 POSCAR =  ba8 si16                                

 Startparameter for this run:
   NWRITE =      2    write-flag & timer
   PREC   = normal    normal or accurate (medium, high low for compatibility)
   ISTART =      0    job   : 0-new  1-cont  2-samecut
   ICHARG =      2    charge: 1-file 2-atom 10-const
   ISPIN  =      1    spin polarized calculation?
   LNONCOLLINEAR =      F non collinear calculations
   LSORBIT =      F    spin-orbit coupling
   INIWAV =      1    electr: 0-lowe 1-rand  2-diag
   LASPH  =      F    aspherical Exc in radial PAW
   METAGGA=      F    non-selfconsistent MetaGGA calc.

 Electronic Relaxation 1
   ENCUT  =  500.0 eV  36.75 Ry    6.06 a.u.  43.77 12.36 21.15*2*pi/ulx,y,z
   ENINI  =  500.0     initial cutoff
   ENAUG  =  351.2 eV  augmentation charge cutoff
   NELM   =    100;   NELMIN=  2; NELMDL= -5     # of ELM steps 
   EDIFF  = 0.1E-05   stopping-criterion for ELM
   LREAL  =      T    real-space projection
   NLSPLINE    = F    spline interpolate recip. space projectors
   LCOMPAT=      F    compatible to vasp.4.4
   GGA_COMPAT  = T    GGA compatible to vasp.4.4-vasp.4.6
   LMAXPAW     = -100 max onsite density
   LMAXMIX     =    2 max onsite mixed and CHGCAR
   VOSKOWN=      0    Vosko Wilk Nusair interpolation
   ROPT   =   -0.00050  -0.00050
 Ionic relaxation
   EDIFFG = -.1E-02   stopping-criterion for IOM
   NSW    =      0    number of steps for IOM
   NBLOCK =      1;   KBLOCK =      1    inner block; outer block 
   IBRION =     -1    ionic relax: 0-MD 1-quasi-New 2-CG
   NFREE  =      0    steps in history (QN), initial steepest desc. (CG)
   ISIF   =      2    stress and relaxation
   IWAVPR =     10    prediction:  0-non 1-charg 2-wave 3-comb
   ISYM   =      2    0-nonsym 1-usesym 2-fastsym
   LCORR  =      T    Harris-Foulkes like correction to forces

   POTIM  = 0.3000    time-step for ionic-motion
   TEIN   =    0.0    initial temperature
   TEBEG  =    0.0;   TEEND  =   0.0 temperature during run
   SMASS  =  -3.00    Nose mass-parameter (am)
   estimated Nose-frequenzy (Omega)   =  0.10E-29 period in steps =****** mass=  -0.132E-25a.u.
   SCALEE = 1.0000    scale energy and forces
   NPACO  =    256;   APACO  = 16.0  distance and # of slots for P.C.
   PSTRESS=    0.0 pullay stress

  Mass of Ions in am
   POMASS = 137.33 28.09
  Ionic Valenz
   ZVAL   =  10.00  4.00
  Atomic Wigner-Seitz radii
   RWIGS  =  -1.00 -1.00
  virtual crystal weights 
   VCA    =   1.00  1.00
   NELECT =     144.0000    total number of electrons
   NUPDOWN=      -1.0000    fix difference up-down

 DOS related values:
   EMIN   =  10.00;   EMAX   =-10.00  energy-range for DOS
   EFERMI =   0.00
   ISMEAR =    -5;   SIGMA  =   0.01  broadening in eV -4-tet -1-fermi 0-gaus

 Electronic relaxation 2 (details)
   IALGO  =     38    algorithm
   LDIAG  =      T    sub-space diagonalisation (order eigenvalues)
   LSUBROT=      F    optimize rotation matrix (better conditioning)
   TURBO    =      0    0=normal 1=particle mesh
   IRESTART =      0    0=no restart 2=restart with 2 vectors
   NREBOOT  =      0    no. of reboots
   NMIN     =      0    reboot dimension
   EREF     =   0.00    reference energy to select bands
   IMIX   =      4    mixing-type and parameters
     AMIX     =   0.40;   BMIX     =  1.00
     AMIX_MAG =   1.60;   BMIX_MAG =  1.00
     AMIN     =   0.10
     WC   =   100.;   INIMIX=   1;  MIXPRE=   1;  MAXMIX= -45

 Intra band minimization:
   WEIMIN = 0.0000     energy-eigenvalue tresh-hold
   EBREAK =  0.28E-08  absolut break condition
   DEPER  =   0.30     relativ break condition  

   TIME   =   0.40     timestep for ELM

  volume/ion in A,a.u.               =      78.67       530.88
  Fermi-wavevector in a.u.,A,eV,Ry     =   0.694264  1.311969  6.558046  0.482003
  Thomas-Fermi vector in A             =   1.776709
 
 Write flags
   LWAVE        =      T    write WAVECAR
   LDOWNSAMPLE  =      F    k-point downsampling of WAVECAR
   LCHARG       =      T    write CHGCAR
   LVTOT        =      F    write LOCPOT, total local potential
   LVHAR        =      F    write LOCPOT, Hartree potential only
   LELF         =      F    write electronic localiz. function (ELF)
   LORBIT       =      0    0 simple, 1 ext, 2 COOP (PROOUT), +10 PAW based schemes


 Dipole corrections
   LMONO  =      F    monopole corrections only (constant potential shift)
   LDIPOL =      F    correct potential (dipole corrections)
   IDIPOL =      0    1-x, 2-y, 3-z, 4-all directions 
   EPSILON=  1.0000000 bulk dielectric constant

 Exchange correlation treatment:
   GGA     =    --    GGA type
   LEXCH   =     8    internal setting for exchange type
   VOSKOWN=      0    Vosko Wilk Nusair interpolation
   LHFCALC =     F    Hartree Fock is set to
   LHFONE  =     F    Hartree Fock one center treatment
   AEXX    =    0.0000 exact exchange contribution

 Linear response parameters
   LEPSILON=     F    determine dielectric tensor
   LRPA    =     F    only Hartree local field effects (RPA)
   LNABLA  =     F    use nabla operator in PAW spheres
   LVEL    =     F    velocity operator in full k-point grid
   LINTERFAST=   F  fast interpolation
   KINTER  =     0    interpolate to denser k-point grid
   CSHIFT  =0.1000    complex shift for real part using Kramers Kronig
   OMEGAMAX=  -1.0    maximum frequency
   DEG_THRESHOLD= 0.2000000E-02 threshold for treating states as degnerate
   RTIME   =   -0.100 relaxation time in fs
  (WPLASMAI=    0.000 imaginary part of plasma frequency in eV, 0.658/RTIME)
   DFIELD  = 0.0000000 0.0000000 0.0000000 field for delta impulse in time
 
 Orbital magnetization related:
   ORBITALMAG=     F  switch on orbital magnetization
   LCHIMAG   =     F  perturbation theory with respect to B field
   DQ        =  0.001000  dq finite difference perturbation B field
   LLRAUG    =     F  two centre corrections for induced B field



--------------------------------------------------------------------------------------------------------


 Static calculation
 charge density and potential will be updated during run
 non-spin polarized calculation
 Variant of blocked Davidson
 Davidson routine will perform the subspace rotation
 perform sub-space diagonalisation
    after iterative eigenvector-optimisation
 modified Broyden-mixing scheme, WC =      100.0
 initial mixing is a Kerker type mixing with AMIX =  0.4000 and BMIX =      1.0000
 Hartree-type preconditioning will be used
 using additional bands           16
 real space projection scheme for non local part
 use partial core corrections
 calculate Harris-corrections to forces 
   (improved forces if not selfconsistent)
 use gradient corrections 
 use of overlap-Matrix (Vanderbilt PP)
 Fermi weights with tetrahedron method with Bloechl corrections


--------------------------------------------------------------------------------------------------------


  energy-cutoff  :      500.00
  volume of cell :     1888.05
      direct lattice vectors                 reciprocal lattice vectors
    24.009468079  0.000000000  0.000000000     0.041650236  0.000000000  0.000000000
     0.000000000  6.777849674  0.000000000     0.000000000  0.147539419  0.000000000
     0.000000000  0.000000000 11.602143288     0.000000000  0.000000000  0.086190971

  length of vectors
    24.009468079  6.777849674 11.602143288     0.041650236  0.147539419  0.086190971


 
 k-points in units of 2pi/SCALE and weight: k-density: 8.0                          
   0.00000000  0.00000000  0.00000000       0.025
   0.00000000  0.01844243  0.00000000       0.050
   0.00000000  0.03688485  0.00000000       0.050
   0.00000000  0.05532728  0.00000000       0.050
   0.00000000  0.07376971  0.00000000       0.025
   0.00000000  0.00000000  0.01723819       0.050
   0.00000000  0.01844243  0.01723819       0.100
   0.00000000  0.03688485  0.01723819       0.100
   0.00000000  0.05532728  0.01723819       0.100
   0.00000000  0.07376971  0.01723819       0.050
   0.00000000  0.00000000  0.03447639       0.050
   0.00000000  0.01844243  0.03447639       0.100
   0.00000000  0.03688485  0.03447639       0.100
   0.00000000  0.05532728  0.03447639       0.100
   0.00000000  0.07376971  0.03447639       0.050
 
 k-points in reciprocal lattice and weights: k-density: 8.0                          
   0.00000000  0.00000000  0.00000000       0.025
   0.00000000  0.12500000  0.00000000       0.050
   0.00000000  0.25000000  0.00000000       0.050
   0.00000000  0.37500000  0.00000000       0.050
   0.00000000  0.50000000  0.00000000       0.025
   0.00000000  0.00000000  0.20000000       0.050
   0.00000000  0.12500000  0.20000000       0.100
   0.00000000  0.25000000  0.20000000       0.100
   0.00000000  0.37500000  0.20000000       0.100
   0.00000000  0.50000000  0.20000000       0.050
   0.00000000  0.00000000  0.40000000       0.050
   0.00000000  0.12500000  0.40000000       0.100
   0.00000000  0.25000000  0.40000000       0.100
   0.00000000  0.37500000  0.40000000       0.100
   0.00000000  0.50000000  0.40000000       0.050
 
 position of ions in fractional coordinates (direct lattice) 
   0.00569361  0.25000000  0.70256952
   0.39037797  0.75000002  0.29743048
   0.18192962  0.75000002  0.18438808
   0.21414196  0.25000000  0.81561190
   0.05978014  0.75000002  0.91376120
   0.33629144  0.25000000  0.08623878
   0.12784309  0.25000000  0.39492746
   0.26822849  0.75000002  0.60507258
   0.07289913  0.07287790  0.14085800
   0.32317245  0.92712209  0.85914198
   0.11472410  0.92899571  0.65926979
   0.28134748  0.07100428  0.34073021
   0.32317245  0.57287791  0.85914198
   0.07289913  0.42712209  0.14085800
   0.28134748  0.42899571  0.34073021
   0.11472410  0.57100429  0.65926979
   0.03110981  0.75000002  0.59992299
   0.36496177  0.25000000  0.40007701
   0.15651343  0.25000000  0.07858423
   0.23955817  0.75000002  0.92141575
   0.07418398  0.25000000  0.95871085
   0.32188760  0.75000002  0.04128917
   0.11343925  0.75000002  0.47700193
   0.28263233  0.25000000  0.52299799
 
 position of ions in cartesian coordinates  (Angst):
   0.13670066  1.69446242  8.15131220
   9.37276745  5.08338737  3.45083109
   4.36803341  5.08338737  2.13929690
   5.14143467  1.69446242  9.46284615
   1.43528938  5.08338737 10.60158839
   8.07417870  1.69446242  1.00055466
   3.06944466  1.69446242  4.58200496
   6.44002342  5.08338737  7.02013880
   1.75026941  0.49395548  1.63425474
   7.75919867  6.28389413  9.96788831
   2.75446463  6.29659329  7.64894257
   6.75500345  0.48125632  3.95320072
   7.75919867  3.88288038  9.96788831
   1.75026941  2.89496929  1.63425474
   6.75500345  2.90766845  3.95320072
   2.75446463  3.87018122  7.64894257
   0.74692994  5.08338737  6.96039250
   8.76253796  1.69446242  4.64175079
   3.75780416  1.69446242  0.91174554
   5.75166416  5.08338737 10.69039751
   1.78111780  1.69446242 11.12310061
   7.72835016  5.08338737  0.47904285
   2.72361612  5.08338737  5.53424477
   6.78585196  1.69446242  6.06789756
 


--------------------------------------------------------------------------------------------------------


 k-point  1 :   0.0000 0.0000 0.0000  plane waves:   47989
 k-point  2 :   0.0000 0.1250 0.0000  plane waves:   47929
 k-point  3 :   0.0000 0.2500 0.0000  plane waves:   47901
 k-point  4 :   0.0000 0.3750 0.0000  plane waves:   47910
 k-point  5 :   0.0000 0.5000 0.0000  plane waves:   47868
 k-point  6 :   0.0000 0.0000 0.2000  plane waves:   48006
 k-point  7 :   0.0000 0.1250 0.2000  plane waves:   47967
 k-point  8 :   0.0000 0.2500 0.2000  plane waves:   47907
 k-point  9 :   0.0000 0.3750 0.2000  plane waves:   47884
 k-point 10 :   0.0000 0.5000 0.2000  plane waves:   47884
 k-point 11 :   0.0000 0.0000 0.4000  plane waves:   47922
 k-point 12 :   0.0000 0.1250 0.4000  plane waves:   47954
 k-point 13 :   0.0000 0.2500 0.4000  plane waves:   47967
 k-point 14 :   0.0000 0.3750 0.4000  plane waves:   47928
 k-point 15 :   0.0000 0.5000 0.4000  plane waves:   47890

 maximum and minimum number of plane-waves per node :     12077    11868

 maximum number of plane-waves:     48006
 maximum index in each direction: 
   IXMAX=   43   IYMAX=   12   IZMAX=   21
   IXMIN=  -43   IYMIN=  -12   IZMIN=  -21


 real space projection operators:
  total allocation   :       4540.30 KBytes
  max/ min on nodes  :       1139.23       1130.98


 parallel 3D FFT for wavefunctions:
    minimum data exchange during FFTs selected (reduces bandwidth)
 parallel 3D FFT for charge:
    minimum data exchange during FFTs selected (reduces bandwidth)


 total amount of memory used by VASP MPI-rank0    79352. kBytes
=======================================================================

   base      :      30000. kBytes
   nonlr-proj:       2646. kBytes
   fftplans  :       5898. kBytes
   grid      :       8824. kBytes
   one-center:         93. kBytes
   wavefun   :      31891. kBytes
 
     INWAV:  cpu time    0.0000: real time    0.0000
 Broyden mixing: mesh for mixing (old mesh)
   NGX = 87   NGY = 25   NGZ = 43
  (NGX  =280   NGY  = 80   NGZ  =128)
  gives a total of  93525 points

 initial charge density was supplied:
 charge density of overlapping atoms calculated
 number of electron     144.0000000 magnetization 
 keeping initial charge density in first step


--------------------------------------------------------------------------------------------------------


 Maximum index for non-local projection operator          744
 Maximum index for augmentation-charges          607 (set IRDMAX)


--------------------------------------------------------------------------------------------------------


 First call to EWALD:  gamma=   0.143
 Maximum number of real-space cells 2x 5x 3
 Maximum number of reciprocal cells 5x 2x 3

    FEWALD:  cpu time    0.0370: real time    0.0371


--------------------------------------- Iteration      1(   1)  ---------------------------------------


    POTLOK:  cpu time    0.0625: real time    0.0913
    SETDIJ:  cpu time    0.0142: real time    0.0146
     EDDAV:  cpu time    2.3475: real time    2.3608
 BZINTS: Fermi energy:  6.982872;144.000000 electrons
         Band energy:-462.933236;  BLOECHL correction: -0.033716
       DOS:  cpu time    0.0124: real time    0.0127
    --------------------------------------------
      LOOP:  cpu time    2.4367: real time    2.4794

 eigenvalue-minimisations  :  2768
 total energy-change (2. order) : 0.1178840E+04  (-0.4778586E+04)
 number of electron     144.0000000 magnetization 
 augmentation part      144.0000000 magnetization 

 Free energy of the ion-electron system (eV)
  ---------------------------------------------------
  alpha Z        PSCENC =       170.45750602
  Ewald energy   TEWEN  =     10985.43469298
  -Hartree energ DENC   =    -17108.03852168
  -exchange      EXHF   =         0.00000000
  -V(xc)+E(xc)   XCENC  =        41.39962497
  PAW double counting   =      3692.15173346    -3390.49189382
  entropy T*S    EENTRO =         0.00000000
  eigenvalues    EBANDS =      -462.93323574
  atomic energy  EATOM  =      7250.85976021
  Solvation  Ediel_sol  =         0.00000000
  ---------------------------------------------------
  free energy    TOTEN  =      1178.83966640 eV

  energy without entropy =     1178.83966640  energy(sigma->0) =     1178.83966640


--------------------------------------------------------------------------------------------------------




--------------------------------------- Iteration      1(   2)  ---------------------------------------


     EDDAV:  cpu time    3.4561: real time    3.4756
 BZINTS: Fermi energy: -1.761192;144.000000 electrons
         Band energy:***********;  BLOECHL correction:  0.000000
       DOS:  cpu time    0.0024: real time    0.0024
    --------------------------------------------
      LOOP:  cpu time    3.4585: real time    3.4780

 eigenvalue-minimisations  :  3848
 total energy-change (2. order) :-0.1120006E+04  (-0.1092001E+04)
 number of electron     144.0000000 magnetization 
 augmentation part      144.0000000 magnetization 

 Free energy of the ion-electron system (eV)
  ---------------------------------------------------
  alpha Z        PSCENC =       170.45750602
  Ewald energy   TEWEN  =     10985.43469298
  -Hartree energ DENC   =    -17108.03852168
  -exchange      EXHF   =         0.00000000
  -V(xc)+E(xc)   XCENC  =        41.39962497
  PAW double counting   =      3692.15173346    -3390.49189382
  entropy T*S    EENTRO =         0.00000000
  eigenvalues    EBANDS =     -1582.93955194
  atomic energy  EATOM  =      7250.85976021
  Solvation  Ediel_sol  =         0.00000000
  ---------------------------------------------------
  free energy    TOTEN  =        58.83335020 eV

  energy without entropy =       58.83335020  energy(sigma->0) =       58.83335020


--------------------------------------------------------------------------------------------------------




--------------------------------------- Iteration      1(   3)  ---------------------------------------


     EDDAV:  cpu time    2.7683: real time    2.7863
 BZINTS: Fermi energy: -3.215286;144.000000 electrons
         Band energy:***********;  BLOECHL correction:  0.000000
       DOS:  cpu time    0.0023: real time    0.0023
    --------------------------------------------
      LOOP:  cpu time    2.7706: real time    2.7887

 eigenvalue-minimisations  :  3208
 total energy-change (2. order) :-0.1671909E+03  (-0.1665260E+03)
 number of electron     144.0000000 magnetization 
 augmentation part      144.0000000 magnetization 

 Free energy of the ion-electron system (eV)
  ---------------------------------------------------
  alpha Z        PSCENC =       170.45750602
  Ewald energy   TEWEN  =     10985.43469298
  -Hartree energ DENC   =    -17108.03852168
  -exchange      EXHF   =         0.00000000
  -V(xc)+E(xc)   XCENC  =        41.39962497
  PAW double counting   =      3692.15173346    -3390.49189382
  entropy T*S    EENTRO =         0.00000000
  eigenvalues    EBANDS =     -1750.13040733
  atomic energy  EATOM  =      7250.85976021
  Solvation  Ediel_sol  =         0.00000000
  ---------------------------------------------------
  free energy    TOTEN  =      -108.35750519 eV

  energy without entropy =     -108.35750519  energy(sigma->0) =     -108.35750519


--------------------------------------------------------------------------------------------------------




--------------------------------------- Iteration      1(   4)  ---------------------------------------


     EDDAV:  cpu time    3.3565: real time    3.3753
 BZINTS: Fermi energy: -3.324056;144.000000 electrons
         Band energy:***********;  BLOECHL correction:  0.000000
       DOS:  cpu time    0.0019: real time    0.0019
    --------------------------------------------
      LOOP:  cpu time    3.3584: real time    3.3772

 eigenvalue-minimisations  :  3760
 total energy-change (2. order) :-0.5998806E+01  (-0.5982068E+01)
 number of electron     144.0000000 magnetization 
 augmentation part      144.0000000 magnetization 

 Free energy of the ion-electron system (eV)
  ---------------------------------------------------
  alpha Z        PSCENC =       170.45750602
  Ewald energy   TEWEN  =     10985.43469298
  -Hartree energ DENC   =    -17108.03852168
  -exchange      EXHF   =         0.00000000
  -V(xc)+E(xc)   XCENC  =        41.39962497
  PAW double counting   =      3692.15173346    -3390.49189382
  entropy T*S    EENTRO =         0.00000000
  eigenvalues    EBANDS =     -1756.12921375
  atomic energy  EATOM  =      7250.85976021
  Solvation  Ediel_sol  =         0.00000000
  ---------------------------------------------------
  free energy    TOTEN  =      -114.35631161 eV

  energy without entropy =     -114.35631161  energy(sigma->0) =     -114.35631161


--------------------------------------------------------------------------------------------------------




--------------------------------------- Iteration      1(   5)  ---------------------------------------


     EDDAV:  cpu time    3.7466: real time    3.7675
 BZINTS: Fermi energy: -3.318623;144.000000 electrons
         Band energy:***********;  BLOECHL correction:  0.000000
       DOS:  cpu time    0.0020: real time    0.0020
    CHARGE:  cpu time    0.1606: real time    0.1610
    MIXING:  cpu time    0.0082: real time    0.0084
    --------------------------------------------
      LOOP:  cpu time    3.9175: real time    3.9388

 eigenvalue-minimisations  :  4176
 total energy-change (2. order) :-0.2766609E+00  (-0.2765795E+00)
 number of electron     143.9999993 magnetization 
 augmentation part      -17.5275101 magnetization 

 Broyden mixing:
  rms(total) = 0.92428E+00    rms(broyden)= 0.92427E+00
  rms(prec ) = 0.11934E+01
  weight for this iteration     100.00

 Free energy of the ion-electron system (eV)
  ---------------------------------------------------
  alpha Z        PSCENC =       170.45750602
  Ewald energy   TEWEN  =     10985.43469298
  -Hartree energ DENC   =    -17108.03852168
  -exchange      EXHF   =         0.00000000
  -V(xc)+E(xc)   XCENC  =        41.39962497
  PAW double counting   =      3692.15173346    -3390.49189382
  entropy T*S    EENTRO =         0.00000000
  eigenvalues    EBANDS =     -1756.40587462
  atomic energy  EATOM  =      7250.85976021
  Solvation  Ediel_sol  =         0.00000000
  ---------------------------------------------------
  free energy    TOTEN  =      -114.63297248 eV

  energy without entropy =     -114.63297248  energy(sigma->0) =     -114.63297248


--------------------------------------------------------------------------------------------------------




--------------------------------------- Iteration      1(   6)  ---------------------------------------


    POTLOK:  cpu time    0.0559: real time    0.0674
    SETDIJ:  cpu time    0.0303: real time    0.0303
     EDDAV:  cpu time    2.8594: real time    2.8662
 BZINTS: Fermi energy: -2.275644;144.000000 electrons
         Band energy:***********;  BLOECHL correction:  0.000000
       DOS:  cpu time    0.0020: real time    0.0020
    CHARGE:  cpu time    0.1508: real time    0.1512
    MIXING:  cpu time    0.0078: real time    0.0078
    --------------------------------------------
      LOOP:  cpu time    3.1061: real time    3.1248

 eigenvalue-minimisations  :  3024
 total energy-change (2. order) : 0.8320754E+01  (-0.2074434E+01)
 number of electron     143.9999992 magnetization 
 augmentation part      -17.4176641 magnetization 

 Broyden mixing:
  rms(total) = 0.46606E+00    rms(broyden)= 0.46606E+00
  rms(prec ) = 0.58421E+00
  weight for this iteration     100.00

 eigenvalues of (default mixing * dielectric matrix)
  average eigenvalue GAMMA=   1.5437
  1.5437

 Free energy of the ion-electron system (eV)
  ---------------------------------------------------
  alpha Z        PSCENC =       170.45750602
  Ewald energy   TEWEN  =     10985.43469298
  -Hartree energ DENC   =    -17196.91185828
  -exchange      EXHF   =         0.00000000
  -V(xc)+E(xc)   XCENC  =        44.29280854
  PAW double counting   =      3724.58481536    -3430.10077663
  entropy T*S    EENTRO =         0.00000000
  eigenvalues    EBANDS =     -1654.92916680
  atomic energy  EATOM  =      7250.85976021
  Solvation  Ediel_sol  =         0.00000000
  ---------------------------------------------------
  free energy    TOTEN  =      -106.31221861 eV

  energy without entropy =     -106.31221861  energy(sigma->0) =     -106.31221861


--------------------------------------------------------------------------------------------------------




--------------------------------------- Iteration      1(   7)  ---------------------------------------


    POTLOK:  cpu time    0.0552: real time    0.0658
    SETDIJ:  cpu time    0.0170: real time    0.0170
     EDDAV:  cpu time    3.0393: real time    3.0465
 BZINTS: Fermi energy: -1.419865;144.000000 electrons
         Band energy:***********;  BLOECHL correction:  0.000000
       DOS:  cpu time    0.0026: real time    0.0026
    CHARGE:  cpu time    0.1418: real time    0.1422
    MIXING:  cpu time    0.0060: real time    0.0062
    --------------------------------------------
      LOOP:  cpu time    3.2618: real time    3.2802

 eigenvalue-minimisations  :  3480
 total energy-change (2. order) : 0.1287690E+01  (-0.1003942E+01)
 number of electron     143.9999991 magnetization 
 augmentation part      -17.5054301 magnetization 

 Broyden mixing:
  rms(total) = 0.24468E+00    rms(broyden)= 0.24468E+00
  rms(prec ) = 0.29591E+00
  weight for this iteration     100.00

 eigenvalues of (default mixing * dielectric matrix)
  average eigenvalue GAMMA=   1.8609
  1.8609  1.8609

 Free energy of the ion-electron system (eV)
  ---------------------------------------------------
  alpha Z        PSCENC =       170.45750602
  Ewald energy   TEWEN  =     10985.43469298
  -Hartree energ DENC   =    -17272.41635293
  -exchange      EXHF   =         0.00000000
  -V(xc)+E(xc)   XCENC  =        46.61424078
  PAW double counting   =      3767.36182113    -3478.66631191
  entropy T*S    EENTRO =         0.00000000
  eigenvalues    EBANDS =     -1574.66988526
  atomic energy  EATOM  =      7250.85976021
  Solvation  Ediel_sol  =         0.00000000
  ---------------------------------------------------
  free energy    TOTEN  =      -105.02452899 eV

  energy without entropy =     -105.02452899  energy(sigma->0) =     -105.02452899


--------------------------------------------------------------------------------------------------------




--------------------------------------- Iteration      1(   8)  ---------------------------------------


    POTLOK:  cpu time    0.0550: real time    0.0656
    SETDIJ:  cpu time    0.0113: real time    0.0113
     EDDAV:  cpu time    2.5349: real time    2.5409
 BZINTS: Fermi energy: -1.230766;144.000000 electrons
         Band energy:***********;  BLOECHL correction:  0.000000
       DOS:  cpu time    0.0023: real time    0.0023
    CHARGE:  cpu time    0.1474: real time    0.1478
    MIXING:  cpu time    0.0111: real time    0.0113
    --------------------------------------------
      LOOP:  cpu time    2.7620: real time    2.7793

 eigenvalue-minimisations  :  3096
 total energy-change (2. order) : 0.2102212E+00  (-0.3532887E+00)
 number of electron     143.9999991 magnetization 
 augmentation part      -17.6391879 magnetization 

 Broyden mixing:
  rms(total) = 0.11624E+00    rms(broyden)= 0.11624E+00
  rms(prec ) = 0.18606E+00
  weight for this iteration     100.00

 eigenvalues of (default mixing * dielectric matrix)
  average eigenvalue GAMMA=   1.6833
  2.6181  1.2159  1.2159

 Free energy of the ion-electron system (eV)
  ---------------------------------------------------
  alpha Z        PSCENC =       170.45750602
  Ewald energy   TEWEN  =     10985.43469298
  -Hartree energ DENC   =    -17308.70282525
  -exchange      EXHF   =         0.00000000
  -V(xc)+E(xc)   XCENC  =        47.54724706
  PAW double counting   =      3816.65808008    -3529.74312981
  entropy T*S    EENTRO =         0.00000000
  eigenvalues    EBANDS =     -1537.32563905
  atomic energy  EATOM  =      7250.85976021
  Solvation  Ediel_sol  =         0.00000000
  ---------------------------------------------------
  free energy    TOTEN  =      -104.81430777 eV

  energy without entropy =     -104.81430777  energy(sigma->0) =     -104.81430777


--------------------------------------------------------------------------------------------------------




--------------------------------------- Iteration      1(   9)  ---------------------------------------


    POTLOK:  cpu time    0.0534: real time    0.0642
    SETDIJ:  cpu time    0.0672: real time    0.0674
     EDDAV:  cpu time    2.8469: real time    2.8536
 BZINTS: Fermi energy: -0.836637;144.000000 electrons
         Band energy:***********;  BLOECHL correction:  0.000000
       DOS:  cpu time    0.0025: real time    0.0025
    CHARGE:  cpu time    0.1471: real time    0.1474
    MIXING:  cpu time    0.0072: real time    0.0072
    --------------------------------------------
      LOOP:  cpu time    3.1242: real time    3.1423

 eigenvalue-minimisations  :  3112
 total energy-change (2. order) : 0.2696599E+00  (-0.1103235E+00)
 number of electron     143.9999991 magnetization 
 augmentation part      -17.6117535 magnetization 

 Broyden mixing:
  rms(total) = 0.55740E-01    rms(broyden)= 0.55740E-01
  rms(prec ) = 0.81153E-01
  weight for this iteration     100.00

 eigenvalues of (default mixing * dielectric matrix)
  average eigenvalue GAMMA=   1.4191
  2.5517  1.2215  1.2215  0.6815

 Free energy of the ion-electron system (eV)
  ---------------------------------------------------
  alpha Z        PSCENC =       170.45750602
  Ewald energy   TEWEN  =     10985.43469298
  -Hartree energ DENC   =    -17347.56929789
  -exchange      EXHF   =         0.00000000
  -V(xc)+E(xc)   XCENC  =        48.49864804
  PAW double counting   =      3827.02120488    -3541.42619198
  entropy T*S    EENTRO =         0.00000000
  eigenvalues    EBANDS =     -1497.82097011
  atomic energy  EATOM  =      7250.85976021
  Solvation  Ediel_sol  =         0.00000000
  ---------------------------------------------------
  free energy    TOTEN  =      -104.54464785 eV

  energy without entropy =     -104.54464785  energy(sigma->0) =     -104.54464785


--------------------------------------------------------------------------------------------------------




--------------------------------------- Iteration      1(  10)  ---------------------------------------


    POTLOK:  cpu time    0.0539: real time    0.0656
    SETDIJ:  cpu time    0.0237: real time    0.0237
     EDDAV:  cpu time    2.9443: real time    2.9513
 BZINTS: Fermi energy: -0.796977;144.000000 electrons
         Band energy:***********;  BLOECHL correction:  0.000000
       DOS:  cpu time    0.0023: real time    0.0023
    CHARGE:  cpu time    0.1458: real time    0.1462
    MIXING:  cpu time    0.0128: real time    0.0129
    --------------------------------------------
      LOOP:  cpu time    3.1829: real time    3.2020

 eigenvalue-minimisations  :  3464
 total energy-change (2. order) :-0.1378094E-01  (-0.2545960E-01)
 number of electron     143.9999991 magnetization 
 augmentation part      -17.6313093 magnetization 

 Broyden mixing:
  rms(total) = 0.42687E-01    rms(broyden)= 0.42687E-01
  rms(prec ) = 0.63368E-01
  weight for this iteration     100.00

 eigenvalues of (default mixing * dielectric matrix)
  average eigenvalue GAMMA=   1.6354
  2.5621  2.5621  1.0981  0.9774  0.9774

 Free energy of the ion-electron system (eV)
  ---------------------------------------------------
  alpha Z        PSCENC =       170.45750602
  Ewald energy   TEWEN  =     10985.43469298
  -Hartree energ DENC   =    -17358.71996482
  -exchange      EXHF   =         0.00000000
  -V(xc)+E(xc)   XCENC  =        48.54078926
  PAW double counting   =      3822.33593607    -3536.43965055
  entropy T*S    EENTRO =         0.00000000
  eigenvalues    EBANDS =     -1487.02749796
  atomic energy  EATOM  =      7250.85976021
  Solvation  Ediel_sol  =         0.00000000
  ---------------------------------------------------
  free energy    TOTEN  =      -104.55842879 eV

  energy without entropy =     -104.55842879  energy(sigma->0) =     -104.55842879


--------------------------------------------------------------------------------------------------------




--------------------------------------- Iteration      1(  11)  ---------------------------------------


    POTLOK:  cpu time    0.0528: real time    0.0640
    SETDIJ:  cpu time    0.0317: real time    0.0317
     EDDAV:  cpu time    2.9291: real time    2.9361
 BZINTS: Fermi energy: -0.679135;144.000000 electrons
         Band energy:***********;  BLOECHL correction:  0.000000
       DOS:  cpu time    0.0024: real time    0.0024
    CHARGE:  cpu time    0.1590: real time    0.1593
    MIXING:  cpu time    0.0078: real time    0.0079
    --------------------------------------------
      LOOP:  cpu time    3.1827: real time    3.2014

 eigenvalue-minimisations  :  3128
 total energy-change (2. order) : 0.7779838E-02  (-0.7581219E-02)
 number of electron     143.9999991 magnetization 
 augmentation part      -17.6388244 magnetization 

 Broyden mixing:
  rms(total) = 0.15778E-01    rms(broyden)= 0.15778E-01
  rms(prec ) = 0.31465E-01
  weight for this iteration     100.00

 eigenvalues of (default mixing * dielectric matrix)
  average eigenvalue GAMMA=   1.6346
  2.8759  2.8759  1.0794  1.0794  0.9485  0.9485

 Free energy of the ion-electron system (eV)
  ---------------------------------------------------
  alpha Z        PSCENC =       170.45750602
  Ewald energy   TEWEN  =     10985.43469298
  -Hartree energ DENC   =    -17378.62528064
  -exchange      EXHF   =         0.00000000
  -V(xc)+E(xc)   XCENC  =        48.71377894
  PAW double counting   =      3823.40147039    -3537.15286799
  entropy T*S    EENTRO =         0.00000000
  eigenvalues    EBANDS =     -1467.63970886
  atomic energy  EATOM  =      7250.85976021
  Solvation  Ediel_sol  =         0.00000000
  ---------------------------------------------------
  free energy    TOTEN  =      -104.55064895 eV

  energy without entropy =     -104.55064895  energy(sigma->0) =     -104.55064895


--------------------------------------------------------------------------------------------------------




--------------------------------------- Iteration      1(  12)  ---------------------------------------


    POTLOK:  cpu time    0.0552: real time    0.0654
    SETDIJ:  cpu time    0.0216: real time    0.0217
     EDDAV:  cpu time    2.9533: real time    2.9604
 BZINTS: Fermi energy: -0.617138;144.000000 electrons
         Band energy:***********;  BLOECHL correction:  0.000000
       DOS:  cpu time    0.0024: real time    0.0024
    CHARGE:  cpu time    0.1515: real time    0.1519
    MIXING:  cpu time    0.0121: real time    0.0122
    --------------------------------------------
      LOOP:  cpu time    3.1963: real time    3.2139

 eigenvalue-minimisations  :  3200
 total energy-change (2. order) :-0.4662169E-02  (-0.1514714E-02)
 number of electron     143.9999991 magnetization 
 augmentation part      -17.6332623 magnetization 

 Broyden mixing:
  rms(total) = 0.12359E-01    rms(broyden)= 0.12359E-01
  rms(prec ) = 0.21024E-01
  weight for this iteration     100.00

 eigenvalues of (default mixing * dielectric matrix)
  average eigenvalue GAMMA=   1.7772
  3.8022  2.5349  2.0480  1.1268  1.1268  0.9008  0.9008

 Free energy of the ion-electron system (eV)
  ---------------------------------------------------
  alpha Z        PSCENC =       170.45750602
  Ewald energy   TEWEN  =     10985.43469298
  -Hartree energ DENC   =    -17390.52800754
  -exchange      EXHF   =         0.00000000
  -V(xc)+E(xc)   XCENC  =        48.77382289
  PAW double counting   =      3821.29298172    -3534.90710770
  entropy T*S    EENTRO =         0.00000000
  eigenvalues    EBANDS =     -1455.93895971
  atomic energy  EATOM  =      7250.85976021
  Solvation  Ediel_sol  =         0.00000000
  ---------------------------------------------------
  free energy    TOTEN  =      -104.55531112 eV

  energy without entropy =     -104.55531112  energy(sigma->0) =     -104.55531112


--------------------------------------------------------------------------------------------------------




--------------------------------------- Iteration      1(  13)  ---------------------------------------


    POTLOK:  cpu time    0.0550: real time    0.0659
    SETDIJ:  cpu time    0.0187: real time    0.0188
     EDDAV:  cpu time    3.0175: real time    3.0247
 BZINTS: Fermi energy: -0.535783;144.000000 electrons
         Band energy:***********;  BLOECHL correction:  0.000000
       DOS:  cpu time    0.0020: real time    0.0020
    CHARGE:  cpu time    0.1609: real time    0.1613
    MIXING:  cpu time    0.0094: real time    0.0095
    --------------------------------------------
      LOOP:  cpu time    3.2637: real time    3.2821

 eigenvalue-minimisations  :  3280
 total energy-change (2. order) :-0.8802469E-02  (-0.1047899E-02)
 number of electron     143.9999991 magnetization 
 augmentation part      -17.6350291 magnetization 

 Broyden mixing:
  rms(total) = 0.66412E-02    rms(broyden)= 0.66412E-02
  rms(prec ) = 0.11681E-01
  weight for this iteration     100.00

 eigenvalues of (default mixing * dielectric matrix)
  average eigenvalue GAMMA=   1.8380
  4.2214  2.9497  2.4407  1.2134  1.2134  0.8990  0.8832  0.8832

 Free energy of the ion-electron system (eV)
  ---------------------------------------------------
  alpha Z        PSCENC =       170.45750602
  Ewald energy   TEWEN  =     10985.43469298
  -Hartree energ DENC   =    -17400.99136496
  -exchange      EXHF   =         0.00000000
  -V(xc)+E(xc)   XCENC  =        48.83434792
  PAW double counting   =      3819.54726415    -3533.28566818
  entropy T*S    EENTRO =         0.00000000
  eigenvalues    EBANDS =     -1445.42065172
  atomic energy  EATOM  =      7250.85976021
  Solvation  Ediel_sol  =         0.00000000
  ---------------------------------------------------
  free energy    TOTEN  =      -104.56411359 eV

  energy without entropy =     -104.56411359  energy(sigma->0) =     -104.56411359


--------------------------------------------------------------------------------------------------------




--------------------------------------- Iteration      1(  14)  ---------------------------------------


    POTLOK:  cpu time    0.0544: real time    0.0647
    SETDIJ:  cpu time    0.0163: real time    0.0163
     EDDAV:  cpu time    2.7879: real time    2.7945
 BZINTS: Fermi energy: -0.519598;144.000000 electrons
         Band energy:***********;  BLOECHL correction:  0.000000
       DOS:  cpu time    0.0022: real time    0.0022
    CHARGE:  cpu time    0.1463: real time    0.1467
    MIXING:  cpu time    0.0068: real time    0.0069
    --------------------------------------------
      LOOP:  cpu time    3.0139: real time    3.0312

 eigenvalue-minimisations  :  3040
 total energy-change (2. order) :-0.4628160E-02  (-0.2782737E-03)
 number of electron     143.9999991 magnetization 
 augmentation part      -17.6359843 magnetization 

 Broyden mixing:
  rms(total) = 0.55521E-02    rms(broyden)= 0.55521E-02
  rms(prec ) = 0.88445E-02
  weight for this iteration     100.00

 eigenvalues of (default mixing * dielectric matrix)
  average eigenvalue GAMMA=   1.8588
  4.6610  3.1116  2.2367  1.4059  1.4059  0.9097  0.9097  1.0444  1.0444

 Free energy of the ion-electron system (eV)
  ---------------------------------------------------
  alpha Z        PSCENC =       170.45750602
  Ewald energy   TEWEN  =     10985.43469298
  -Hartree energ DENC   =    -17404.26486836
  -exchange      EXHF   =         0.00000000
  -V(xc)+E(xc)   XCENC  =        48.83195471
  PAW double counting   =      3818.61916375    -3532.36523403
  entropy T*S    EENTRO =         0.00000000
  eigenvalues    EBANDS =     -1442.14171705
  atomic energy  EATOM  =      7250.85976021
  Solvation  Ediel_sol  =         0.00000000
  ---------------------------------------------------
  free energy    TOTEN  =      -104.56874175 eV

  energy without entropy =     -104.56874175  energy(sigma->0) =     -104.56874175


--------------------------------------------------------------------------------------------------------




--------------------------------------- Iteration      1(  15)  ---------------------------------------


    POTLOK:  cpu time    0.0548: real time    0.0659
    SETDIJ:  cpu time    0.0130: real time    0.0131
     EDDAV:  cpu time    2.7900: real time    2.7967
 BZINTS: Fermi energy: -0.508250;144.000000 electrons
         Band energy:***********;  BLOECHL correction:  0.000000
       DOS:  cpu time    0.0020: real time    0.0020
    CHARGE:  cpu time    0.1436: real time    0.1440
    MIXING:  cpu time    0.0109: real time    0.0110
    --------------------------------------------
      LOOP:  cpu time    3.0145: real time    3.0326

 eigenvalue-minimisations  :  3072
 total energy-change (2. order) :-0.1459965E-02  (-0.1793274E-03)
 number of electron     143.9999991 magnetization 
 augmentation part      -17.6379887 magnetization 

 Broyden mixing:
  rms(total) = 0.22128E-02    rms(broyden)= 0.22128E-02
  rms(prec ) = 0.43152E-02
  weight for this iteration     100.00

 eigenvalues of (default mixing * dielectric matrix)
  average eigenvalue GAMMA=   1.9563
  5.4096  3.5941  2.4238  1.7036  0.9048  0.9048  1.2447  1.2447  0.9938  1.1395

 Free energy of the ion-electron system (eV)
  ---------------------------------------------------
  alpha Z        PSCENC =       170.45750602
  Ewald energy   TEWEN  =     10985.43469298
  -Hartree energ DENC   =    -17405.94615799
  -exchange      EXHF   =         0.00000000
  -V(xc)+E(xc)   XCENC  =        48.82525596
  PAW double counting   =      3819.08860599    -3532.80061538
  entropy T*S    EENTRO =         0.00000000
  eigenvalues    EBANDS =     -1440.48924950
  atomic energy  EATOM  =      7250.85976021
  Solvation  Ediel_sol  =         0.00000000
  ---------------------------------------------------
  free energy    TOTEN  =      -104.57020172 eV

  energy without entropy =     -104.57020172  energy(sigma->0) =     -104.57020172


--------------------------------------------------------------------------------------------------------




--------------------------------------- Iteration      1(  16)  ---------------------------------------


    POTLOK:  cpu time    0.0558: real time    0.0661
    SETDIJ:  cpu time    0.0369: real time    0.0370
     EDDAV:  cpu time    2.7903: real time    2.7969
 BZINTS: Fermi energy: -0.498574;144.000000 electrons
         Band energy:***********;  BLOECHL correction:  0.000000
       DOS:  cpu time    0.0024: real time    0.0024
    CHARGE:  cpu time    0.1357: real time    0.1361
    MIXING:  cpu time    0.0085: real time    0.0086
    --------------------------------------------
      LOOP:  cpu time    3.0296: real time    3.0470

 eigenvalue-minimisations  :  3120
 total energy-change (2. order) :-0.9226947E-03  (-0.6743097E-04)
 number of electron     143.9999991 magnetization 
 augmentation part      -17.6377596 magnetization 

 Broyden mixing:
  rms(total) = 0.15293E-02    rms(broyden)= 0.15293E-02
  rms(prec ) = 0.28310E-02
  weight for this iteration     100.00

 eigenvalues of (default mixing * dielectric matrix)
  average eigenvalue GAMMA=   2.0053
  5.6323  4.1022  2.5322  1.8816  0.9083  0.9083  1.5086  1.2803  1.2803  1.0121
  1.0121

 Free energy of the ion-electron system (eV)
  ---------------------------------------------------
  alpha Z        PSCENC =       170.45750602
  Ewald energy   TEWEN  =     10985.43469298
  -Hartree energ DENC   =    -17407.37737215
  -exchange      EXHF   =         0.00000000
  -V(xc)+E(xc)   XCENC  =        48.82167366
  PAW double counting   =      3819.28253399    -3532.99924961
  entropy T*S    EENTRO =         0.00000000
  eigenvalues    EBANDS =     -1439.05066951
  atomic energy  EATOM  =      7250.85976021
  Solvation  Ediel_sol  =         0.00000000
  ---------------------------------------------------
  free energy    TOTEN  =      -104.57112441 eV

  energy without entropy =     -104.57112441  energy(sigma->0) =     -104.57112441


--------------------------------------------------------------------------------------------------------




--------------------------------------- Iteration      1(  17)  ---------------------------------------


    POTLOK:  cpu time    0.0550: real time    0.0654
    SETDIJ:  cpu time    0.0447: real time    0.0448
     EDDAV:  cpu time    2.7353: real time    2.7417
 BZINTS: Fermi energy: -0.491274;144.000000 electrons
         Band energy:***********;  BLOECHL correction:  0.000000
       DOS:  cpu time    0.0022: real time    0.0022
    CHARGE:  cpu time    0.1566: real time    0.1569
    MIXING:  cpu time    0.0163: real time    0.0164
    --------------------------------------------
      LOOP:  cpu time    3.0101: real time    3.0275

 eigenvalue-minimisations  :  3104
 total energy-change (2. order) :-0.4349200E-03  (-0.3386821E-04)
 number of electron     143.9999991 magnetization 
 augmentation part      -17.6377034 magnetization 

 Broyden mixing:
  rms(total) = 0.11150E-02    rms(broyden)= 0.11150E-02
  rms(prec ) = 0.19838E-02
  weight for this iteration     100.00

 eigenvalues of (default mixing * dielectric matrix)
  average eigenvalue GAMMA=   2.0625
  6.1288  4.3156  2.8202  2.2807  1.6411  0.9064  0.9064  1.2658  1.2658  0.9646
  1.1270  1.1270

 Free energy of the ion-electron system (eV)
  ---------------------------------------------------
  alpha Z        PSCENC =       170.45750602
  Ewald energy   TEWEN  =     10985.43469298
  -Hartree energ DENC   =    -17408.34149305
  -exchange      EXHF   =         0.00000000
  -V(xc)+E(xc)   XCENC  =        48.82343979
  PAW double counting   =      3819.36421870    -3533.07875958
  entropy T*S    EENTRO =         0.00000000
  eigenvalues    EBANDS =     -1438.09092440
  atomic energy  EATOM  =      7250.85976021
  Solvation  Ediel_sol  =         0.00000000
  ---------------------------------------------------
  free energy    TOTEN  =      -104.57155933 eV

  energy without entropy =     -104.57155933  energy(sigma->0) =     -104.57155933


--------------------------------------------------------------------------------------------------------




--------------------------------------- Iteration      1(  18)  ---------------------------------------


    POTLOK:  cpu time    0.0538: real time    0.0653
    SETDIJ:  cpu time    0.0320: real time    0.0320
     EDDAV:  cpu time    2.7630: real time    2.7696
 BZINTS: Fermi energy: -0.487598;144.000000 electrons
         Band energy:***********;  BLOECHL correction:  0.000000
       DOS:  cpu time    0.0021: real time    0.0021
    CHARGE:  cpu time    0.1560: real time    0.1564
    MIXING:  cpu time    0.0113: real time    0.0114
    --------------------------------------------
      LOOP:  cpu time    3.0183: real time    3.0369

 eigenvalue-minimisations  :  2992
 total energy-change (2. order) :-0.1148286E-02  (-0.2122489E-04)
 number of electron     143.9999991 magnetization 
 augmentation part      -17.6375099 magnetization 

 Broyden mixing:
  rms(total) = 0.58276E-03    rms(broyden)= 0.58276E-03
  rms(prec ) = 0.98776E-03
  weight for this iteration     100.00

 eigenvalues of (default mixing * dielectric matrix)
  average eigenvalue GAMMA=   2.1379
  6.3717  5.1397  2.9916  2.5328  1.9073  0.9060  0.9060  1.3695  1.3695  1.1819
  1.1819  0.9674  0.9674

 Free energy of the ion-electron system (eV)
  ---------------------------------------------------
  alpha Z        PSCENC =       170.45750602
  Ewald energy   TEWEN  =     10985.43469298
  -Hartree energ DENC   =    -17409.11833826
  -exchange      EXHF   =         0.00000000
  -V(xc)+E(xc)   XCENC  =        48.82534347
  PAW double counting   =      3819.25291731    -3532.96469163
  entropy T*S    EENTRO =         0.00000000
  eigenvalues    EBANDS =     -1437.31989772
  atomic energy  EATOM  =      7250.85976021
  Solvation  Ediel_sol  =         0.00000000
  ---------------------------------------------------
  free energy    TOTEN  =      -104.57270762 eV

  energy without entropy =     -104.57270762  energy(sigma->0) =     -104.57270762


--------------------------------------------------------------------------------------------------------




--------------------------------------- Iteration      1(  19)  ---------------------------------------


    POTLOK:  cpu time    0.0562: real time    0.0672
    SETDIJ:  cpu time    0.0199: real time    0.0199
     EDDAV:  cpu time    2.7190: real time    2.7255
 BZINTS: Fermi energy: -0.488302;144.000000 electrons
         Band energy:***********;  BLOECHL correction:  0.000000
       DOS:  cpu time    0.0020: real time    0.0020
    CHARGE:  cpu time    0.1936: real time    0.1941
    MIXING:  cpu time    0.0085: real time    0.0086
    --------------------------------------------
      LOOP:  cpu time    2.9993: real time    3.0173

 eigenvalue-minimisations  :  2672
 total energy-change (2. order) :-0.7024415E-03  (-0.9721830E-05)
 number of electron     143.9999991 magnetization 
 augmentation part      -17.6376367 magnetization 

 Broyden mixing:
  rms(total) = 0.48950E-03    rms(broyden)= 0.48950E-03
  rms(prec ) = 0.70109E-03
  weight for this iteration     100.00

 eigenvalues of (default mixing * dielectric matrix)
  average eigenvalue GAMMA=   2.2741
  7.1840  5.7662  3.3979  2.7327  2.3603  1.5906  1.5906  0.9059  0.9059  1.2077
  1.2077  1.0111  1.0111  0.9659

 Free energy of the ion-electron system (eV)
  ---------------------------------------------------
  alpha Z        PSCENC =       170.45750602
  Ewald energy   TEWEN  =     10985.43469298
  -Hartree energ DENC   =    -17409.27159163
  -exchange      EXHF   =         0.00000000
  -V(xc)+E(xc)   XCENC  =        48.82394447
  PAW double counting   =      3819.20885644    -3532.92077750
  entropy T*S    EENTRO =         0.00000000
  eigenvalues    EBANDS =     -1437.16580105
  atomic energy  EATOM  =      7250.85976021
  Solvation  Ediel_sol  =         0.00000000
  ---------------------------------------------------
  free energy    TOTEN  =      -104.57341006 eV

  energy without entropy =     -104.57341006  energy(sigma->0) =     -104.57341006


--------------------------------------------------------------------------------------------------------




--------------------------------------- Iteration      1(  20)  ---------------------------------------


    POTLOK:  cpu time    0.0552: real time    0.0651
    SETDIJ:  cpu time    0.0196: real time    0.0196
     EDDAV:  cpu time    2.6358: real time    2.6421
 BZINTS: Fermi energy: -0.489233;144.000000 electrons
         Band energy:***********;  BLOECHL correction:  0.000000
       DOS:  cpu time    0.0022: real time    0.0022
    CHARGE:  cpu time    0.1539: real time    0.1543
    MIXING:  cpu time    0.0121: real time    0.0122
    --------------------------------------------
      LOOP:  cpu time    2.8788: real time    2.8955

 eigenvalue-minimisations  :  2696
 total energy-change (2. order) :-0.4382307E-03  (-0.7921061E-05)
 number of electron     143.9999991 magnetization 
 augmentation part      -17.6377387 magnetization 

 Broyden mixing:
  rms(total) = 0.16754E-03    rms(broyden)= 0.16754E-03
  rms(prec ) = 0.23289E-03
  weight for this iteration     100.00

 eigenvalues of (default mixing * dielectric matrix)
  average eigenvalue GAMMA=   2.3178
  7.9113  6.2235  3.5525  2.9819  2.2914  1.7101  1.7101  0.9060  0.9060  1.2238
  1.2238  1.1092  1.1092  0.9543  0.9543

 Free energy of the ion-electron system (eV)
  ---------------------------------------------------
  alpha Z        PSCENC =       170.45750602
  Ewald energy   TEWEN  =     10985.43469298
  -Hartree energ DENC   =    -17409.35454288
  -exchange      EXHF   =         0.00000000
  -V(xc)+E(xc)   XCENC  =        48.82336719
  PAW double counting   =      3819.22109318    -3532.93330318
  entropy T*S    EENTRO =         0.00000000
  eigenvalues    EBANDS =     -1437.08242181
  atomic energy  EATOM  =      7250.85976021
  Solvation  Ediel_sol  =         0.00000000
  ---------------------------------------------------
  free energy    TOTEN  =      -104.57384829 eV

  energy without entropy =     -104.57384829  energy(sigma->0) =     -104.57384829


--------------------------------------------------------------------------------------------------------




--------------------------------------- Iteration      1(  21)  ---------------------------------------


    POTLOK:  cpu time    0.0537: real time    0.0651
    SETDIJ:  cpu time    0.0283: real time    0.0283
     EDDAV:  cpu time    2.5332: real time    2.5392
 BZINTS: Fermi energy: -0.490700;144.000000 electrons
         Band energy:***********;  BLOECHL correction:  0.000000
       DOS:  cpu time    0.0021: real time    0.0021
    CHARGE:  cpu time    0.1688: real time    0.1692
    MIXING:  cpu time    0.0090: real time    0.0091
    --------------------------------------------
      LOOP:  cpu time    2.7951: real time    2.8130

 eigenvalue-minimisations  :  2616
 total energy-change (2. order) :-0.1099541E-03  (-0.1649612E-05)
 number of electron     143.9999991 magnetization 
 augmentation part      -17.6376982 magnetization 

 Broyden mixing:
  rms(total) = 0.93370E-04    rms(broyden)= 0.93370E-04
  rms(prec ) = 0.11778E-03
  weight for this iteration     100.00

 eigenvalues of (default mixing * dielectric matrix)
  average eigenvalue GAMMA=   2.3872
  8.8952  6.5449  3.6515  3.2500  2.3450  1.8911  1.8911  0.9060  0.9060  1.2357
  1.2357  1.3432  1.1717  1.0018  0.9634  0.9634

 Free energy of the ion-electron system (eV)
  ---------------------------------------------------
  alpha Z        PSCENC =       170.45750602
  Ewald energy   TEWEN  =     10985.43469298
  -Hartree energ DENC   =    -17409.33490029
  -exchange      EXHF   =         0.00000000
  -V(xc)+E(xc)   XCENC  =        48.82298350
  PAW double counting   =      3819.22384097    -3532.93577501
  entropy T*S    EENTRO =         0.00000000
  eigenvalues    EBANDS =     -1437.10206663
  atomic energy  EATOM  =      7250.85976021
  Solvation  Ediel_sol  =         0.00000000
  ---------------------------------------------------
  free energy    TOTEN  =      -104.57395824 eV

  energy without entropy =     -104.57395824  energy(sigma->0) =     -104.57395824


--------------------------------------------------------------------------------------------------------




--------------------------------------- Iteration      1(  22)  ---------------------------------------


    POTLOK:  cpu time    0.0540: real time    0.0648
    SETDIJ:  cpu time    0.0198: real time    0.0198
     EDDAV:  cpu time    2.2628: real time    2.2682
 BZINTS: Fermi energy: -0.491983;144.000000 electrons
         Band energy:***********;  BLOECHL correction:  0.000000
       DOS:  cpu time    0.0022: real time    0.0022
    CHARGE:  cpu time    0.1436: real time    0.1439
    MIXING:  cpu time    0.0161: real time    0.0162
    --------------------------------------------
      LOOP:  cpu time    2.4985: real time    2.5152

 eigenvalue-minimisations  :  2272
 total energy-change (2. order) :-0.3724219E-04  (-0.3849516E-06)
 number of electron     143.9999991 magnetization 
 augmentation part      -17.6376962 magnetization 

 Broyden mixing:
  rms(total) = 0.49240E-04    rms(broyden)= 0.49240E-04
  rms(prec ) = 0.64075E-04
  weight for this iteration     100.00

 eigenvalues of (default mixing * dielectric matrix)
  average eigenvalue GAMMA=   2.3713
  9.0053  6.7729  3.8467  3.2880  2.5342  1.9037  1.9037  0.9060  0.9060  1.4126
  1.2418  1.2418  1.2157  1.2157  0.9638  0.9638  0.9909

 Free energy of the ion-electron system (eV)
  ---------------------------------------------------
  alpha Z        PSCENC =       170.45750602
  Ewald energy   TEWEN  =     10985.43469298
  -Hartree energ DENC   =    -17409.30546073
  -exchange      EXHF   =         0.00000000
  -V(xc)+E(xc)   XCENC  =        48.82251651
  PAW double counting   =      3819.21526357    -3532.92729867
  entropy T*S    EENTRO =         0.00000000
  eigenvalues    EBANDS =     -1437.13097537
  atomic energy  EATOM  =      7250.85976021
  Solvation  Ediel_sol  =         0.00000000
  ---------------------------------------------------
  free energy    TOTEN  =      -104.57399549 eV

  energy without entropy =     -104.57399549  energy(sigma->0) =     -104.57399549


--------------------------------------------------------------------------------------------------------




--------------------------------------- Iteration      1(  23)  ---------------------------------------


    POTLOK:  cpu time    0.0560: real time    0.0664
    SETDIJ:  cpu time    0.0385: real time    0.0386
     EDDAV:  cpu time    1.9595: real time    1.9642
 BZINTS: Fermi energy: -0.492802;144.000000 electrons
         Band energy:***********;  BLOECHL correction:  0.000000
       DOS:  cpu time    0.0022: real time    0.0022
    CHARGE:  cpu time    0.1378: real time    0.1381
    MIXING:  cpu time    0.0083: real time    0.0084
    --------------------------------------------
      LOOP:  cpu time    2.2023: real time    2.2179

 eigenvalue-minimisations  :  2104
 total energy-change (2. order) :-0.1027386E-04  (-0.8193749E-07)
 number of electron     143.9999991 magnetization 
 augmentation part      -17.6376941 magnetization 

 Broyden mixing:
  rms(total) = 0.30329E-04    rms(broyden)= 0.30329E-04
  rms(prec ) = 0.40252E-04
  weight for this iteration     100.00

 eigenvalues of (default mixing * dielectric matrix)
  average eigenvalue GAMMA=   2.3639
  9.0154  6.9065  3.6598  3.6598  2.6092  2.2169  1.8590  1.8590  0.9060  0.9060
  1.2330  1.2330  1.2898  1.2898  1.0345  0.9692  0.9692  0.9345

 Free energy of the ion-electron system (eV)
  ---------------------------------------------------
  alpha Z        PSCENC =       170.45750602
  Ewald energy   TEWEN  =     10985.43469298
  -Hartree energ DENC   =    -17409.31384617
  -exchange      EXHF   =         0.00000000
  -V(xc)+E(xc)   XCENC  =        48.82264156
  PAW double counting   =      3819.21467177    -3532.92677485
  entropy T*S    EENTRO =         0.00000000
  eigenvalues    EBANDS =     -1437.12265728
  atomic energy  EATOM  =      7250.85976021
  Solvation  Ediel_sol  =         0.00000000
  ---------------------------------------------------
  free energy    TOTEN  =      -104.57400576 eV

  energy without entropy =     -104.57400576  energy(sigma->0) =     -104.57400576


--------------------------------------------------------------------------------------------------------




--------------------------------------- Iteration      1(  24)  ---------------------------------------


    POTLOK:  cpu time    0.0531: real time    0.0646
    SETDIJ:  cpu time    0.0222: real time    0.0222
     EDDAV:  cpu time    2.0750: real time    2.0799
 BZINTS: Fermi energy: -0.493619;144.000000 electrons
         Band energy:***********;  BLOECHL correction:  0.000000
       DOS:  cpu time    0.0021: real time    0.0021
    CHARGE:  cpu time    0.1434: real time    0.1437
    MIXING:  cpu time    0.0144: real time    0.0145
    --------------------------------------------
      LOOP:  cpu time    2.3103: real time    2.3271

 eigenvalue-minimisations  :  1880
 total energy-change (2. order) :-0.2125616E-05  (-0.2304455E-07)
 number of electron     143.9999991 magnetization 
 augmentation part      -17.6376946 magnetization 

 Broyden mixing:
  rms(total) = 0.14724E-04    rms(broyden)= 0.14724E-04
  rms(prec ) = 0.21144E-04
  weight for this iteration     100.00

 eigenvalues of (default mixing * dielectric matrix)
  average eigenvalue GAMMA=   2.3699
  9.0615  6.9625  3.8899  3.8899  2.6847  2.6847  1.9179  1.9179  0.9060  0.9060
  1.3257  1.3257  1.2302  1.2302  1.2348  0.9906  0.9906  0.9395  0.9395

 Free energy of the ion-electron system (eV)
  ---------------------------------------------------
  alpha Z        PSCENC =       170.45750602
  Ewald energy   TEWEN  =     10985.43469298
  -Hartree energ DENC   =    -17409.30664176
  -exchange      EXHF   =         0.00000000
  -V(xc)+E(xc)   XCENC  =        48.82256080
  PAW double counting   =      3819.21396711    -3532.92607951
  entropy T*S    EENTRO =         0.00000000
  eigenvalues    EBANDS =     -1437.12977375
  atomic energy  EATOM  =      7250.85976021
  Solvation  Ediel_sol  =         0.00000000
  ---------------------------------------------------
  free energy    TOTEN  =      -104.57400789 eV

  energy without entropy =     -104.57400789  energy(sigma->0) =     -104.57400789


--------------------------------------------------------------------------------------------------------




--------------------------------------- Iteration      1(  25)  ---------------------------------------


    POTLOK:  cpu time    0.0556: real time    0.0655
    SETDIJ:  cpu time    0.0210: real time    0.0210
     EDDAV:  cpu time    1.9781: real time    1.9828
 BZINTS: Fermi energy: -0.494327;144.000000 electrons
         Band energy:***********;  BLOECHL correction:  0.000000
       DOS:  cpu time    0.0022: real time    0.0022
    --------------------------------------------
      LOOP:  cpu time    2.0569: real time    2.0715

 eigenvalue-minimisations  :  1904
 total energy-change (2. order) :-0.6902701E-06  (-0.1489647E-07)
 number of electron     143.9999991 magnetization 
 augmentation part      -17.6376946 magnetization 

 Free energy of the ion-electron system (eV)
  ---------------------------------------------------
  alpha Z        PSCENC =       170.45750602
  Ewald energy   TEWEN  =     10985.43469298
  -Hartree energ DENC   =    -17409.30530609
  -exchange      EXHF   =         0.00000000
  -V(xc)+E(xc)   XCENC  =        48.82251713
  PAW double counting   =      3819.21209904    -3532.92418993
  entropy T*S    EENTRO =         0.00000000
  eigenvalues    EBANDS =     -1437.13108794
  atomic energy  EATOM  =      7250.85976021
  Solvation  Ediel_sol  =         0.00000000
  ---------------------------------------------------
  free energy    TOTEN  =      -104.57400858 eV

[...]
      7     -28.0736      2.00000
      8     -28.0732      2.00000
      9     -14.8264      2.00000
     10     -14.8262      2.00000
     11     -14.7571      2.00000
     12     -14.7571      2.00000
     13     -14.6806      2.00000
     14     -14.6806      2.00000
     15     -13.9841      2.00000
     16     -13.9794      2.00000
     17     -13.9564      2.00000
     18     -13.9555      2.00000
     19     -13.9215      2.00000
     20     -13.9205      2.00000
     21     -13.8715      2.00000
     22     -13.8642      2.00000
     23     -13.7866      2.00000
     24     -13.7851      2.00000
     25     -13.7834      2.00000
     26     -13.7804      2.00000
     27     -13.4163      2.00000
     28     -13.4092      2.00000
     29     -13.3582      2.00000
     30     -13.3508      2.00000
     31     -13.3354      2.00000
     32     -13.3329      2.00000
     33     -10.9379      2.00000
     34     -10.9300      2.00000
     35     -10.6476      2.00000
     36     -10.6353      2.00000
     37      -6.3370      2.00000
     38      -6.3263      2.00000
     39      -6.1077      2.00000
     40      -6.0854      2.00000
     41      -6.0240      2.00000
     42      -6.0134      2.00000
     43      -5.8230      2.00000
     44      -5.8090      2.00000
     45      -5.7717      2.00000
     46      -5.7355      2.00000
     47      -5.7121      2.00000
     48      -5.6058      2.00000
     49      -2.6947      2.00000
     50      -2.6111      2.00000
     51      -2.4852      2.00000
     52      -2.4475      2.00000
     53      -2.1030      2.00000
     54      -2.0381      2.00000
     55      -2.0298      2.00000
     56      -1.9906      2.00000
     57      -1.8826      2.00000
     58      -1.8581      2.00000
     59      -1.7262      2.00000
     60      -1.6537      2.00000
     61      -1.5958      2.00000
     62      -1.5066      2.00000
     63      -1.4000      2.00000
     64      -1.3701      2.00000
     65      -1.2302      2.00000
     66      -1.1679      2.00000
     67      -1.1093      2.00000
     68      -0.9701      2.00000
     69      -0.8853      2.00000
     70      -0.8428      2.00000
     71      -0.7705      2.00000
     72      -0.7286      2.00000
     73       0.4507      0.00000
     74       0.4794      0.00000
     75       0.6076      0.00000
     76       0.6504      0.00000
     77       0.7330      0.00000
     78       0.7977      0.00000
     79       0.9576      0.00000
     80       0.9883      0.00000
     81       1.0474      0.00000
     82       1.1154      0.00000
     83       1.2782      0.00000
     84       1.3674      0.00000
     85       1.4244      0.00000
     86       1.5309      0.00000
     87       1.6478      0.00000
     88       1.7438      0.00000

 k-point    15 :       0.0000    0.5000    0.4000
  band No.  band energies     occupation 
      1     -29.4806      2.00000
      2     -29.4806      2.00000
      3     -28.6341      2.00000
      4     -28.6341      2.00000
      5     -28.5184      2.00000
      6     -28.5184      2.00000
      7     -28.0734      2.00000
      8     -28.0734      2.00000
      9     -14.8259      2.00000
     10     -14.8259      2.00000
     11     -14.7578      2.00000
     12     -14.7578      2.00000
     13     -14.6827      2.00000
     14     -14.6827      2.00000
     15     -13.9829      2.00000
     16     -13.9829      2.00000
     17     -13.9549      2.00000
     18     -13.9549      2.00000
     19     -13.9233      2.00000
     20     -13.9233      2.00000
     21     -13.8690      2.00000
     22     -13.8690      2.00000
     23     -13.7886      2.00000
     24     -13.7885      2.00000
     25     -13.7811      2.00000
     26     -13.7811      2.00000
     27     -13.4122      2.00000
     28     -13.4122      2.00000
     29     -13.3555      2.00000
     30     -13.3555      2.00000
     31     -13.3331      2.00000
     32     -13.3331      2.00000
     33     -10.9282      2.00000
     34     -10.9282      2.00000
     35     -10.6321      2.00000
     36     -10.6321      2.00000
     37      -6.3610      2.00000
     38      -6.3609      2.00000
     39      -6.0800      2.00000
     40      -6.0800      2.00000
     41      -6.0142      2.00000
     42      -6.0141      2.00000
     43      -5.7934      2.00000
     44      -5.7933      2.00000
     45      -5.7623      2.00000
     46      -5.7622      2.00000
     47      -5.6507      2.00000
     48      -5.6507      2.00000
     49      -2.6016      2.00000
     50      -2.6016      2.00000
     51      -2.4864      2.00000
     52      -2.4864      2.00000
     53      -2.0634      2.00000
     54      -2.0634      2.00000
     55      -2.0177      2.00000
     56      -2.0177      2.00000
     57      -1.8872      2.00000
     58      -1.8872      2.00000
     59      -1.6321      2.00000
     60      -1.6320      2.00000
     61      -1.4778      2.00000
     62      -1.4778      2.00000
     63      -1.4282      2.00000
     64      -1.4282      2.00000
     65      -1.2118      2.00000
     66      -1.2118      2.00000
     67      -1.0470      2.00000
     68      -1.0470      2.00000
     69      -0.8742      2.00000
     70      -0.8742      2.00000
     71      -0.7572      2.00000
     72      -0.7571      2.00000
     73       0.3758      0.00000
     74       0.3758      0.00000
     75       0.6018      0.00000
     76       0.6018      0.00000
     77       0.7875      0.00000
     78       0.7876      0.00000
     79       0.9039      0.00000
     80       0.9039      0.00000
     81       1.0054      0.00000
     82       1.0054      0.00000
     83       1.3402      0.00000
     84       1.3402      0.00000
     85       1.5163      0.00000
     86       1.5163      0.00000
     87       1.6086      0.00000
     88       1.6086      0.00000


--------------------------------------------------------------------------------------------------------


 soft charge-density along one line, spin component           1
         0         1         2         3         4         5         6         7         8         9
 total charge-density along one line
 
 pseudopotential strength for first ion, spin component:           1
  5.073  -5.588  -0.000  -0.008  -0.038  -0.000  -0.003  -0.015
 -5.588  -2.740   0.000   0.002   0.007  -0.000  -0.001  -0.006
 -0.000   0.000  -6.783  -0.000  -0.000   1.855  -0.000  -0.000
 -0.008   0.002  -0.000  -6.777  -0.002  -0.000   1.868  -0.004
 -0.038   0.007  -0.000  -0.002  -6.777  -0.000  -0.004   1.866
 -0.000  -0.000   1.855  -0.000  -0.000   7.309  -0.000  -0.000
 -0.003  -0.001  -0.000   1.868  -0.004  -0.000   7.311  -0.000
 -0.015  -0.006  -0.000  -0.004   1.866  -0.000  -0.000   7.311
 -0.000   0.000  -0.013  -0.000  -0.000  -0.009  -0.000  -0.000
 -0.000   0.000  -0.001  -0.000  -0.000  -0.000  -0.000  -0.000
  0.002  -0.001   0.000  -0.004   0.007   0.000  -0.003   0.005
 -0.002   0.001  -0.000  -0.013  -0.002  -0.000  -0.008  -0.002
  0.003  -0.001   0.000  -0.001  -0.012   0.000  -0.001  -0.008
  0.000   0.000   0.001   0.000   0.000   0.000   0.000   0.000
  0.000   0.000   0.000   0.000   0.000  -0.000   0.000   0.000
 -0.000  -0.000  -0.000   0.000  -0.000  -0.000   0.000  -0.000
  0.000   0.000   0.000   0.001   0.000   0.000   0.000   0.000
 -0.000  -0.000  -0.000   0.000   0.000  -0.000   0.000   0.000
 total augmentation occupancy for first ion, spin component:           1
  2.102  -0.257   0.000   0.012   0.055   0.000  -0.005  -0.020  -0.000   0.000   0.018  -0.010   0.035   0.000   0.000  -0.010
 -0.257   0.640   0.000  -0.032  -0.145   0.000   0.012   0.033  -0.000   0.000  -0.032   0.013  -0.069   0.000   0.000   0.043
  0.000   0.000   2.013   0.000   0.000  -0.012   0.000   0.000  -0.085   0.022  -0.000  -0.000   0.000   0.078  -0.041  -0.000
  0.012  -0.032  -0.000   1.999   0.003   0.000  -0.002  -0.002   0.000   0.000  -0.044  -0.069  -0.014   0.000   0.000   0.043
  0.055  -0.145   0.000   0.003   1.995  -0.000  -0.002  -0.000   0.000   0.000   0.035  -0.006  -0.052  -0.000   0.000  -0.032
  0.000   0.000  -0.012   0.000   0.000   0.008  -0.000   0.000   0.023  -0.009   0.000   0.000   0.000  -0.030   0.014   0.000
 -0.005   0.012   0.000  -0.002  -0.002   0.000   0.005   0.001  -0.000   0.000   0.016   0.016   0.005   0.000   0.000  -0.022
 -0.020   0.033   0.000  -0.002  -0.000   0.000   0.001   0.004   0.000   0.000  -0.006  -0.000   0.008   0.000   0.000   0.008
  0.000   0.000  -0.085   0.000  -0.000   0.023   0.000  -0.000   0.151  -0.013   0.000   0.000   0.000  -0.189   0.018   0.000
  0.000   0.000   0.022   0.000   0.000  -0.009   0.000   0.000  -0.013   0.068  -0.000   0.000   0.000   0.017  -0.085   0.000
  0.018  -0.032   0.000  -0.044   0.035   0.000   0.016  -0.006   0.000   0.000   0.120   0.053   0.021   0.000  -0.000  -0.149
 -0.010   0.013   0.000  -0.069  -0.006   0.000   0.016  -0.000   0.000   0.000   0.053   0.087   0.007   0.000   0.000  -0.072
  0.035  -0.069   0.000  -0.014  -0.052   0.000   0.005   0.008   0.000   0.000   0.021   0.007   0.096   0.000   0.000  -0.028
  0.000  -0.000   0.078   0.000   0.000  -0.030   0.000   0.000  -0.189   0.017   0.000   0.000   0.000   0.267  -0.032   0.000
 -0.000  -0.000  -0.041  -0.000   0.000   0.014   0.000   0.000   0.018  -0.085   0.000   0.000   0.000  -0.032   0.114   0.000
 -0.010   0.043   0.000   0.043  -0.032   0.000  -0.022   0.008   0.000   0.000  -0.149  -0.072  -0.028  -0.000   0.000   0.206
  0.007  -0.030   0.000   0.064  -0.000   0.000  -0.023  -0.001   0.000  -0.000  -0.070  -0.111  -0.011   0.000   0.000   0.107
 -0.028   0.084   0.000   0.022   0.050   0.000  -0.008  -0.011   0.000   0.000  -0.030  -0.012  -0.127  -0.000  -0.000   0.047


------------------------ aborting loop because EDIFF is reached ----------------------------------------


    CHARGE:  cpu time    0.1433: real time    0.1437
    FORLOC:  cpu time    0.0090: real time    0.0090
    FORNL :  cpu time    0.4835: real time    0.4847
    STRESS:  cpu time    1.4475: real time    1.4511
    FORCOR:  cpu time    0.0611: real time    0.0612
    FORHAR:  cpu time    0.0205: real time    0.0205
    MIXING:  cpu time    0.0489: real time    0.0491
    OFIELD:  cpu time    0.0000: real time    0.0000

  FORCE on cell =-STRESS in cart. coord.  units (eV):
  Direction    XX          YY          ZZ          XY          YZ          ZX
  --------------------------------------------------------------------------------------
  Alpha Z   170.45751   170.45751   170.45751
  Ewald  -18711.31926 15119.75342 14576.98745    -0.00003     0.00000   139.18486
  Hartree-15666.20769 16750.29992 16325.21241     0.00000    -0.00000   109.08862
  E(xc)    -461.52576  -459.42057  -459.91216    -0.00000    -0.00000     0.12338
  Local   32964.67735-33305.44827-32329.63499     0.00001    -0.00000  -246.91627
  n-local   338.56587   338.12866   340.00431     0.05935    -0.20702    -1.02490
  augment  -169.07701  -169.53137  -169.53941    -0.00000    -0.00000     0.21394
  Kinetic  1523.69257  1544.22115  1535.71368    -0.06271    -0.81311    -0.53828
  Fock        0.00000     0.00000     0.00000     0.00000     0.00000     0.00000
  -------------------------------------------------------------------------------------
  Total     -10.73642   -11.53955   -10.71120     0.00000     0.00000     0.13134
  in kB      -9.11082    -9.79234    -9.08942     0.00000     0.00000     0.11146
  external pressure =       -9.33 kB  Pullay stress =        0.00 kB


 VOLUME and BASIS-vectors are now :
 -----------------------------------------------------------------------------
  energy-cutoff  :      500.00
  volume of cell :     1888.05
      direct lattice vectors                 reciprocal lattice vectors
    24.009468079  0.000000000  0.000000000     0.041650236  0.000000000  0.000000000
     0.000000000  6.777849674  0.000000000     0.000000000  0.147539419  0.000000000
     0.000000000  0.000000000 11.602143288     0.000000000  0.000000000  0.086190971

  length of vectors
    24.009468079  6.777849674 11.602143288     0.041650236  0.147539419  0.086190971


 FORCES acting on ions
    electron-ion (+dipol)            ewald-force                    non-local-force                 convergence-correction
 -----------------------------------------------------------------------------------------------
   0.761E+03 0.102E-04 0.440E+02   -.756E+03 0.990E-05 -.432E+02   -.431E+01 0.203E-18 -.803E+00   -.109E-03 -.962E-09 0.218E-04
   -.761E+03 -.629E-04 -.440E+02   0.756E+03 -.128E-04 0.432E+02   0.431E+01 -.931E-19 0.803E+00   0.109E-03 0.109E-08 -.218E-04
   0.886E+02 -.615E-04 -.403E+02   -.884E+02 -.173E-04 0.390E+02   0.238E+00 0.413E-18 0.136E+01   0.114E-03 0.163E-08 -.985E-04
   -.886E+02 0.106E-04 0.403E+02   0.884E+02 0.125E-04 -.390E+02   -.238E+00 -.349E-18 -.136E+01   -.114E-03 -.147E-08 0.985E-04
   0.609E+03 -.612E-04 -.480E+02   -.607E+03 -.163E-04 0.482E+02   -.177E+01 -.691E-18 -.262E+00   0.270E-04 0.133E-08 -.114E-03
   -.609E+03 0.901E-05 0.480E+02   0.607E+03 0.141E-04 -.482E+02   0.177E+01 -.514E-18 0.262E+00   -.270E-04 -.122E-08 0.114E-03
   0.348E+03 0.111E-04 -.123E+02   -.348E+03 0.128E-04 0.116E+02   -.338E+00 0.349E-17 0.727E+00   0.715E-04 -.142E-08 0.447E-04
   -.348E+03 -.623E-04 0.123E+02   0.348E+03 -.130E-04 -.116E+02   0.338E+00 0.446E-17 -.727E+00   -.715E-04 0.144E-08 -.447E-04
   0.269E+03 0.363E+02 -.465E+02   -.269E+03 -.378E+02 0.474E+02   -.625E-02 0.152E+01 -.853E+00   0.492E-04 0.604E-04 -.552E-04
   -.269E+03 -.363E+02 0.465E+02   0.269E+03 0.378E+02 -.474E+02   0.625E-02 -.152E+01 0.853E+00   -.492E-04 -.604E-04 0.552E-04
   0.114E+03 -.334E+02 0.201E+01   -.114E+03 0.345E+02 -.933E+00   -.129E-02 -.113E+01 -.107E+01   -.146E-04 -.625E-04 -.971E-05
   -.114E+03 0.334E+02 -.201E+01   0.114E+03 -.345E+02 0.933E+00   0.129E-02 0.113E+01 0.107E+01   0.146E-04 0.625E-04 0.971E-05
   -.269E+03 0.363E+02 0.465E+02   0.269E+03 -.378E+02 -.474E+02   0.625E-02 0.152E+01 0.853E+00   -.492E-04 0.604E-04 0.552E-04
   0.269E+03 -.363E+02 -.465E+02   -.269E+03 0.378E+02 0.474E+02   -.625E-02 -.152E+01 -.853E+00   0.492E-04 -.604E-04 -.552E-04
   -.114E+03 -.334E+02 -.201E+01   0.114E+03 0.345E+02 0.933E+00   0.129E-02 -.113E+01 0.107E+01   0.146E-04 -.625E-04 0.971E-05
   0.114E+03 0.334E+02 0.201E+01   -.114E+03 -.345E+02 -.933E+00   -.129E-02 0.113E+01 -.107E+01   -.146E-04 0.625E-04 -.971E-05
   0.323E+03 -.413E-05 0.460E+02   -.325E+03 -.608E-05 -.466E+02   0.142E+01 -.118E-17 0.611E+00   0.442E-04 0.408E-09 0.387E-04
   -.323E+03 0.616E-05 -.460E+02   0.325E+03 0.630E-05 0.466E+02   -.142E+01 -.125E-17 -.611E+00   -.442E-04 -.436E-09 -.387E-04
   0.332E+02 0.837E-05 -.102E+02   -.313E+02 0.737E-05 0.954E+01   -.157E+01 0.510E-19 0.685E+00   -.359E-04 -.600E-09 -.188E-04
   -.332E+02 -.277E-05 0.102E+02   0.313E+02 -.703E-05 -.954E+01   0.157E+01 -.212E-18 -.685E+00   0.359E-04 0.559E-09 0.188E-04
   0.234E+03 0.431E-05 0.150E+02   -.234E+03 0.800E-05 -.161E+02   -.496E-01 -.214E-17 0.111E+01   0.392E-04 -.524E-09 0.294E-04
   -.234E+03 -.543E-05 -.150E+02   0.234E+03 -.805E-05 0.161E+02   0.496E-01 -.203E-17 -.111E+01   -.392E-04 0.486E-09 -.294E-04
   0.150E+03 -.603E-05 0.578E+02   -.149E+03 -.735E-05 -.595E+02   -.593E+00 -.100E-16 0.175E+01   0.242E-06 0.528E-09 0.999E-04
   -.150E+03 0.371E-05 -.578E+02   0.149E+03 0.723E-05 0.595E+02   0.593E+00 -.102E-16 -.175E+01   -.241E-06 -.539E-09 -.999E-04
 -----------------------------------------------------------------------------------------------
   0.687E-04 -.214E-03 0.834E-04   0.199E-12 0.169E-13 0.213E-13   0.444E-15 0.195E-15 0.222E-15   0.198E-07 0.243E-09 -.603E-08
 
 
 POSITION                                       TOTAL-FORCE (eV/Angst)
 -----------------------------------------------------------------------------------
      0.13670      1.69446      8.15131         0.782842      0.000000     -0.000345
      9.37277      5.08339      3.45083        -0.782842     -0.000000      0.000345
      4.36803      5.08339      2.13930         0.412464     -0.000000      0.000362
      5.14143      1.69446      9.46285        -0.412464     -0.000000     -0.000362
      1.43529      5.08339     10.60159         0.615575     -0.000000      0.000652
      8.07418      1.69446      1.00055        -0.615575      0.000000     -0.000652
      3.06944      1.69446      4.58200         0.462804     -0.000000      0.000336
      6.44002      5.08339      7.02014        -0.462804      0.000000     -0.000336
      1.75027      0.49396      1.63425        -0.120558      0.000089      0.000625
      7.75920      6.28389      9.96789         0.120558     -0.000089     -0.000625
      2.75446      6.29659      7.64894         0.261531      0.000034      0.000616
      6.75500      0.48126      3.95320        -0.261531     -0.000034     -0.000616
      7.75920      3.88288      9.96789         0.120558      0.000089     -0.000625
      1.75027      2.89497      1.63425        -0.120558     -0.000089      0.000625
      6.75500      2.90767      3.95320        -0.261531      0.000034     -0.000616
      2.75446      3.87018      7.64894         0.261531     -0.000034      0.000616
      0.74693      5.08339      6.96039        -0.247542     -0.000000     -0.000682
      8.76254      1.69446      4.64175         0.247542     -0.000000      0.000682
      3.75780      1.69446      0.91175         0.258628      0.000000     -0.000134
      5.75166      5.08339     10.69040        -0.258628     -0.000000      0.000134
      1.78112      1.69446     11.12310        -0.156385      0.000000      0.000218
      7.72835      5.08339      0.47904         0.156385      0.000000     -0.000218
      2.72362      5.08339      5.53424        -0.186169      0.000000      0.000308
      6.78585      1.69446      6.06790         0.186169     -0.000000     -0.000308
 -----------------------------------------------------------------------------------
    total drift:                                0.000069     -0.000214      0.000083


--------------------------------------------------------------------------------------------------------



  FREE ENERGIE OF THE ION-ELECTRON SYSTEM (eV)
  ---------------------------------------------------
  free  energy   TOTEN  =      -104.57400858 eV

  energy  without entropy=     -104.57400858  energy(sigma->0) =     -104.57400858
 


--------------------------------------------------------------------------------------------------------


    POTLOK:  cpu time    0.0736: real time    0.0737


--------------------------------------------------------------------------------------------------------


 writing wavefunctions
     LOOP+:  cpu time   81.0432: real time   82.8159
    4ORBIT:  cpu time    0.0000: real time    0.0000
 BZINTS: Fermi energy: -0.494327;144.000000 electrons
         Band energy:***********;  BLOECHL correction:  0.000000

 total amount of memory used by VASP MPI-rank0    79352. kBytes
=======================================================================

   base      :      30000. kBytes
   nonlr-proj:       2646. kBytes
   fftplans  :       5898. kBytes
   grid      :       8824. kBytes
   one-center:         93. kBytes
   wavefun   :      31891. kBytes
 
  
  
 General timing and accounting informations for this job:
 ========================================================
  
                  Total CPU time used (sec):       88.718
                            User time (sec):       83.935
                          System time (sec):        4.783
                         Elapsed time (sec):       92.416
  
                   Maximum memory used (kb):      169456.
                   Average memory used (kb):           0.
  
                          Minor page faults:        68439
                          Major page faults:          240
                 Voluntary context switches:        14021
