 vasp.5.4.4.18Apr17-6-g9f103f2a35 (build Nov 21 2017 15:30:27) complex          
  
 executed on             LinuxIFC date 2020.09.15  08:04:35
 running on   64 total cores
 distrk:  each k-point on   32 cores,    2 groups
 distr:  one band on NCORES_PER_BAND=   4 cores,    8 groups


--------------------------------------------------------------------------------------------------------


 INCAR:
 POTCAR:   PAW_PBE Ba_sv 06Sep2000                
 POTCAR:   PAW_PBE Si 05Jan2001                   

 ----------------------------------------------------------------------------- 
|                                                                             |
|           W    W    AA    RRRRR   N    N  II  N    N   GGGG   !!!           |
|           W    W   A  A   R    R  NN   N  II  NN   N  G    G  !!!           |
|           W    W  A    A  R    R  N N  N  II  N N  N  G       !!!           |
|           W WW W  AAAAAA  RRRRR   N  N N  II  N  N N  G  GGG   !            |
|           WW  WW  A    A  R   R   N   NN  II  N   NN  G    G                |
|           W    W  A    A  R    R  N    N  II  N    N   GGGG   !!!           |
|                                                                             |
|      You have enabled k-point parallelism (KPAR>1).                         |
|      This developmental code was originally  written by Paul Kent at ORNL,  |
|      and carefully double checked in Vienna.                                |
|      GW as well as linear response parallelism added by Martijn Marsman     |
|      and Georg Kresse.                                                      |
|      Carefully verify results versus KPAR=1.                                |
|      Report problems to Paul Kent and Vienna.                               |
|                                                                             |
 ----------------------------------------------------------------------------- 

 POTCAR:   PAW_PBE Ba_sv 06Sep2000                
   VRHFIN =Ba: 5s5p6s                                                           
   LEXCH  = PE                                                                  
   EATOM  =   700.2255 eV,   51.4651 Ry                                         
                                                                                
   TITEL  = PAW_PBE Ba_sv 06Sep2000                                             
   LULTRA =        F    use ultrasoft PP ?                                      
   IUNSCR =        1    unscreen: 0-lin 1-nonlin 2-no                           
   RPACOR =    2.400    partial core radius                                     
   POMASS =  137.327; ZVAL   =   10.000    mass and valenz                      
   RCORE  =    2.800    outmost cutoff radius                                   
   RWIGS  =    3.740; RWIGS  =    1.979    wigner-seitz radius (au A)           
   ENMAX  =  187.210; ENMIN  =  140.408 eV                                      
   RCLOC  =    2.516    cutoff for local pot                                    
   LCOR   =        T    correct aug charges                                     
   LPAW   =        T    paw PP                                                  
   EAUG   =  351.165                                                            
   DEXC   =     .000                                                            
   RMAX   =    3.370    core radius for proj-oper                               
   RAUG   =    1.300    factor for augmentation sphere                          
   RDEP   =    2.976    radius for radial grids                                 
   QCUT   =   -3.709; QGAM   =    7.419    optimization parameters              
                                                                                
   Description                                                                  
     l     E      TYP  RCUT    TYP  RCUT                                        
     0   .000     23  2.800                                                     
     0   .000     23  2.800                                                     
     1   .000     23  2.700                                                     
     1  2.000     23  2.700                                                     
     2   .000     23  2.700                                                     
     2   .000     23  2.700                                                     
  local pseudopotential read in
  partial core-charges read in
  atomic valenz-charges read in
  non local Contribution for L=           0  read in
    real space projection operators read in
  non local Contribution for L=           0  read in
    real space projection operators read in
  non local Contribution for L=           1  read in
    real space projection operators read in
  non local Contribution for L=           1  read in
    real space projection operators read in
  non local Contribution for L=           2  read in
    real space projection operators read in
  non local Contribution for L=           2  read in
    real space projection operators read in
    PAW grid and wavefunctions read in
 
   number of l-projection  operators is LMAX  =           6
   number of lm-projection operators is LMMAX =          18
 
 POTCAR:   PAW_PBE Si 05Jan2001                   
   VRHFIN =Si: s2p2                                                             
   LEXCH  = PE                                                                  
   EATOM  =   103.0669 eV,    7.5752 Ry                                         
                                                                                
   TITEL  = PAW_PBE Si 05Jan2001                                                
   LULTRA =        F    use ultrasoft PP ?                                      
   IUNSCR =        1    unscreen: 0-lin 1-nonlin 2-no                           
   RPACOR =    1.500    partial core radius                                     
   POMASS =   28.085; ZVAL   =    4.000    mass and valenz                      
   RCORE  =    1.900    outmost cutoff radius                                   
   RWIGS  =    2.480; RWIGS  =    1.312    wigner-seitz radius (au A)           
   ENMAX  =  245.345; ENMIN  =  184.009 eV                                      
   ICORE  =        2    local potential                                         
   LCOR   =        T    correct aug charges                                     
   LPAW   =        T    paw PP                                                  
   EAUG   =  322.069                                                            
   DEXC   =    -.007                                                            
   RMAX   =    2.944    core radius for proj-oper                               
   RAUG   =    1.300    factor for augmentation sphere                          
   RDEP   =    1.993    radius for radial grids                                 
   QCUT   =   -4.246; QGAM   =    8.493    optimization parameters              
                                                                                
   Description                                                                  
     l     E      TYP  RCUT    TYP  RCUT                                        
     0   .000     23  1.900                                                     
     0   .000     23  1.900                                                     
     1   .000     23  1.900                                                     
     1   .000     23  1.900                                                     
     2   .000      7  1.900                                                     
  local pseudopotential read in
  partial core-charges read in
  atomic valenz-charges read in
  non local Contribution for L=           0  read in
    real space projection operators read in
  non local Contribution for L=           0  read in
    real space projection operators read in
  non local Contribution for L=           1  read in
    real space projection operators read in
  non local Contribution for L=           1  read in
    real space projection operators read in
    PAW grid and wavefunctions read in
 
   number of l-projection  operators is LMAX  =           4
   number of lm-projection operators is LMMAX =           8
 
 Optimization of the real space projectors (new method)

 maximal supplied QI-value         = 13.42
 optimisation between [QCUT,QGAM] = [ 11.40, 22.81] = [ 36.42,145.68] Ry 
 Optimized for a Real-space Cutoff    1.56 Angstroem

   l    n(q)    QCUT    max X(q) W(low)/X(q) W(high)/X(q)  e(spline) 
   0     11    11.404     7.198    0.14E-04    0.26E-04    0.99E-07
   0     11    11.404    15.603    0.29E-04    0.72E-04    0.44E-06
   1     10    11.404     3.746    0.20E-04    0.24E-04    0.43E-07
   1     10    11.404     4.362    0.22E-03    0.97E-04    0.22E-06
   2     10    11.404     5.782    0.83E-04    0.62E-05    0.27E-06
   2     10    11.404    65.505    0.42E-03    0.31E-04    0.12E-05
 Optimization of the real space projectors (new method)

 maximal supplied QI-value         = 19.84
 optimisation between [QCUT,QGAM] = [ 11.31, 22.82] = [ 35.82,145.81] Ry 
 Optimized for a Real-space Cutoff    1.16 Angstroem

   l    n(q)    QCUT    max X(q) W(low)/X(q) W(high)/X(q)  e(spline) 
   0      8    11.310     8.708    0.14E-04    0.11E-04    0.43E-08
   0      8    11.310   106.241    0.27E-03    0.30E-03    0.38E-07
   1      7    11.310     5.901    0.82E-05    0.48E-04    0.19E-07
   1      7    11.310    73.241    0.27E-03    0.27E-03    0.74E-07
 PAW_PBE Ba_sv 06Sep2000                :
 energy of atom  1       EATOM= -700.2255
 kinetic energy error for atom=    0.0005 (will be added to EATOM!!)
 PAW_PBE Si 05Jan2001                   :
 energy of atom  2       EATOM= -103.0669
 kinetic energy error for atom=    0.0006 (will be added to EATOM!!)
 
 
 POSCAR: ba8 si16                                
  positions in direct lattice
  velocities in cartesian coordinates
 exchange correlation table for  LEXCH =        8
   RHO(1)=    0.500       N(1)  =     2000
   RHO(2)=  100.500       N(2)  =     4000
 


--------------------------------------------------------------------------------------------------------


 ion  position               nearest neighbor table
   1  0.006  0.250  0.706-  21 3.41  16 3.45  11 3.45  17 3.66  17 3.66   5 4.39   5 4.39   7 4.62

   2  0.374  0.750  0.294-  22 3.41  12 3.45  15 3.45  18 3.66  18 3.66   6 4.39   6 4.39   8 4.62

   3  0.182  0.750  0.187-  20 3.30  22 3.44   9 3.45  14 3.45  12 3.45  15 3.45  19 3.64  19 3.64
                            23 3.75   5 4.28   7 4.38   7 4.38
   4  0.197  0.250  0.813-  19 3.30  21 3.44  13 3.45  10 3.45  16 3.45  11 3.45  20 3.64  20 3.64
                            24 3.75   6 4.28   8 4.38   8 4.38
   5  0.060  0.750  0.918-   9 3.44  14 3.44  21 3.45  21 3.45  11 3.50  16 3.50  17 3.76  20 3.92
                             3 4.28   1 4.39   1 4.39
   6  0.320  0.250  0.082-  13 3.44  10 3.44  22 3.45  22 3.45  15 3.50  12 3.50  18 3.76  19 3.92
                             4 4.28   2 4.39   2 4.39
   7  0.128  0.250  0.398-  14 3.43   9 3.43  23 3.53  23 3.53  15 3.56  12 3.56  24 3.62  19 3.70
                            16 3.74  11 3.74   3 4.38   3 4.38   1 4.62
   8  0.252  0.750  0.602-  10 3.43  13 3.43  24 3.53  24 3.53  11 3.56  16 3.56  23 3.62  20 3.70
                            12 3.74  15 3.74   4 4.38   4 4.38   2 4.62
   9  0.073  0.073  0.145-  14 2.40  21 2.43  19 2.44   7 3.43   5 3.44   3 3.45
  10  0.307  0.927  0.855-  13 2.40  22 2.43  20 2.44   8 3.43   6 3.44   4 3.45
  11  0.115  0.928  0.659-  16 2.41  23 2.43  17 2.44   4 3.45   1 3.45   5 3.50   8 3.56   7 3.74

  12  0.265  0.072  0.341-  15 2.41  24 2.43  18 2.44   3 3.45   2 3.45   6 3.50   7 3.56   8 3.74

  13  0.307  0.573  0.855-  10 2.40  22 2.43  20 2.44   8 3.43   6 3.44   4 3.45
  14  0.073  0.427  0.145-   9 2.40  21 2.43  19 2.44   7 3.43   5 3.44   3 3.45
  15  0.265  0.428  0.341-  12 2.41  24 2.43  18 2.44   3 3.45   2 3.45   6 3.50   7 3.56   8 3.74

  16  0.115  0.572  0.659-  11 2.41  23 2.43  17 2.44   4 3.45   1 3.45   5 3.50   8 3.56   7 3.74

  17  0.031  0.750  0.600-  23 2.44  11 2.44  16 2.44   1 3.66   1 3.66   5 3.76
  18  0.348  0.250  0.400-  24 2.44  15 2.44  12 2.44   2 3.66   2 3.66   6 3.76
  19  0.157  0.250  0.085-  21 2.43  14 2.44   9 2.44   4 3.30   3 3.64   3 3.64   7 3.70   6 3.92

  20  0.223  0.750  0.915-  22 2.43  10 2.44  13 2.44   3 3.30   4 3.64   4 3.64   8 3.70   5 3.92

  21  0.074  0.250  0.964-  14 2.43   9 2.43  19 2.43   1 3.41   4 3.44   5 3.45   5 3.45
  22  0.305  0.750  0.036-  10 2.43  13 2.43  20 2.43   2 3.41   3 3.44   6 3.45   6 3.45
  23  0.113  0.750  0.477-  11 2.43  16 2.43  17 2.44   7 3.53   7 3.53   8 3.62   3 3.75
  24  0.266  0.250  0.523-  15 2.43  12 2.43  18 2.44   8 3.53   8 3.53   7 3.62   4 3.75
 
  LATTYP: Found a simple orthorhombic cell.
 ALAT       =     6.7778496742
 B/A-ratio  =     1.7117734747
 C/A-ratio  =     3.5423429602
  
  Lattice vectors:
  
 A1 = (   0.0000000000,   6.7778496742,   0.0000000000)
 A2 = (   0.0000000000,   0.0000000000, -11.6021432877)
 A3 = ( -24.0094680786,   0.0000000000,   0.0000000000)


Analysis of symmetry for initial positions (statically):
=====================================================================
 Subroutine PRICEL returns:
 Original cell was already a primitive cell.
 

 Routine SETGRP: Setting up the symmetry group for a 
 simple orthorhombic supercell.


 Subroutine GETGRP returns: Found  4 space group operations
 (whereof  1 operations were pure point group operations)
 out of a pool of  8 trial point group operations.


The static configuration has the point symmetry C_1 .
 The point group associated with its full space group is C_2h.


Analysis of symmetry for dynamics (positions and initial velocities):
=====================================================================
 Subroutine PRICEL returns:
 Original cell was already a primitive cell.
 

 Routine SETGRP: Setting up the symmetry group for a 
 simple orthorhombic supercell.


 Subroutine GETGRP returns: Found  4 space group operations
 (whereof  1 operations were pure point group operations)
 out of a pool of  8 trial point group operations.


The dynamic configuration has the point symmetry C_1 .
 The point group associated with its full space group is C_2h.


Analysis of constrained symmetry for selective dynamics:
=====================================================================
 Subroutine PRICEL returns:
 Original cell was already a primitive cell.
 

 Routine SETGRP: Setting up the symmetry group for a 
 simple orthorhombic supercell.


 Subroutine GETGRP returns: Found  4 space group operations
 (whereof  1 operations were pure point group operations)
 out of a pool of  8 trial point group operations.


The constrained configuration has the point symmetry C_1 .
 The point group associated with its full space group is C_2h.


 Subroutine INISYM returns: Found  4 space group operations
 (whereof  1 operations are pure point group operations),
 and found     1 'primitive' translations

 
 
 KPOINTS: k-density: 8.0                          

Automatic generation of k-mesh.
Space group operators:
 irot       det(A)        alpha          n_x          n_y          n_z        tau_x        tau_y        tau_z
    1     1.000000     0.000000     1.000000     0.000000     0.000000     0.000000     0.000000     0.000000
    2    -1.000000     0.000000     1.000000     0.000000     0.000000    -0.620589     0.000000     0.000000
    3     1.000000   180.000000     0.000000     1.000000     0.000000    -0.620589     0.500000     0.000000
    4    -1.000000   180.000000     0.000000     1.000000     0.000000     0.000000     0.500000     0.000000
 
 Subroutine IBZKPT returns following result:
 ===========================================
 
 Found     15 irreducible k-points:
 
 Following reciprocal coordinates:
            Coordinates               Weight
  0.000000  0.000000  0.000000      1.000000
  0.000000  0.125000  0.000000      2.000000
  0.000000  0.250000  0.000000      2.000000
  0.000000  0.375000  0.000000      2.000000
  0.000000  0.500000  0.000000      1.000000
  0.000000  0.000000  0.200000      2.000000
  0.000000  0.125000  0.200000      4.000000
  0.000000  0.250000  0.200000      4.000000
  0.000000  0.375000  0.200000      4.000000
  0.000000  0.500000  0.200000      2.000000
  0.000000  0.000000  0.400000      2.000000
  0.000000  0.125000  0.400000      4.000000
  0.000000  0.250000  0.400000      4.000000
  0.000000  0.375000  0.400000      4.000000
  0.000000  0.500000  0.400000      2.000000
 
 Following cartesian coordinates:
            Coordinates               Weight
  0.000000  0.000000  0.000000      1.000000
  0.000000  0.018442  0.000000      2.000000
  0.000000  0.036885  0.000000      2.000000
  0.000000  0.055327  0.000000      2.000000
  0.000000  0.073770  0.000000      1.000000
  0.000000  0.000000  0.017238      2.000000
  0.000000  0.018442  0.017238      4.000000
  0.000000  0.036885  0.017238      4.000000
  0.000000  0.055327  0.017238      4.000000
  0.000000  0.073770  0.017238      2.000000
  0.000000  0.000000  0.034476      2.000000
  0.000000  0.018442  0.034476      4.000000
  0.000000  0.036885  0.034476      4.000000
  0.000000  0.055327  0.034476      4.000000
  0.000000  0.073770  0.034476      2.000000
 
 TETIRR: Found    108 inequivalent tetrahedra from      240


--------------------------------------------------------------------------------------------------------




 Dimension of arrays:
   k-points           NKPTS =     15   k-points in BZ     NKDIM =     15   number of bands    NBANDS=     88
   number of dos      NEDOS =    301   number of ions     NIONS =     24
   non local maximal  LDIM  =      6   non local SUM 2l+1 LMDIM =     18
   total plane-waves  NPLWV = 358400
   max r-space proj   IRMAX =   3093   max aug-charges    IRDMAX=  12081
   dimension x,y,z NGX =   140 NGY =   40 NGZ =   64
   dimension x,y,z NGXF=   280 NGYF=   80 NGZF=  128
   support grid    NGXF=   280 NGYF=   80 NGZF=  128
   ions per type =               8  16
   NGX,Y,Z   is equivalent  to a cutoff of   9.69,  9.81,  9.17 a.u.
   NGXF,Y,Z  is equivalent  to a cutoff of  19.39, 19.62, 18.34 a.u.

 SYSTEM =  unknown system                          
 POSCAR =  ba8 si16                                

 Startparameter for this run:
   NWRITE =      2    write-flag & timer
   PREC   = normal    normal or accurate (medium, high low for compatibility)
   ISTART =      0    job   : 0-new  1-cont  2-samecut
   ICHARG =      2    charge: 1-file 2-atom 10-const
   ISPIN  =      1    spin polarized calculation?
   LNONCOLLINEAR =      F non collinear calculations
   LSORBIT =      F    spin-orbit coupling
   INIWAV =      1    electr: 0-lowe 1-rand  2-diag
   LASPH  =      F    aspherical Exc in radial PAW
   METAGGA=      F    non-selfconsistent MetaGGA calc.

 Electronic Relaxation 1
   ENCUT  =  500.0 eV  36.75 Ry    6.06 a.u.  43.77 12.36 21.15*2*pi/ulx,y,z
   ENINI  =  500.0     initial cutoff
   ENAUG  =  351.2 eV  augmentation charge cutoff
   NELM   =    100;   NELMIN=  2; NELMDL= -5     # of ELM steps 
   EDIFF  = 0.1E-05   stopping-criterion for ELM
   LREAL  =      T    real-space projection
   NLSPLINE    = F    spline interpolate recip. space projectors
   LCOMPAT=      F    compatible to vasp.4.4
   GGA_COMPAT  = T    GGA compatible to vasp.4.4-vasp.4.6
   LMAXPAW     = -100 max onsite density
   LMAXMIX     =    2 max onsite mixed and CHGCAR
   VOSKOWN=      0    Vosko Wilk Nusair interpolation
   ROPT   =   -0.00050  -0.00050
 Ionic relaxation
   EDIFFG = -.1E-02   stopping-criterion for IOM
   NSW    =      0    number of steps for IOM
   NBLOCK =      1;   KBLOCK =      1    inner block; outer block 
   IBRION =     -1    ionic relax: 0-MD 1-quasi-New 2-CG
   NFREE  =      0    steps in history (QN), initial steepest desc. (CG)
   ISIF   =      2    stress and relaxation
   IWAVPR =     10    prediction:  0-non 1-charg 2-wave 3-comb
   ISYM   =      2    0-nonsym 1-usesym 2-fastsym
   LCORR  =      T    Harris-Foulkes like correction to forces

   POTIM  = 0.3000    time-step for ionic-motion
   TEIN   =    0.0    initial temperature
   TEBEG  =    0.0;   TEEND  =   0.0 temperature during run
   SMASS  =  -3.00    Nose mass-parameter (am)
   estimated Nose-frequenzy (Omega)   =  0.10E-29 period in steps =****** mass=  -0.132E-25a.u.
   SCALEE = 1.0000    scale energy and forces
   NPACO  =    256;   APACO  = 16.0  distance and # of slots for P.C.
   PSTRESS=    0.0 pullay stress

  Mass of Ions in am
   POMASS = 137.33 28.09
  Ionic Valenz
   ZVAL   =  10.00  4.00
  Atomic Wigner-Seitz radii
   RWIGS  =  -1.00 -1.00
  virtual crystal weights 
   VCA    =   1.00  1.00
   NELECT =     144.0000    total number of electrons
   NUPDOWN=      -1.0000    fix difference up-down

 DOS related values:
   EMIN   =  10.00;   EMAX   =-10.00  energy-range for DOS
   EFERMI =   0.00
   ISMEAR =    -5;   SIGMA  =   0.01  broadening in eV -4-tet -1-fermi 0-gaus

 Electronic relaxation 2 (details)
   IALGO  =     38    algorithm
   LDIAG  =      T    sub-space diagonalisation (order eigenvalues)
   LSUBROT=      F    optimize rotation matrix (better conditioning)
   TURBO    =      0    0=normal 1=particle mesh
   IRESTART =      0    0=no restart 2=restart with 2 vectors
   NREBOOT  =      0    no. of reboots
   NMIN     =      0    reboot dimension
   EREF     =   0.00    reference energy to select bands
   IMIX   =      4    mixing-type and parameters
     AMIX     =   0.40;   BMIX     =  1.00
     AMIX_MAG =   1.60;   BMIX_MAG =  1.00
     AMIN     =   0.10
     WC   =   100.;   INIMIX=   1;  MIXPRE=   1;  MAXMIX= -45

 Intra band minimization:
   WEIMIN = 0.0000     energy-eigenvalue tresh-hold
   EBREAK =  0.28E-08  absolut break condition
   DEPER  =   0.30     relativ break condition  

   TIME   =   0.40     timestep for ELM

  volume/ion in A,a.u.               =      78.67       530.88
  Fermi-wavevector in a.u.,A,eV,Ry     =   0.694264  1.311969  6.558046  0.482003
  Thomas-Fermi vector in A             =   1.776709
 
 Write flags
   LWAVE        =      T    write WAVECAR
   LDOWNSAMPLE  =      F    k-point downsampling of WAVECAR
   LCHARG       =      T    write CHGCAR
   LVTOT        =      F    write LOCPOT, total local potential
   LVHAR        =      F    write LOCPOT, Hartree potential only
   LELF         =      F    write electronic localiz. function (ELF)
   LORBIT       =      0    0 simple, 1 ext, 2 COOP (PROOUT), +10 PAW based schemes


 Dipole corrections
   LMONO  =      F    monopole corrections only (constant potential shift)
   LDIPOL =      F    correct potential (dipole corrections)
   IDIPOL =      0    1-x, 2-y, 3-z, 4-all directions 
   EPSILON=  1.0000000 bulk dielectric constant

 Exchange correlation treatment:
   GGA     =    --    GGA type
   LEXCH   =     8    internal setting for exchange type
   VOSKOWN=      0    Vosko Wilk Nusair interpolation
   LHFCALC =     F    Hartree Fock is set to
   LHFONE  =     F    Hartree Fock one center treatment
   AEXX    =    0.0000 exact exchange contribution

 Linear response parameters
   LEPSILON=     F    determine dielectric tensor
   LRPA    =     F    only Hartree local field effects (RPA)
   LNABLA  =     F    use nabla operator in PAW spheres
   LVEL    =     F    velocity operator in full k-point grid
   LINTERFAST=   F  fast interpolation
   KINTER  =     0    interpolate to denser k-point grid
   CSHIFT  =0.1000    complex shift for real part using Kramers Kronig
   OMEGAMAX=  -1.0    maximum frequency
   DEG_THRESHOLD= 0.2000000E-02 threshold for treating states as degnerate
   RTIME   =   -0.100 relaxation time in fs
  (WPLASMAI=    0.000 imaginary part of plasma frequency in eV, 0.658/RTIME)
   DFIELD  = 0.0000000 0.0000000 0.0000000 field for delta impulse in time
 
 Orbital magnetization related:
   ORBITALMAG=     F  switch on orbital magnetization
   LCHIMAG   =     F  perturbation theory with respect to B field
   DQ        =  0.001000  dq finite difference perturbation B field
   LLRAUG    =     F  two centre corrections for induced B field



--------------------------------------------------------------------------------------------------------


 Static calculation
 charge density and potential will be updated during run
 non-spin polarized calculation
 Variant of blocked Davidson
 Davidson routine will perform the subspace rotation
 perform sub-space diagonalisation
    after iterative eigenvector-optimisation
 modified Broyden-mixing scheme, WC =      100.0
 initial mixing is a Kerker type mixing with AMIX =  0.4000 and BMIX =      1.0000
 Hartree-type preconditioning will be used
 using additional bands           16
 real space projection scheme for non local part
 use partial core corrections
 calculate Harris-corrections to forces 
   (improved forces if not selfconsistent)
 use gradient corrections 
 use of overlap-Matrix (Vanderbilt PP)
 Fermi weights with tetrahedron method with Bloechl corrections


--------------------------------------------------------------------------------------------------------


  energy-cutoff  :      500.00
  volume of cell :     1888.05
      direct lattice vectors                 reciprocal lattice vectors
    24.009468079  0.000000000  0.000000000     0.041650236  0.000000000  0.000000000
     0.000000000  6.777849674  0.000000000     0.000000000  0.147539419  0.000000000
     0.000000000  0.000000000 11.602143288     0.000000000  0.000000000  0.086190971

  length of vectors
    24.009468079  6.777849674 11.602143288     0.041650236  0.147539419  0.086190971


 
 k-points in units of 2pi/SCALE and weight: k-density: 8.0                          
   0.00000000  0.00000000  0.00000000       0.025
   0.00000000  0.01844243  0.00000000       0.050
   0.00000000  0.03688485  0.00000000       0.050
   0.00000000  0.05532728  0.00000000       0.050
   0.00000000  0.07376971  0.00000000       0.025
   0.00000000  0.00000000  0.01723819       0.050
   0.00000000  0.01844243  0.01723819       0.100
   0.00000000  0.03688485  0.01723819       0.100
   0.00000000  0.05532728  0.01723819       0.100
   0.00000000  0.07376971  0.01723819       0.050
   0.00000000  0.00000000  0.03447639       0.050
   0.00000000  0.01844243  0.03447639       0.100
   0.00000000  0.03688485  0.03447639       0.100
   0.00000000  0.05532728  0.03447639       0.100
   0.00000000  0.07376971  0.03447639       0.050
 
 k-points in reciprocal lattice and weights: k-density: 8.0                          
   0.00000000  0.00000000  0.00000000       0.025
   0.00000000  0.12500000  0.00000000       0.050
   0.00000000  0.25000000  0.00000000       0.050
   0.00000000  0.37500000  0.00000000       0.050
   0.00000000  0.50000000  0.00000000       0.025
   0.00000000  0.00000000  0.20000000       0.050
   0.00000000  0.12500000  0.20000000       0.100
   0.00000000  0.25000000  0.20000000       0.100
   0.00000000  0.37500000  0.20000000       0.100
   0.00000000  0.50000000  0.20000000       0.050
   0.00000000  0.00000000  0.40000000       0.050
   0.00000000  0.12500000  0.40000000       0.100
   0.00000000  0.25000000  0.40000000       0.100
   0.00000000  0.37500000  0.40000000       0.100
   0.00000000  0.50000000  0.40000000       0.050
 
 position of ions in fractional coordinates (direct lattice) 
   0.00569361  0.25000000  0.70619593
   0.37371788  0.75000002  0.29380407
   0.18192962  0.75000002  0.18670828
   0.19748187  0.25000000  0.81329170
   0.05978014  0.75000002  0.91841424
   0.31963135  0.25000000  0.08158574
   0.12784309  0.25000000  0.39813596
   0.25156840  0.75000002  0.60186408
   0.07289913  0.07278453  0.14538410
   0.30651236  0.92721546  0.85461588
   0.11472410  0.92800686  0.65902013
   0.26468739  0.07199313  0.34097987
   0.30651236  0.57278454  0.85461588
   0.07289913  0.42721546  0.14538410
   0.26468739  0.42800686  0.34097987
   0.11472410  0.57199314  0.65902013
   0.03110981  0.75000002  0.59990816
   0.34830168  0.25000000  0.40009184
   0.15651343  0.25000000  0.08515868
   0.22289807  0.75000002  0.91484130
   0.07418398  0.25000000  0.96357058
   0.30522751  0.75000002  0.03642943
   0.11343925  0.75000002  0.47712157
   0.26597224  0.25000000  0.52287835
 
 position of ions in cartesian coordinates  (Angst):
   0.13670066  1.69446242  8.19338642
   8.97276745  5.08338737  3.40875687
   4.36803341  5.08338737  2.16621617
   4.74143467  1.69446242  9.43592688
   1.43528938  5.08338737 10.65557357
   7.67417870  1.69446242  0.94656948
   3.06944466  1.69446242  4.61923041
   6.04002342  5.08338737  6.98291335
   1.75026941  0.49332263  1.68676720
   7.35919867  6.28452698  9.91537585
   2.75446463  6.28989101  7.64604603
   6.35500345  0.48795861  3.95609726
   7.35919867  3.88224753  9.91537585
   1.75026941  2.89560215  1.68676720
   6.35500345  2.90096617  3.95609726
   2.75446463  3.87688351  7.64604603
   0.74692994  5.08338737  6.96022046
   8.36253796  1.69446242  4.64192283
   3.75780416  1.69446242  0.98802325
   5.35166416  5.08338737 10.61411979
   1.78111780  1.69446242 11.17948397
   7.32835016  5.08338737  0.42265949
   2.72361612  5.08338737  5.53563285
   6.38585195  1.69446242  6.06650948
 


--------------------------------------------------------------------------------------------------------


 k-point  1 :   0.0000 0.0000 0.0000  plane waves:   47989
 k-point  2 :   0.0000 0.1250 0.0000  plane waves:   47929
 k-point  3 :   0.0000 0.2500 0.0000  plane waves:   47901
 k-point  4 :   0.0000 0.3750 0.0000  plane waves:   47910
 k-point  5 :   0.0000 0.5000 0.0000  plane waves:   47868
 k-point  6 :   0.0000 0.0000 0.2000  plane waves:   48006
 k-point  7 :   0.0000 0.1250 0.2000  plane waves:   47967
 k-point  8 :   0.0000 0.2500 0.2000  plane waves:   47907
 k-point  9 :   0.0000 0.3750 0.2000  plane waves:   47884
 k-point 10 :   0.0000 0.5000 0.2000  plane waves:   47884
 k-point 11 :   0.0000 0.0000 0.4000  plane waves:   47922
 k-point 12 :   0.0000 0.1250 0.4000  plane waves:   47954
 k-point 13 :   0.0000 0.2500 0.4000  plane waves:   47967
 k-point 14 :   0.0000 0.3750 0.4000  plane waves:   47928
 k-point 15 :   0.0000 0.5000 0.4000  plane waves:   47890

 maximum and minimum number of plane-waves per node :     12077    11868

 maximum number of plane-waves:     48006
 maximum index in each direction: 
   IXMAX=   43   IYMAX=   12   IZMAX=   21
   IXMIN=  -43   IYMIN=  -12   IZMIN=  -21


 real space projection operators:
  total allocation   :       4532.06 KBytes
  max/ min on nodes  :       1135.61       1130.50


 parallel 3D FFT for wavefunctions:
    minimum data exchange during FFTs selected (reduces bandwidth)
 parallel 3D FFT for charge:
    minimum data exchange during FFTs selected (reduces bandwidth)


 total amount of memory used by VASP MPI-rank0    79346. kBytes
=======================================================================

   base      :      30000. kBytes
   nonlr-proj:       2640. kBytes
   fftplans  :       5898. kBytes
   grid      :       8824. kBytes
   one-center:         93. kBytes
   wavefun   :      31891. kBytes
 
     INWAV:  cpu time    0.0001: real time    0.0000
 Broyden mixing: mesh for mixing (old mesh)
   NGX = 87   NGY = 25   NGZ = 43
  (NGX  =280   NGY  = 80   NGZ  =128)
  gives a total of  93525 points

 initial charge density was supplied:
 charge density of overlapping atoms calculated
 number of electron     144.0000000 magnetization 
 keeping initial charge density in first step


--------------------------------------------------------------------------------------------------------


 Maximum index for non-local projection operator          749
 Maximum index for augmentation-charges          598 (set IRDMAX)


--------------------------------------------------------------------------------------------------------


 First call to EWALD:  gamma=   0.143
 Maximum number of real-space cells 2x 5x 3
 Maximum number of reciprocal cells 5x 2x 3

    FEWALD:  cpu time    0.0058: real time    0.0058


--------------------------------------- Iteration      1(   1)  ---------------------------------------


    POTLOK:  cpu time    0.0658: real time    0.1024
    SETDIJ:  cpu time    0.0024: real time    0.0027
     EDDAV:  cpu time    2.7226: real time    2.7370
 BZINTS: Fermi energy:  7.083060;144.000000 electrons
         Band energy:-463.201319;  BLOECHL correction: -0.026262
       DOS:  cpu time    0.0120: real time    0.0121
    --------------------------------------------
      LOOP:  cpu time    2.8029: real time    2.8542

 eigenvalue-minimisations  :  2768
 total energy-change (2. order) : 0.1193076E+04  (-0.4787434E+04)
 number of electron     144.0000000 magnetization 
 augmentation part      144.0000000 magnetization 

 Free energy of the ion-electron system (eV)
  ---------------------------------------------------
  alpha Z        PSCENC =       170.45750602
  Ewald energy   TEWEN  =     12322.73363761
  -Hartree energ DENC   =    -18432.26450767
  -exchange      EXHF   =         0.00000000
  -V(xc)+E(xc)   XCENC  =        42.83133337
  PAW double counting   =      3692.15173346    -3390.49189382
  entropy T*S    EENTRO =         0.00000000
  eigenvalues    EBANDS =      -463.20131872
  atomic energy  EATOM  =      7250.85976021
  Solvation  Ediel_sol  =         0.00000000
  ---------------------------------------------------
  free energy    TOTEN  =      1193.07625046 eV

  energy without entropy =     1193.07625046  energy(sigma->0) =     1193.07625046


--------------------------------------------------------------------------------------------------------




--------------------------------------- Iteration      1(   2)  ---------------------------------------


     EDDAV:  cpu time    3.3158: real time    3.3344
 BZINTS: Fermi energy: -1.975731;144.000000 electrons
         Band energy:***********;  BLOECHL correction:  0.000000
       DOS:  cpu time    0.0024: real time    0.0024
    --------------------------------------------
      LOOP:  cpu time    3.3181: real time    3.3368

 eigenvalue-minimisations  :  3784
 total energy-change (2. order) :-0.1130305E+04  (-0.1100183E+04)
 number of electron     144.0000000 magnetization 
 augmentation part      144.0000000 magnetization 

 Free energy of the ion-electron system (eV)
  ---------------------------------------------------
  alpha Z        PSCENC =       170.45750602
  Ewald energy   TEWEN  =     12322.73363761
  -Hartree energ DENC   =    -18432.26450767
  -exchange      EXHF   =         0.00000000
  -V(xc)+E(xc)   XCENC  =        42.83133337
  PAW double counting   =      3692.15173346    -3390.49189382
  entropy T*S    EENTRO =         0.00000000
  eigenvalues    EBANDS =     -1593.50605942
  atomic energy  EATOM  =      7250.85976021
  Solvation  Ediel_sol  =         0.00000000
  ---------------------------------------------------
  free energy    TOTEN  =        62.77150976 eV

  energy without entropy =       62.77150976  energy(sigma->0) =       62.77150976


--------------------------------------------------------------------------------------------------------




--------------------------------------- Iteration      1(   3)  ---------------------------------------


     EDDAV:  cpu time    3.0957: real time    3.1144
 BZINTS: Fermi energy: -3.336185;144.000000 electrons
         Band energy:***********;  BLOECHL correction:  0.000000
       DOS:  cpu time    0.0023: real time    0.0023
    --------------------------------------------
      LOOP:  cpu time    3.0980: real time    3.1167

 eigenvalue-minimisations  :  3224
 total energy-change (2. order) :-0.1717860E+03  (-0.1710675E+03)
 number of electron     144.0000000 magnetization 
 augmentation part      144.0000000 magnetization 

 Free energy of the ion-electron system (eV)
  ---------------------------------------------------
  alpha Z        PSCENC =       170.45750602
  Ewald energy   TEWEN  =     12322.73363761
  -Hartree energ DENC   =    -18432.26450767
  -exchange      EXHF   =         0.00000000
  -V(xc)+E(xc)   XCENC  =        42.83133337
  PAW double counting   =      3692.15173346    -3390.49189382
  entropy T*S    EENTRO =         0.00000000
  eigenvalues    EBANDS =     -1765.29206205
  atomic energy  EATOM  =      7250.85976021
  Solvation  Ediel_sol  =         0.00000000
  ---------------------------------------------------
  free energy    TOTEN  =      -109.01449288 eV

  energy without entropy =     -109.01449288  energy(sigma->0) =     -109.01449288


--------------------------------------------------------------------------------------------------------




--------------------------------------- Iteration      1(   4)  ---------------------------------------


     EDDAV:  cpu time    3.4469: real time    3.4668
 BZINTS: Fermi energy: -3.374634;144.000000 electrons
         Band energy:***********;  BLOECHL correction:  0.000000
       DOS:  cpu time    0.0024: real time    0.0024
    --------------------------------------------
      LOOP:  cpu time    3.4493: real time    3.4692

 eigenvalue-minimisations  :  3752
 total energy-change (2. order) :-0.6047273E+01  (-0.6030804E+01)
 number of electron     144.0000000 magnetization 
 augmentation part      144.0000000 magnetization 

 Free energy of the ion-electron system (eV)
  ---------------------------------------------------
  alpha Z        PSCENC =       170.45750602
  Ewald energy   TEWEN  =     12322.73363761
  -Hartree energ DENC   =    -18432.26450767
  -exchange      EXHF   =         0.00000000
  -V(xc)+E(xc)   XCENC  =        42.83133337
  PAW double counting   =      3692.15173346    -3390.49189382
  entropy T*S    EENTRO =         0.00000000
  eigenvalues    EBANDS =     -1771.33933518
  atomic energy  EATOM  =      7250.85976021
  Solvation  Ediel_sol  =         0.00000000
  ---------------------------------------------------
  free energy    TOTEN  =      -115.06176601 eV

  energy without entropy =     -115.06176601  energy(sigma->0) =     -115.06176601


--------------------------------------------------------------------------------------------------------




--------------------------------------- Iteration      1(   5)  ---------------------------------------


     EDDAV:  cpu time    3.6350: real time    3.6545
 BZINTS: Fermi energy: -3.434148;144.000000 electrons
         Band energy:***********;  BLOECHL correction:  0.000000
       DOS:  cpu time    0.0020: real time    0.0020
    CHARGE:  cpu time    0.1564: real time    0.1568
    MIXING:  cpu time    0.0053: real time    0.0055
    --------------------------------------------
      LOOP:  cpu time    3.7987: real time    3.8188

 eigenvalue-minimisations  :  4184
 total energy-change (2. order) :-0.2834988E+00  (-0.2834122E+00)
 number of electron     144.0000005 magnetization 
 augmentation part      -17.5631498 magnetization 

 Broyden mixing:
  rms(total) = 0.90877E+00    rms(broyden)= 0.90876E+00
  rms(prec ) = 0.11943E+01
  weight for this iteration     100.00

 Free energy of the ion-electron system (eV)
  ---------------------------------------------------
  alpha Z        PSCENC =       170.45750602
  Ewald energy   TEWEN  =     12322.73363761
  -Hartree energ DENC   =    -18432.26450767
  -exchange      EXHF   =         0.00000000
  -V(xc)+E(xc)   XCENC  =        42.83133337
  PAW double counting   =      3692.15173346    -3390.49189382
  entropy T*S    EENTRO =         0.00000000
  eigenvalues    EBANDS =     -1771.62283394
  atomic energy  EATOM  =      7250.85976021
  Solvation  Ediel_sol  =         0.00000000
  ---------------------------------------------------
  free energy    TOTEN  =      -115.34526476 eV

  energy without entropy =     -115.34526476  energy(sigma->0) =     -115.34526476


--------------------------------------------------------------------------------------------------------




--------------------------------------- Iteration      1(   6)  ---------------------------------------


    POTLOK:  cpu time    0.0599: real time    0.0708
    SETDIJ:  cpu time    0.0016: real time    0.0016
     EDDAV:  cpu time    2.8396: real time    2.8464
 BZINTS: Fermi energy: -2.256065;144.000000 electrons
         Band energy:***********;  BLOECHL correction:  0.000000
       DOS:  cpu time    0.0021: real time    0.0021
    CHARGE:  cpu time    0.1556: real time    0.1560
    MIXING:  cpu time    0.0060: real time    0.0061
    --------------------------------------------
      LOOP:  cpu time    3.0648: real time    3.0829

 eigenvalue-minimisations  :  2992
 total energy-change (2. order) : 0.8262529E+01  (-0.2033794E+01)
 number of electron     144.0000004 magnetization 
 augmentation part      -17.4591665 magnetization 

 Broyden mixing:
  rms(total) = 0.46287E+00    rms(broyden)= 0.46287E+00
  rms(prec ) = 0.58640E+00
  weight for this iteration     100.00

 eigenvalues of (default mixing * dielectric matrix)
  average eigenvalue GAMMA=   1.5359
  1.5359

 Free energy of the ion-electron system (eV)
  ---------------------------------------------------
  alpha Z        PSCENC =       170.45750602
  Ewald energy   TEWEN  =     12322.73363761
  -Hartree energ DENC   =    -18530.97950749
  -exchange      EXHF   =         0.00000000
  -V(xc)+E(xc)   XCENC  =        45.55531343
  PAW double counting   =      3730.89550405    -3436.39901661
  entropy T*S    EENTRO =         0.00000000
  eigenvalues    EBANDS =     -1660.20593329
  atomic energy  EATOM  =      7250.85976021
  Solvation  Ediel_sol  =         0.00000000
  ---------------------------------------------------
  free energy    TOTEN  =      -107.08273607 eV

  energy without entropy =     -107.08273607  energy(sigma->0) =     -107.08273607


--------------------------------------------------------------------------------------------------------




--------------------------------------- Iteration      1(   7)  ---------------------------------------


    POTLOK:  cpu time    0.0588: real time    0.0699
    SETDIJ:  cpu time    0.0018: real time    0.0018
     EDDAV:  cpu time    3.2087: real time    3.2163
 BZINTS: Fermi energy: -1.377335;144.000000 electrons
         Band energy:***********;  BLOECHL correction:  0.000000
       DOS:  cpu time    0.0024: real time    0.0024
    CHARGE:  cpu time    0.1516: real time    0.1520
    MIXING:  cpu time    0.0049: real time    0.0053
    --------------------------------------------
      LOOP:  cpu time    3.4282: real time    3.4477

 eigenvalue-minimisations  :  3480
 total energy-change (2. order) : 0.1368097E+01  (-0.9664361E+00)
 number of electron     144.0000004 magnetization 
 augmentation part      -17.5430785 magnetization 

 Broyden mixing:
  rms(total) = 0.24400E+00    rms(broyden)= 0.24400E+00
  rms(prec ) = 0.29623E+00
  weight for this iteration     100.00

 eigenvalues of (default mixing * dielectric matrix)
  average eigenvalue GAMMA=   1.8390
  1.8390  1.8390

 Free energy of the ion-electron system (eV)
  ---------------------------------------------------
  alpha Z        PSCENC =       170.45750602
  Ewald energy   TEWEN  =     12322.73363761
  -Hartree energ DENC   =    -18611.75493146
  -exchange      EXHF   =         0.00000000
  -V(xc)+E(xc)   XCENC  =        47.81725398
  PAW double counting   =      3779.34242305    -3490.68214366
  entropy T*S    EENTRO =         0.00000000
  eigenvalues    EBANDS =     -1574.48814468
  atomic energy  EATOM  =      7250.85976021
  Solvation  Ediel_sol  =         0.00000000
  ---------------------------------------------------
  free energy    TOTEN  =      -105.71463894 eV

  energy without entropy =     -105.71463894  energy(sigma->0) =     -105.71463894


--------------------------------------------------------------------------------------------------------




--------------------------------------- Iteration      1(   8)  ---------------------------------------


    POTLOK:  cpu time    0.0677: real time    0.0787
    SETDIJ:  cpu time    0.0017: real time    0.0017
     EDDAV:  cpu time    2.9488: real time    2.9558
 BZINTS: Fermi energy: -1.238913;144.000000 electrons
         Band energy:***********;  BLOECHL correction:  0.000000
       DOS:  cpu time    0.0021: real time    0.0021
    CHARGE:  cpu time    0.1544: real time    0.1547
    MIXING:  cpu time    0.0052: real time    0.0056
    --------------------------------------------
      LOOP:  cpu time    3.1798: real time    3.1986

 eigenvalue-minimisations  :  3112
 total energy-change (2. order) : 0.2341472E+00  (-0.3472662E+00)
 number of electron     144.0000004 magnetization 
 augmentation part      -17.6674270 magnetization 

 Broyden mixing:
  rms(total) = 0.11513E+00    rms(broyden)= 0.11513E+00
  rms(prec ) = 0.19060E+00
  weight for this iteration     100.00

 eigenvalues of (default mixing * dielectric matrix)
  average eigenvalue GAMMA=   1.6734
  2.6061  1.2070  1.2070

 Free energy of the ion-electron system (eV)
  ---------------------------------------------------
  alpha Z        PSCENC =       170.45750602
  Ewald energy   TEWEN  =     12322.73363761
  -Hartree energ DENC   =    -18648.96744526
  -exchange      EXHF   =         0.00000000
  -V(xc)+E(xc)   XCENC  =        48.77678996
  PAW double counting   =      3828.79664573    -3541.97294599
  entropy T*S    EENTRO =         0.00000000
  eigenvalues    EBANDS =     -1536.16443999
  atomic energy  EATOM  =      7250.85976021
  Solvation  Ediel_sol  =         0.00000000
  ---------------------------------------------------
  free energy    TOTEN  =      -105.48049173 eV

  energy without entropy =     -105.48049173  energy(sigma->0) =     -105.48049173


--------------------------------------------------------------------------------------------------------




--------------------------------------- Iteration      1(   9)  ---------------------------------------


    POTLOK:  cpu time    0.0556: real time    0.0671
    SETDIJ:  cpu time    0.0036: real time    0.0036
     EDDAV:  cpu time    2.8508: real time    2.8576
 BZINTS: Fermi energy: -0.822696;144.000000 electrons
         Band energy:***********;  BLOECHL correction:  0.000000
       DOS:  cpu time    0.0023: real time    0.0023
    CHARGE:  cpu time    0.1530: real time    0.1534
    MIXING:  cpu time    0.0053: real time    0.0054
    --------------------------------------------
      LOOP:  cpu time    3.0706: real time    3.0894

 eigenvalue-minimisations  :  3112
 total energy-change (2. order) : 0.2776438E+00  (-0.1203524E+00)
 number of electron     144.0000004 magnetization 
 augmentation part      -17.6447070 magnetization 

 Broyden mixing:
  rms(total) = 0.58011E-01    rms(broyden)= 0.58010E-01
  rms(prec ) = 0.82136E-01
  weight for this iteration     100.00

 eigenvalues of (default mixing * dielectric matrix)
  average eigenvalue GAMMA=   1.4116
  2.5257  1.2059  1.2059  0.7086

 Free energy of the ion-electron system (eV)
  ---------------------------------------------------
  alpha Z        PSCENC =       170.45750602
  Ewald energy   TEWEN  =     12322.73363761
  -Hartree energ DENC   =    -18691.83092894
  -exchange      EXHF   =         0.00000000
  -V(xc)+E(xc)   XCENC  =        49.71525557
  PAW double counting   =      3840.51594991    -3555.06345307
  entropy T*S    EENTRO =         0.00000000
  eigenvalues    EBANDS =     -1492.59057527
  atomic energy  EATOM  =      7250.85976021
  Solvation  Ediel_sol  =         0.00000000
  ---------------------------------------------------
  free energy    TOTEN  =      -105.20284797 eV

  energy without entropy =     -105.20284797  energy(sigma->0) =     -105.20284797


--------------------------------------------------------------------------------------------------------




--------------------------------------- Iteration      1(  10)  ---------------------------------------


    POTLOK:  cpu time    0.0588: real time    0.0704
    SETDIJ:  cpu time    0.0019: real time    0.0019
     EDDAV:  cpu time    3.2471: real time    3.2548
 BZINTS: Fermi energy: -0.745956;144.000000 electrons
         Band energy:***********;  BLOECHL correction:  0.000000
       DOS:  cpu time    0.0020: real time    0.0020
    CHARGE:  cpu time    0.1596: real time    0.1600
    MIXING:  cpu time    0.0049: real time    0.0050
    --------------------------------------------
      LOOP:  cpu time    3.4742: real time    3.4941

 eigenvalue-minimisations  :  3480
 total energy-change (2. order) :-0.1760142E-01  (-0.2301672E-01)
 number of electron     144.0000004 magnetization 
 augmentation part      -17.6675872 magnetization 

 Broyden mixing:
  rms(total) = 0.41768E-01    rms(broyden)= 0.41768E-01
  rms(prec ) = 0.63234E-01
  weight for this iteration     100.00

 eigenvalues of (default mixing * dielectric matrix)
  average eigenvalue GAMMA=   1.6046
  2.4949  2.4949  0.9719  0.9719  1.0895

 Free energy of the ion-electron system (eV)
  ---------------------------------------------------
  alpha Z        PSCENC =       170.45750602
  Ewald energy   TEWEN  =     12322.73363761
  -Hartree energ DENC   =    -18700.97266050
  -exchange      EXHF   =         0.00000000
  -V(xc)+E(xc)   XCENC  =        49.70147499
  PAW double counting   =      3835.49681599    -3549.66091355
  entropy T*S    EENTRO =         0.00000000
  eigenvalues    EBANDS =     -1483.83607017
  atomic energy  EATOM  =      7250.85976021
  Solvation  Ediel_sol  =         0.00000000
  ---------------------------------------------------
  free energy    TOTEN  =      -105.22044939 eV

  energy without entropy =     -105.22044939  energy(sigma->0) =     -105.22044939


--------------------------------------------------------------------------------------------------------




--------------------------------------- Iteration      1(  11)  ---------------------------------------


    POTLOK:  cpu time    0.0570: real time    0.0683
    SETDIJ:  cpu time    0.0023: real time    0.0023
     EDDAV:  cpu time    2.9595: real time    2.9665
 BZINTS: Fermi energy: -0.646965;144.000000 electrons
         Band energy:***********;  BLOECHL correction:  0.000000
       DOS:  cpu time    0.0023: real time    0.0023
    CHARGE:  cpu time    0.1583: real time    0.1587
    MIXING:  cpu time    0.0055: real time    0.0056
    --------------------------------------------
      LOOP:  cpu time    3.1849: real time    3.2037

 eigenvalue-minimisations  :  3104
 total energy-change (2. order) : 0.8945926E-02  (-0.6625353E-02)
 number of electron     144.0000004 magnetization 
 augmentation part      -17.6709788 magnetization 

 Broyden mixing:
  rms(total) = 0.16771E-01    rms(broyden)= 0.16771E-01
  rms(prec ) = 0.33364E-01
  weight for this iteration     100.00

 eigenvalues of (default mixing * dielectric matrix)
  average eigenvalue GAMMA=   1.6218
  2.8120  2.8120  1.2457  0.9093  0.9758  0.9758

 Free energy of the ion-electron system (eV)
  ---------------------------------------------------
  alpha Z        PSCENC =       170.45750602
  Ewald energy   TEWEN  =     12322.73363761
  -Hartree energ DENC   =    -18721.28373041
  -exchange      EXHF   =         0.00000000
  -V(xc)+E(xc)   XCENC  =        49.88612480
  PAW double counting   =      3836.24986497    -3550.09712136
  entropy T*S    EENTRO =         0.00000000
  eigenvalues    EBANDS =     -1464.01754531
  atomic energy  EATOM  =      7250.85976021
  Solvation  Ediel_sol  =         0.00000000
  ---------------------------------------------------
  free energy    TOTEN  =      -105.21150347 eV

  energy without entropy =     -105.21150347  energy(sigma->0) =     -105.21150347


--------------------------------------------------------------------------------------------------------




--------------------------------------- Iteration      1(  12)  ---------------------------------------


    POTLOK:  cpu time    0.0596: real time    0.0713
    SETDIJ:  cpu time    0.0016: real time    0.0016
     EDDAV:  cpu time    2.8183: real time    2.8250
 BZINTS: Fermi energy: -0.542531;144.000000 electrons
         Band energy:***********;  BLOECHL correction:  0.000000
       DOS:  cpu time    0.0020: real time    0.0020
    CHARGE:  cpu time    0.1490: real time    0.1493
    MIXING:  cpu time    0.0050: real time    0.0051
    --------------------------------------------
      LOOP:  cpu time    3.0355: real time    3.0543

 eigenvalue-minimisations  :  3072
 total energy-change (2. order) :-0.4729840E-02  (-0.1592727E-02)
 number of electron     144.0000004 magnetization 
 augmentation part      -17.6649144 magnetization 

 Broyden mixing:
  rms(total) = 0.12508E-01    rms(broyden)= 0.12508E-01
  rms(prec ) = 0.21590E-01
  weight for this iteration     100.00

 eigenvalues of (default mixing * dielectric matrix)
  average eigenvalue GAMMA=   1.7836
  3.8488  2.5659  2.0040  1.1269  1.1269  0.9063  0.9063

 Free energy of the ion-electron system (eV)
  ---------------------------------------------------
  alpha Z        PSCENC =       170.45750602
  Ewald energy   TEWEN  =     12322.73363761
  -Hartree energ DENC   =    -18734.42490731
  -exchange      EXHF   =         0.00000000
  -V(xc)+E(xc)   XCENC  =        49.96013155
  PAW double counting   =      3833.96956820    -3547.68692792
  entropy T*S    EENTRO =         0.00000000
  eigenvalues    EBANDS =     -1451.08500166
  atomic energy  EATOM  =      7250.85976021
  Solvation  Ediel_sol  =         0.00000000
  ---------------------------------------------------
  free energy    TOTEN  =      -105.21623331 eV

  energy without entropy =     -105.21623331  energy(sigma->0) =     -105.21623331


--------------------------------------------------------------------------------------------------------




--------------------------------------- Iteration      1(  13)  ---------------------------------------


    POTLOK:  cpu time    0.0574: real time    0.0683
    SETDIJ:  cpu time    0.0015: real time    0.0015
     EDDAV:  cpu time    2.9123: real time    2.9192
 BZINTS: Fermi energy: -0.479348;144.000000 electrons
         Band energy:***********;  BLOECHL correction:  0.000000
       DOS:  cpu time    0.0020: real time    0.0020
    CHARGE:  cpu time    0.1473: real time    0.1477
    MIXING:  cpu time    0.0063: real time    0.0064
    --------------------------------------------
      LOOP:  cpu time    3.1267: real time    3.1450

 eigenvalue-minimisations  :  3232
 total energy-change (2. order) :-0.1000629E-01  (-0.1025265E-02)
 number of electron     144.0000004 magnetization 
 augmentation part      -17.6669367 magnetization 

 Broyden mixing:
  rms(total) = 0.64566E-02    rms(broyden)= 0.64566E-02
  rms(prec ) = 0.10907E-01
  weight for this iteration     100.00

 eigenvalues of (default mixing * dielectric matrix)
  average eigenvalue GAMMA=   1.8316
  4.2145  2.9171  2.3871  1.2282  1.2282  0.8960  0.8910  0.8910

 Free energy of the ion-electron system (eV)
  ---------------------------------------------------
  alpha Z        PSCENC =       170.45750602
  Ewald energy   TEWEN  =     12322.73363761
  -Hartree energ DENC   =    -18745.58945093
  -exchange      EXHF   =         0.00000000
  -V(xc)+E(xc)   XCENC  =        50.01444646
  PAW double counting   =      3832.13794248    -3545.95857618
  entropy T*S    EENTRO =         0.00000000
  eigenvalues    EBANDS =     -1439.88150526
  atomic energy  EATOM  =      7250.85976021
  Solvation  Ediel_sol  =         0.00000000
  ---------------------------------------------------
  free energy    TOTEN  =      -105.22623960 eV

  energy without entropy =     -105.22623960  energy(sigma->0) =     -105.22623960


--------------------------------------------------------------------------------------------------------




--------------------------------------- Iteration      1(  14)  ---------------------------------------


    POTLOK:  cpu time    0.0652: real time    0.0763
    SETDIJ:  cpu time    0.0018: real time    0.0018
     EDDAV:  cpu time    2.9176: real time    2.9245
 BZINTS: Fermi energy: -0.462703;144.000000 electrons
         Band energy:***********;  BLOECHL correction:  0.000000
       DOS:  cpu time    0.0020: real time    0.0020
    CHARGE:  cpu time    0.1431: real time    0.1435
    MIXING:  cpu time    0.0074: real time    0.0075
    --------------------------------------------
      LOOP:  cpu time    3.1372: real time    3.1557

 eigenvalue-minimisations  :  3144
 total energy-change (2. order) :-0.5675593E-02  (-0.3053232E-03)
 number of electron     144.0000004 magnetization 
 augmentation part      -17.6675435 magnetization 

 Broyden mixing:
  rms(total) = 0.55151E-02    rms(broyden)= 0.55151E-02
  rms(prec ) = 0.88276E-02
  weight for this iteration     100.00

 eigenvalues of (default mixing * dielectric matrix)
  average eigenvalue GAMMA=   1.8769
  4.6423  3.1704  2.0681  1.7480  1.3969  0.9155  0.9155  1.0176  1.0176

 Free energy of the ion-electron system (eV)
  ---------------------------------------------------
  alpha Z        PSCENC =       170.45750602
  Ewald energy   TEWEN  =     12322.73363761
  -Hartree energ DENC   =    -18749.01976845
  -exchange      EXHF   =         0.00000000
  -V(xc)+E(xc)   XCENC  =        50.01429279
  PAW double counting   =      3831.25426053    -3545.08669895
  entropy T*S    EENTRO =         0.00000000
  eigenvalues    EBANDS =     -1436.44490495
  atomic energy  EATOM  =      7250.85976021
  Solvation  Ediel_sol  =         0.00000000
  ---------------------------------------------------
  free energy    TOTEN  =      -105.23191519 eV

  energy without entropy =     -105.23191519  energy(sigma->0) =     -105.23191519


--------------------------------------------------------------------------------------------------------




--------------------------------------- Iteration      1(  15)  ---------------------------------------


    POTLOK:  cpu time    0.0648: real time    0.0759
    SETDIJ:  cpu time    0.0017: real time    0.0017
     EDDAV:  cpu time    2.8444: real time    2.8511
 BZINTS: Fermi energy: -0.454018;144.000000 electrons
         Band energy:***********;  BLOECHL correction:  0.000000
       DOS:  cpu time    0.0019: real time    0.0019
    CHARGE:  cpu time    0.1472: real time    0.1475
    MIXING:  cpu time    0.0065: real time    0.0066
    --------------------------------------------
      LOOP:  cpu time    3.0665: real time    3.0848

 eigenvalue-minimisations  :  3008
 total energy-change (2. order) :-0.2162503E-02  (-0.1911219E-03)
 number of electron     144.0000004 magnetization 
 augmentation part      -17.6692416 magnetization 

 Broyden mixing:
  rms(total) = 0.20387E-02    rms(broyden)= 0.20387E-02
  rms(prec ) = 0.38831E-02
  weight for this iteration     100.00

 eigenvalues of (default mixing * dielectric matrix)
  average eigenvalue GAMMA=   1.9682
  5.4238  3.6594  2.4536  1.7158  0.9128  0.9128  1.2877  1.2877  1.0142  1.0142

 Free energy of the ion-electron system (eV)
  ---------------------------------------------------
  alpha Z        PSCENC =       170.45750602
  Ewald energy   TEWEN  =     12322.73363761
  -Hartree energ DENC   =    -18750.67465470
  -exchange      EXHF   =         0.00000000
  -V(xc)+E(xc)   XCENC  =        50.00880677
  PAW double counting   =      3831.75451998    -3545.55581110
  entropy T*S    EENTRO =         0.00000000
  eigenvalues    EBANDS =     -1434.81784247
  atomic energy  EATOM  =      7250.85976021
  Solvation  Ediel_sol  =         0.00000000
  ---------------------------------------------------
  free energy    TOTEN  =      -105.23407769 eV

  energy without entropy =     -105.23407769  energy(sigma->0) =     -105.23407769


--------------------------------------------------------------------------------------------------------




--------------------------------------- Iteration      1(  16)  ---------------------------------------


    POTLOK:  cpu time    0.0627: real time    0.0739
    SETDIJ:  cpu time    0.0018: real time    0.0018
     EDDAV:  cpu time    2.9030: real time    2.9099
 BZINTS: Fermi energy: -0.448332;144.000000 electrons
         Band energy:***********;  BLOECHL correction:  0.000000
       DOS:  cpu time    0.0022: real time    0.0022
    CHARGE:  cpu time    0.1531: real time    0.1535
    MIXING:  cpu time    0.0066: real time    0.0066
    --------------------------------------------
      LOOP:  cpu time    3.1294: real time    3.1478

 eigenvalue-minimisations  :  3120
 total energy-change (2. order) :-0.1021948E-02  (-0.6543311E-04)
 number of electron     144.0000004 magnetization 
 augmentation part      -17.6692476 magnetization 

 Broyden mixing:
  rms(total) = 0.14891E-02    rms(broyden)= 0.14891E-02
  rms(prec ) = 0.26396E-02
  weight for this iteration     100.00

 eigenvalues of (default mixing * dielectric matrix)
  average eigenvalue GAMMA=   2.0249
  5.7331  4.0219  2.4615  1.8402  1.8402  0.9164  0.9164  1.2823  1.2823  0.9895
  0.9895

 Free energy of the ion-electron system (eV)
  ---------------------------------------------------
  alpha Z        PSCENC =       170.45750602
  Ewald energy   TEWEN  =     12322.73363761
  -Hartree energ DENC   =    -18751.97883269
  -exchange      EXHF   =         0.00000000
  -V(xc)+E(xc)   XCENC  =        50.00591828
  PAW double counting   =      3831.90145167    -3545.71188502
  entropy T*S    EENTRO =         0.00000000
  eigenvalues    EBANDS =     -1433.50265572
  atomic energy  EATOM  =      7250.85976021
  Solvation  Ediel_sol  =         0.00000000
  ---------------------------------------------------
  free energy    TOTEN  =      -105.23509964 eV

  energy without entropy =     -105.23509964  energy(sigma->0) =     -105.23509964


--------------------------------------------------------------------------------------------------------




--------------------------------------- Iteration      1(  17)  ---------------------------------------


    POTLOK:  cpu time    0.0646: real time    0.0760
    SETDIJ:  cpu time    0.0018: real time    0.0018
     EDDAV:  cpu time    3.0431: real time    3.0503
 BZINTS: Fermi energy: -0.444612;144.000000 electrons
         Band energy:***********;  BLOECHL correction:  0.000000
       DOS:  cpu time    0.0020: real time    0.0020
    CHARGE:  cpu time    0.1553: real time    0.1557
    MIXING:  cpu time    0.0072: real time    0.0075
    --------------------------------------------
      LOOP:  cpu time    3.2739: real time    3.2933

 eigenvalue-minimisations  :  3144
 total energy-change (2. order) :-0.5114013E-03  (-0.2364858E-04)
 number of electron     144.0000004 magnetization 
 augmentation part      -17.6691625 magnetization 

 Broyden mixing:
  rms(total) = 0.82780E-03    rms(broyden)= 0.82780E-03
  rms(prec ) = 0.16185E-02
  weight for this iteration     100.00

 eigenvalues of (default mixing * dielectric matrix)
  average eigenvalue GAMMA=   2.0372
  5.9645  4.3711  2.7306  2.1844  1.6833  1.3399  1.3399  0.9157  0.9157  0.9501
  1.0259  1.0259

 Free energy of the ion-electron system (eV)
  ---------------------------------------------------
  alpha Z        PSCENC =       170.45750602
  Ewald energy   TEWEN  =     12322.73363761
  -Hartree energ DENC   =    -18752.97217529
  -exchange      EXHF   =         0.00000000
  -V(xc)+E(xc)   XCENC  =        50.00797462
  PAW double counting   =      3831.89103981    -3545.69884790
  entropy T*S    EENTRO =         0.00000000
  eigenvalues    EBANDS =     -1432.51450613
  atomic energy  EATOM  =      7250.85976021
  Solvation  Ediel_sol  =         0.00000000
  ---------------------------------------------------
  free energy    TOTEN  =      -105.23561104 eV

  energy without entropy =     -105.23561104  energy(sigma->0) =     -105.23561104


--------------------------------------------------------------------------------------------------------




--------------------------------------- Iteration      1(  18)  ---------------------------------------


    POTLOK:  cpu time    0.0664: real time    0.0784
    SETDIJ:  cpu time    0.0018: real time    0.0018
     EDDAV:  cpu time    2.8090: real time    2.8156
 BZINTS: Fermi energy: -0.445502;144.000000 electrons
         Band energy:***********;  BLOECHL correction:  0.000000
       DOS:  cpu time    0.0019: real time    0.0019
    CHARGE:  cpu time    0.1529: real time    0.1533
    MIXING:  cpu time    0.0062: real time    0.0063
    --------------------------------------------
      LOOP:  cpu time    3.0381: real time    3.0573

 eigenvalue-minimisations  :  2856
 total energy-change (2. order) :-0.5361499E-03  (-0.1113580E-04)
 number of electron     144.0000004 magnetization 
 augmentation part      -17.6690917 magnetization 

 Broyden mixing:
  rms(total) = 0.54163E-03    rms(broyden)= 0.54163E-03
  rms(prec ) = 0.10237E-02
  weight for this iteration     100.00

 eigenvalues of (default mixing * dielectric matrix)
  average eigenvalue GAMMA=   2.1100
  6.3401  4.8872  2.9624  2.4580  1.8438  1.4387  1.4387  0.9148  0.9148  1.1578
  1.1578  0.9582  0.9582

 Free energy of the ion-electron system (eV)
  ---------------------------------------------------
  alpha Z        PSCENC =       170.45750602
  Ewald energy   TEWEN  =     12322.73363761
  -Hartree energ DENC   =    -18753.46491679
  -exchange      EXHF   =         0.00000000
  -V(xc)+E(xc)   XCENC  =        50.00913682
  PAW double counting   =      3831.89780454    -3545.70420527
  entropy T*S    EENTRO =         0.00000000
  eigenvalues    EBANDS =     -1432.02487033
  atomic energy  EATOM  =      7250.85976021
  Solvation  Ediel_sol  =         0.00000000
  ---------------------------------------------------
  free energy    TOTEN  =      -105.23614719 eV

  energy without entropy =     -105.23614719  energy(sigma->0) =     -105.23614719


--------------------------------------------------------------------------------------------------------




--------------------------------------- Iteration      1(  19)  ---------------------------------------


    POTLOK:  cpu time    0.0588: real time    0.0699
    SETDIJ:  cpu time    0.0015: real time    0.0015
     EDDAV:  cpu time    2.6525: real time    2.6588
 BZINTS: Fermi energy: -0.448490;144.000000 electrons
         Band energy:***********;  BLOECHL correction:  0.000000
       DOS:  cpu time    0.0019: real time    0.0020
    CHARGE:  cpu time    0.1496: real time    0.1500
    MIXING:  cpu time    0.0057: real time    0.0057
    --------------------------------------------
      LOOP:  cpu time    2.8700: real time    2.8879

 eigenvalue-minimisations  :  2632
 total energy-change (2. order) :-0.6012284E-03  (-0.6572088E-05)
 number of electron     144.0000004 magnetization 
 augmentation part      -17.6692081 magnetization 

 Broyden mixing:
  rms(total) = 0.41612E-03    rms(broyden)= 0.41612E-03
  rms(prec ) = 0.63567E-03
  weight for this iteration     100.00

 eigenvalues of (default mixing * dielectric matrix)
  average eigenvalue GAMMA=   2.1861
  6.5136  5.5341  3.2810  2.6738  2.0615  1.6232  1.6232  0.9148  0.9148  1.2360
  1.2360  0.9634  1.0150  1.0150

 Free energy of the ion-electron system (eV)
  ---------------------------------------------------
  alpha Z        PSCENC =       170.45750602
  Ewald energy   TEWEN  =     12322.73363761
  -Hartree energ DENC   =    -18753.81994464
  -exchange      EXHF   =         0.00000000
  -V(xc)+E(xc)   XCENC  =        50.00832729
  PAW double counting   =      3831.85176870    -3545.65633587
  entropy T*S    EENTRO =         0.00000000
  eigenvalues    EBANDS =     -1431.67146775
  atomic energy  EATOM  =      7250.85976021
  Solvation  Ediel_sol  =         0.00000000
  ---------------------------------------------------
  free energy    TOTEN  =      -105.23674842 eV

  energy without entropy =     -105.23674842  energy(sigma->0) =     -105.23674842


--------------------------------------------------------------------------------------------------------




--------------------------------------- Iteration      1(  20)  ---------------------------------------


    POTLOK:  cpu time    0.0583: real time    0.0695
    SETDIJ:  cpu time    0.0015: real time    0.0015
     EDDAV:  cpu time    2.4073: real time    2.4130
 BZINTS: Fermi energy: -0.366832;144.000000 electrons
         Band energy:***********;  BLOECHL correction:  0.000000
       DOS:  cpu time    0.0022: real time    0.0022
    CHARGE:  cpu time    0.1501: real time    0.1504
    MIXING:  cpu time    0.0065: real time    0.0066
    --------------------------------------------
      LOOP:  cpu time    2.6260: real time    2.6433

 eigenvalue-minimisations  :  2584
 total energy-change (2. order) :-0.4220377E-03  (-0.6575661E-05)
 number of electron     144.0000004 magnetization 
 augmentation part      -17.6692687 magnetization 

 Broyden mixing:
  rms(total) = 0.17654E-03    rms(broyden)= 0.17654E-03
  rms(prec ) = 0.25899E-03
  weight for this iteration     100.00

 eigenvalues of (default mixing * dielectric matrix)
  average eigenvalue GAMMA=   2.2977
  7.3458  6.3571  3.5401  3.0746  2.3498  1.6550  1.6550  0.9149  0.9149  1.2748
  1.2748  1.0952  1.0952  0.9591  0.9591

 Free energy of the ion-electron system (eV)
  ---------------------------------------------------
  alpha Z        PSCENC =       170.45750602
  Ewald energy   TEWEN  =     12322.73363761
  -Hartree energ DENC   =    -18753.95763322
  -exchange      EXHF   =         0.00000000
  -V(xc)+E(xc)   XCENC  =        50.00815788
  PAW double counting   =      3831.84191443    -3545.64634000
  entropy T*S    EENTRO =         0.00000000
  eigenvalues    EBANDS =     -1431.53417340
  atomic energy  EATOM  =      7250.85976021
  Solvation  Ediel_sol  =         0.00000000
  ---------------------------------------------------
  free energy    TOTEN  =      -105.23717046 eV

  energy without entropy =     -105.23717046  energy(sigma->0) =     -105.23717046


--------------------------------------------------------------------------------------------------------




--------------------------------------- Iteration      1(  21)  ---------------------------------------


    POTLOK:  cpu time    0.0562: real time    0.0676
    SETDIJ:  cpu time    0.0016: real time    0.0016
     EDDAV:  cpu time    2.2982: real time    2.3036
 BZINTS: Fermi energy: -0.372551;144.000000 electrons
         Band energy:***********;  BLOECHL correction:  0.000000
       DOS:  cpu time    0.0023: real time    0.0022
    CHARGE:  cpu time    0.1464: real time    0.1468
    MIXING:  cpu time    0.0061: real time    0.0062
    --------------------------------------------
      LOOP:  cpu time    2.5108: real time    2.5281

 eigenvalue-minimisations  :  2400
 total energy-change (2. order) :-0.1605726E-03  (-0.2389918E-05)
 number of electron     144.0000004 magnetization 
 augmentation part      -17.6692404 magnetization 

 Broyden mixing:
  rms(total) = 0.10857E-03    rms(broyden)= 0.10857E-03
  rms(prec ) = 0.13119E-03
  weight for this iteration     100.00

 eigenvalues of (default mixing * dielectric matrix)
  average eigenvalue GAMMA=   2.3617
  8.3181  6.6601  3.7414  3.1648  2.3738  1.8857  1.8857  0.9148  0.9148  1.3137
  1.3137  1.1792  1.1792  0.9755  0.9755  0.9917

 Free energy of the ion-electron system (eV)
  ---------------------------------------------------
  alpha Z        PSCENC =       170.45750602
  Ewald energy   TEWEN  =     12322.73363761
  -Hartree energ DENC   =    -18753.94010491
  -exchange      EXHF   =         0.00000000
  -V(xc)+E(xc)   XCENC  =        50.00751709
  PAW double counting   =      3831.84120204    -3545.64639232
  entropy T*S    EENTRO =         0.00000000
  eigenvalues    EBANDS =     -1431.55045677
  atomic energy  EATOM  =      7250.85976021
  Solvation  Ediel_sol  =         0.00000000
  ---------------------------------------------------
  free energy    TOTEN  =      -105.23733103 eV

  energy without entropy =     -105.23733103  energy(sigma->0) =     -105.23733103


--------------------------------------------------------------------------------------------------------




--------------------------------------- Iteration      1(  22)  ---------------------------------------


    POTLOK:  cpu time    0.0593: real time    0.0703
    SETDIJ:  cpu time    0.0016: real time    0.0016
     EDDAV:  cpu time    2.4619: real time    2.4677
 BZINTS: Fermi energy: -0.377780;144.000000 electrons
         Band energy:***********;  BLOECHL correction:  0.000000
       DOS:  cpu time    0.0023: real time    0.0023
    CHARGE:  cpu time    0.1471: real time    0.1474
    MIXING:  cpu time    0.0066: real time    0.0067
    --------------------------------------------
      LOOP:  cpu time    2.6787: real time    2.6961

 eigenvalue-minimisations  :  2424
 total energy-change (2. order) :-0.3412950E-04  (-0.3028540E-06)
 number of electron     144.0000004 magnetization 
 augmentation part      -17.6692323 magnetization 

 Broyden mixing:
  rms(total) = 0.51506E-04    rms(broyden)= 0.51505E-04
  rms(prec ) = 0.65682E-04
  weight for this iteration     100.00

 eigenvalues of (default mixing * dielectric matrix)
  average eigenvalue GAMMA=   2.3776
  8.8793  6.8832  3.8552  3.3171  2.5368  2.1156  1.7250  0.9149  0.9149  1.4446
  1.2748  1.2748  1.2206  1.0815  1.0815  0.9500  0.9500

 Free energy of the ion-electron system (eV)
  ---------------------------------------------------
  alpha Z        PSCENC =       170.45750602
  Ewald energy   TEWEN  =     12322.73363761
  -Hartree energ DENC   =    -18753.94529808
  -exchange      EXHF   =         0.00000000
  -V(xc)+E(xc)   XCENC  =        50.00735440
  PAW double counting   =      3831.83016944    -3545.63524776
  entropy T*S    EENTRO =         0.00000000
  eigenvalues    EBANDS =     -1431.54524700
  atomic energy  EATOM  =      7250.85976021
  Solvation  Ediel_sol  =         0.00000000
  ---------------------------------------------------
  free energy    TOTEN  =      -105.23736516 eV

  energy without entropy =     -105.23736516  energy(sigma->0) =     -105.23736516


--------------------------------------------------------------------------------------------------------




--------------------------------------- Iteration      1(  23)  ---------------------------------------


    POTLOK:  cpu time    0.0632: real time    0.0743
    SETDIJ:  cpu time    0.0015: real time    0.0015
     EDDAV:  cpu time    2.1719: real time    2.1771
 BZINTS: Fermi energy: -0.382633;144.000000 electrons
         Band energy:***********;  BLOECHL correction:  0.000000
       DOS:  cpu time    0.0023: real time    0.0023
    CHARGE:  cpu time    0.1413: real time    0.1416
    MIXING:  cpu time    0.0066: real time    0.0066
    --------------------------------------------
      LOOP:  cpu time    2.3868: real time    2.4035

 eigenvalue-minimisations  :  2136
 total energy-change (2. order) :-0.1805528E-04  (-0.1596399E-06)
 number of electron     144.0000004 magnetization 
 augmentation part      -17.6692339 magnetization 

 Broyden mixing:
  rms(total) = 0.23026E-04    rms(broyden)= 0.23026E-04
  rms(prec ) = 0.29915E-04
  weight for this iteration     100.00

 eigenvalues of (default mixing * dielectric matrix)
  average eigenvalue GAMMA=   2.3643
  8.9848  6.9771  3.7073  3.7073  2.5384  2.1031  1.8772  1.8772  0.9149  0.9149
  1.2638  1.2638  1.2063  1.2063  1.0746  0.9725  0.9725  0.9957

 Free energy of the ion-electron system (eV)
  ---------------------------------------------------
  alpha Z        PSCENC =       170.45750602
  Ewald energy   TEWEN  =     12322.73363761
  -Hartree energ DENC   =    -18753.93504981
  -exchange      EXHF   =         0.00000000
  -V(xc)+E(xc)   XCENC  =        50.00728047
  PAW double counting   =      3831.83131859    -3545.63644493
  entropy T*S    EENTRO =         0.00000000
  eigenvalues    EBANDS =     -1431.55539137
  atomic energy  EATOM  =      7250.85976021
  Solvation  Ediel_sol  =         0.00000000
  ---------------------------------------------------
  free energy    TOTEN  =      -105.23738321 eV

  energy without entropy =     -105.23738321  energy(sigma->0) =     -105.23738321


--------------------------------------------------------------------------------------------------------




--------------------------------------- Iteration      1(  24)  ---------------------------------------


    POTLOK:  cpu time    0.0593: real time    0.0703
    SETDIJ:  cpu time    0.0015: real time    0.0015
     EDDAV:  cpu time    2.0553: real time    2.0602
 BZINTS: Fermi energy: -0.385623;144.000000 electrons
         Band energy:***********;  BLOECHL correction:  0.000000
       DOS:  cpu time    0.0024: real time    0.0024
    CHARGE:  cpu time    0.1426: real time    0.1429
    MIXING:  cpu time    0.0067: real time    0.0068
    --------------------------------------------
      LOOP:  cpu time    2.2678: real time    2.2840

 eigenvalue-minimisations  :  1952
 total energy-change (2. order) :-0.2813292E-05  (-0.1800751E-07)
 number of electron     144.0000004 magnetization 
 augmentation part      -17.6692385 magnetization 

 Broyden mixing:
  rms(total) = 0.15429E-04    rms(broyden)= 0.15429E-04
  rms(prec ) = 0.22455E-04
  weight for this iteration     100.00

 eigenvalues of (default mixing * dielectric matrix)
  average eigenvalue GAMMA=   2.3693
  9.0722  7.0456  3.8320  3.8320  2.8689  2.2755  2.2755  1.5895  1.5895  0.9149
  0.9149  1.2596  1.2596  1.1423  1.1423  0.9601  0.9601  1.0412  1.0412

 Free energy of the ion-electron system (eV)
  ---------------------------------------------------
  alpha Z        PSCENC =       170.45750602
  Ewald energy   TEWEN  =     12322.73363761
  -Hartree energ DENC   =    -18753.93192420
  -exchange      EXHF   =         0.00000000
  -V(xc)+E(xc)   XCENC  =        50.00722042
  PAW double counting   =      3831.83257165    -3545.63767520
  entropy T*S    EENTRO =         0.00000000
  eigenvalues    EBANDS =     -1431.55848254
  atomic energy  EATOM  =      7250.85976021
  Solvation  Ediel_sol  =         0.00000000
  ---------------------------------------------------
  free energy    TOTEN  =      -105.23738603 eV

  energy without entropy =     -105.23738603  energy(sigma->0) =     -105.23738603


--------------------------------------------------------------------------------------------------------




--------------------------------------- Iteration      1(  25)  ---------------------------------------


    POTLOK:  cpu time    0.0575: real time    0.0683
    SETDIJ:  cpu time    0.0015: real time    0.0015
     EDDAV:  cpu time    2.0488: real time    2.0536
 BZINTS: Fermi energy: -0.388198;144.000000 electrons
         Band energy:***********;  BLOECHL correction:  0.000000
       DOS:  cpu time    0.0023: real time    0.0023
    CHARGE:  cpu time    0.1555: real time    0.1559
    MIXING:  cpu time    0.0073: real time    0.0074
    --------------------------------------------
      LOOP:  cpu time    2.2729: real time    2.2890

 eigenvalue-minimisations  :  1832
 total energy-change (2. order) :-0.1264185E-05  (-0.1825496E-07)
 number of electron     144.0000004 magnetization 
 augmentation part      -17.6692399 magnetization 

 Broyden mixing:
  rms(total) = 0.61302E-05    rms(broyden)= 0.61302E-05
  rms(prec ) = 0.89358E-05
  weight for this iteration     100.00

 eigenvalues of (default mixing * dielectric matrix)
  average eigenvalue GAMMA=   2.3364
  9.1312  7.0188  3.9210  3.9210  2.8950  2.5128  1.8976  1.8976  1.5023  1.5023
  0.9149  0.9149  1.2249  1.2249  1.1482  1.1482  1.0661  0.9699  0.9699  0.9467

 Free energy of the ion-electron system (eV)
  ---------------------------------------------------
[...]
      7     -27.7456      2.00000
      8     -27.7452      2.00000
      9     -14.8718      2.00000
     10     -14.8716      2.00000
     11     -14.8057      2.00000
     12     -14.8056      2.00000
     13     -14.7353      2.00000
     14     -14.7353      2.00000
     15     -13.9037      2.00000
     16     -13.9027      2.00000
     17     -13.7806      2.00000
     18     -13.7747      2.00000
     19     -13.7596      2.00000
     20     -13.7574      2.00000
     21     -13.7276      2.00000
     22     -13.7238      2.00000
     23     -13.6924      2.00000
     24     -13.6909      2.00000
     25     -13.6233      2.00000
     26     -13.6153      2.00000
     27     -13.1420      2.00000
     28     -13.1320      2.00000
     29     -13.0977      2.00000
     30     -13.0900      2.00000
     31     -13.0615      2.00000
     32     -13.0607      2.00000
     33     -11.0237      2.00000
     34     -11.0096      2.00000
     35     -10.6222      2.00000
     36     -10.6064      2.00000
     37      -6.4180      2.00000
     38      -6.3987      2.00000
     39      -6.1738      2.00000
     40      -6.1623      2.00000
     41      -6.1032      2.00000
     42      -6.0905      2.00000
     43      -5.8313      2.00000
     44      -5.8179      2.00000
     45      -5.7785      2.00000
     46      -5.7291      2.00000
     47      -5.6863      2.00000
     48      -5.5768      2.00000
     49      -2.7867      2.00000
     50      -2.6906      2.00000
     51      -2.5223      2.00000
     52      -2.4681      2.00000
     53      -2.2071      2.00000
     54      -2.1161      2.00000
     55      -2.0949      2.00000
     56      -2.0652      2.00000
     57      -1.9035      2.00000
     58      -1.8797      2.00000
     59      -1.7851      2.00000
     60      -1.6987      2.00000
     61      -1.6122      2.00000
     62      -1.5573      2.00000
     63      -1.4621      2.00000
     64      -1.3828      2.00000
     65      -1.2647      2.00000
     66      -1.1901      2.00000
     67      -1.1230      2.00000
     68      -1.0119      2.00000
     69      -0.8814      2.00000
     70      -0.7677      2.00000
     71      -0.7598      2.00000
     72      -0.6909      2.00000
     73       0.4109      0.00000
     74       0.4399      0.00000
     75       0.5789      0.00000
     76       0.6215      0.00000
     77       0.6840      0.00000
     78       0.8180      0.00000
     79       0.9351      0.00000
     80       0.9769      0.00000
     81       0.9956      0.00000
     82       1.1537      0.00000
     83       1.2836      0.00000
     84       1.3762      0.00000
     85       1.4142      0.00000
     86       1.5794      0.00000
     87       1.6731      0.00000
     88       1.7768      0.00000

 k-point    15 :       0.0000    0.5000    0.4000
  band No.  band energies     occupation 
      1     -29.5333      2.00000
      2     -29.5333      2.00000
      3     -28.4820      2.00000
      4     -28.4820      2.00000
      5     -28.3536      2.00000
      6     -28.3535      2.00000
      7     -27.7454      2.00000
      8     -27.7454      2.00000
      9     -14.8712      2.00000
     10     -14.8712      2.00000
     11     -14.8063      2.00000
     12     -14.8063      2.00000
     13     -14.7373      2.00000
     14     -14.7373      2.00000
     15     -13.9025      2.00000
     16     -13.9025      2.00000
     17     -13.7793      2.00000
     18     -13.7793      2.00000
     19     -13.7616      2.00000
     20     -13.7616      2.00000
     21     -13.7257      2.00000
     22     -13.7257      2.00000
     23     -13.6944      2.00000
     24     -13.6944      2.00000
     25     -13.6186      2.00000
     26     -13.6186      2.00000
     27     -13.1368      2.00000
     28     -13.1368      2.00000
     29     -13.0935      2.00000
     30     -13.0935      2.00000
     31     -13.0609      2.00000
     32     -13.0609      2.00000
     33     -11.0109      2.00000
     34     -11.0109      2.00000
     35     -10.6047      2.00000
     36     -10.6047      2.00000
     37      -6.4367      2.00000
     38      -6.4367      2.00000
     39      -6.1404      2.00000
     40      -6.1404      2.00000
     41      -6.0973      2.00000
     42      -6.0973      2.00000
     43      -5.8019      2.00000
     44      -5.8019      2.00000
     45      -5.7626      2.00000
     46      -5.7625      2.00000
     47      -5.6294      2.00000
     48      -5.6294      2.00000
     49      -2.6939      2.00000
     50      -2.6939      2.00000
     51      -2.5129      2.00000
     52      -2.5129      2.00000
     53      -2.1559      2.00000
     54      -2.1559      2.00000
     55      -2.0957      2.00000
     56      -2.0957      2.00000
     57      -1.8935      2.00000
     58      -1.8935      2.00000
     59      -1.6895      2.00000
     60      -1.6895      2.00000
     61      -1.4992      2.00000
     62      -1.4992      2.00000
     63      -1.4607      2.00000
     64      -1.4607      2.00000
     65      -1.2457      2.00000
     66      -1.2457      2.00000
     67      -1.0605      2.00000
     68      -1.0605      2.00000
     69      -0.8705      2.00000
     70      -0.8704      2.00000
     71      -0.7239      2.00000
     72      -0.7239      2.00000
     73       0.3264      0.00000
     74       0.3264      0.00000
     75       0.5672      0.00000
     76       0.5672      0.00000
     77       0.7416      0.00000
     78       0.7416      0.00000
     79       0.9331      0.00000
     80       0.9331      0.00000
     81       0.9979      0.00000
     82       0.9979      0.00000
     83       1.3505      0.00000
     84       1.3505      0.00000
     85       1.5336      0.00000
     86       1.5336      0.00000
     87       1.6348      0.00000
     88       1.6348      0.00000


--------------------------------------------------------------------------------------------------------


 soft charge-density along one line, spin component           1
         0         1         2         3         4         5         6         7         8         9
 total charge-density along one line
 
 pseudopotential strength for first ion, spin component:           1
  5.098  -5.598  -0.000  -0.008  -0.037  -0.000  -0.003  -0.015
 -5.598  -2.740   0.000   0.002   0.007  -0.000  -0.001  -0.006
 -0.000   0.000  -6.777  -0.000  -0.000   1.863  -0.000  -0.000
 -0.008   0.002  -0.000  -6.772  -0.001  -0.000   1.874  -0.003
 -0.037   0.007  -0.000  -0.001  -6.772  -0.000  -0.003   1.873
 -0.000  -0.000   1.863  -0.000  -0.000   7.308  -0.000  -0.000
 -0.003  -0.001  -0.000   1.874  -0.003  -0.000   7.310  -0.000
 -0.015  -0.006  -0.000  -0.003   1.873  -0.000  -0.000   7.310
 -0.000   0.000  -0.013  -0.000  -0.000  -0.009  -0.000  -0.000
 -0.000   0.000  -0.001  -0.000  -0.000  -0.000  -0.000  -0.000
  0.002  -0.001   0.000  -0.004   0.007   0.000  -0.003   0.005
 -0.002   0.001  -0.000  -0.012  -0.002  -0.000  -0.008  -0.002
  0.003  -0.001   0.000  -0.001  -0.012   0.000  -0.001  -0.008
  0.000   0.000   0.001   0.000   0.000   0.000   0.000   0.000
  0.000   0.000   0.000   0.000   0.000  -0.000   0.000   0.000
 -0.000  -0.000  -0.000   0.000  -0.000  -0.000   0.000  -0.000
  0.000   0.000   0.000   0.001   0.000   0.000   0.000   0.000
 -0.000  -0.000  -0.000   0.000   0.000  -0.000   0.000   0.000
 total augmentation occupancy for first ion, spin component:           1
  2.102  -0.256   0.000   0.012   0.055   0.000  -0.006  -0.020   0.000   0.000   0.015  -0.010   0.032   0.000   0.000  -0.010
 -0.256   0.637   0.000  -0.033  -0.143   0.000   0.012   0.033   0.000   0.000  -0.025   0.012  -0.062   0.000  -0.000   0.040
  0.000   0.000   2.012   0.000   0.000  -0.011   0.000   0.000  -0.083   0.022   0.000   0.000  -0.000   0.077  -0.042   0.000
  0.012  -0.033   0.000   2.000   0.003  -0.000  -0.002  -0.002   0.000   0.000  -0.045  -0.068  -0.015   0.000   0.000   0.044
  0.055  -0.143   0.000   0.003   1.995   0.000  -0.002  -0.000  -0.000   0.000   0.035  -0.007  -0.052   0.000   0.000  -0.032
  0.000   0.000  -0.011  -0.000   0.000   0.008   0.000   0.000   0.022  -0.009   0.000   0.000  -0.000  -0.030   0.014  -0.000
 -0.006   0.012  -0.000  -0.002  -0.002   0.000   0.005   0.001   0.000   0.000   0.016   0.015   0.005   0.000   0.000  -0.022
 -0.020   0.033   0.000  -0.002  -0.000   0.000   0.001   0.004  -0.000   0.000  -0.007   0.000   0.009   0.000   0.000   0.009
  0.000   0.000  -0.083   0.000   0.000   0.022  -0.000   0.000   0.145  -0.014   0.000   0.000   0.000  -0.183   0.020   0.000
  0.000   0.000   0.022   0.000   0.000  -0.009   0.000   0.000  -0.014   0.068  -0.000   0.000   0.000   0.018  -0.085   0.000
  0.015  -0.025   0.000  -0.045   0.035   0.000   0.016  -0.007   0.000   0.000   0.122   0.050   0.019   0.000   0.000  -0.147
 -0.010   0.012   0.000  -0.068  -0.007  -0.000   0.015   0.000  -0.000  -0.000   0.050   0.087   0.009   0.000   0.000  -0.069
  0.032  -0.062  -0.000  -0.015  -0.052   0.000   0.005   0.009   0.000   0.000   0.019   0.009   0.097   0.000   0.000  -0.026
 -0.000   0.000   0.077   0.000   0.000  -0.030   0.000  -0.000  -0.183   0.018  -0.000   0.000   0.000   0.258  -0.034   0.000
 -0.000   0.000  -0.042   0.000   0.000   0.014   0.000   0.000   0.020  -0.085   0.000   0.000   0.000  -0.034   0.114   0.000
 -0.010   0.040  -0.000   0.044  -0.032   0.000  -0.022   0.009   0.000   0.000  -0.147  -0.069  -0.026   0.000   0.000   0.200
  0.007  -0.029   0.000   0.063  -0.000   0.000  -0.022  -0.001   0.000   0.000  -0.067  -0.110  -0.012   0.000   0.000   0.104
 -0.024   0.074  -0.000   0.022   0.050   0.000  -0.008  -0.012   0.000   0.000  -0.027  -0.013  -0.126   0.000   0.000   0.043


------------------------ aborting loop because EDIFF is reached ----------------------------------------


    CHARGE:  cpu time    0.1588: real time    0.1592
    FORLOC:  cpu time    0.0095: real time    0.0095
    FORNL :  cpu time    0.6041: real time    0.6055
    STRESS:  cpu time    1.7785: real time    1.7830
    FORCOR:  cpu time    0.0692: real time    0.0694
    FORHAR:  cpu time    0.0230: real time    0.0231
    MIXING:  cpu time    0.0082: real time    0.0086
    OFIELD:  cpu time    0.0000: real time    0.0000

  FORCE on cell =-STRESS in cart. coord.  units (eV):
  Direction    XX          YY          ZZ          XY          YZ          ZX
  --------------------------------------------------------------------------------------
  Alpha Z   170.45751   170.45751   170.45751
  Ewald  -20095.59985 16476.65184 15941.66796    -0.00002     0.00000   142.74495
  Hartree-17024.52782 18099.44150 17679.01476     0.00000    -0.00000   107.92849
  E(xc)    -462.29586  -460.58140  -460.97305    -0.00000    -0.00000     0.21258
  Local   35703.92980-36011.24640-35047.59740     0.00001    -0.00000  -248.26300
  n-local   339.07397   339.26911   339.81069     0.05842    -0.19585    -1.76879
  augment  -169.36823  -169.67569  -169.53853    -0.00000    -0.00000     0.34901
  Kinetic  1532.05220  1547.23048  1539.53533    -0.02837    -0.81646    -1.12970
  Fock        0.00000     0.00000     0.00000     0.00000     0.00000     0.00000
  -------------------------------------------------------------------------------------
  Total      -6.27828    -8.45305    -7.62274     0.00000     0.00000     0.07355
  in kB      -5.32769    -7.17317    -6.46858     0.00000     0.00000     0.06241
  external pressure =       -6.32 kB  Pullay stress =        0.00 kB


 VOLUME and BASIS-vectors are now :
 -----------------------------------------------------------------------------
  energy-cutoff  :      500.00
  volume of cell :     1888.05
      direct lattice vectors                 reciprocal lattice vectors
    24.009468079  0.000000000  0.000000000     0.041650236  0.000000000  0.000000000
     0.000000000  6.777849674  0.000000000     0.000000000  0.147539419  0.000000000
     0.000000000  0.000000000 11.602143288     0.000000000  0.000000000  0.086190971

  length of vectors
    24.009468079  6.777849674 11.602143288     0.041650236  0.147539419  0.086190971


 FORCES acting on ions
    electron-ion (+dipol)            ewald-force                    non-local-force                 convergence-correction
 -----------------------------------------------------------------------------------------------
   0.792E+03 0.102E-04 0.439E+02   -.787E+03 0.983E-05 -.431E+02   -.426E+01 0.593E-18 -.827E+00   0.558E-04 -.689E-09 0.562E-05
   -.792E+03 -.632E-04 -.439E+02   0.787E+03 -.127E-04 0.431E+02   0.426E+01 0.494E-18 0.827E+00   -.558E-04 0.732E-09 -.561E-05
   0.773E+02 -.598E-04 -.356E+02   -.770E+02 -.192E-04 0.343E+02   -.313E+00 -.371E-19 0.125E+01   0.668E-04 0.113E-08 -.458E-04
   -.773E+02 0.119E-04 0.356E+02   0.770E+02 0.133E-04 -.343E+02   0.313E+00 -.114E-19 -.125E+01   -.668E-04 -.105E-08 0.458E-04
   0.638E+03 -.611E-04 -.498E+02   -.635E+03 -.168E-04 0.503E+02   -.204E+01 0.213E-17 -.522E+00   0.127E-03 0.912E-09 -.522E-04
   -.638E+03 0.904E-05 0.498E+02   0.635E+03 0.147E-04 -.503E+02   0.204E+01 0.251E-17 0.522E+00   -.127E-03 -.872E-09 0.521E-04
   0.371E+03 0.124E-04 -.739E+01   -.369E+03 0.135E-04 0.657E+01   -.120E+01 -.177E-17 0.823E+00   0.109E-03 -.102E-08 0.983E-05
   -.371E+03 -.614E-04 0.739E+01   0.369E+03 -.135E-04 -.657E+01   0.120E+01 0.198E-17 -.823E+00   -.109E-03 0.101E-08 -.982E-05
   0.277E+03 0.367E+02 -.467E+02   -.277E+03 -.382E+02 0.476E+02   -.944E-01 0.151E+01 -.885E+00   0.811E-04 0.436E-04 -.396E-04
   -.277E+03 -.367E+02 0.467E+02   0.277E+03 0.382E+02 -.476E+02   0.944E-01 -.151E+01 0.885E+00   -.811E-04 -.436E-04 0.396E-04
   0.127E+03 -.322E+02 0.280E+01   -.126E+03 0.333E+02 -.182E+01   -.596E+00 -.113E+01 -.973E+00   0.282E-04 -.274E-04 -.113E-05
   -.127E+03 0.322E+02 -.280E+01   0.126E+03 -.333E+02 0.182E+01   0.596E+00 0.113E+01 0.973E+00   -.282E-04 0.274E-04 0.113E-05
   -.277E+03 0.367E+02 0.467E+02   0.277E+03 -.382E+02 -.476E+02   0.944E-01 0.151E+01 0.885E+00   -.811E-04 0.436E-04 0.396E-04
   0.277E+03 -.367E+02 -.467E+02   -.277E+03 0.382E+02 0.476E+02   -.944E-01 -.151E+01 -.885E+00   0.811E-04 -.436E-04 -.396E-04
   -.127E+03 -.322E+02 -.280E+01   0.126E+03 0.333E+02 0.182E+01   0.596E+00 -.113E+01 0.973E+00   -.282E-04 -.274E-04 0.113E-05
   0.127E+03 0.322E+02 0.280E+01   -.126E+03 -.333E+02 -.182E+01   -.596E+00 0.113E+01 -.973E+00   0.282E-04 0.274E-04 -.113E-05
   0.335E+03 -.424E-05 0.458E+02   -.337E+03 -.606E-05 -.464E+02   0.137E+01 -.104E-18 0.643E+00   0.629E-04 0.300E-09 0.223E-04
   -.335E+03 0.614E-05 -.458E+02   0.337E+03 0.631E-05 0.464E+02   -.137E+01 0.806E-20 -.643E+00   -.629E-04 -.306E-09 -.223E-04
   0.320E+02 0.102E-04 -.111E+02   -.305E+02 0.773E-05 0.103E+02   -.136E+01 -.306E-18 0.765E+00   -.147E-04 -.421E-09 -.152E-04
   -.320E+02 -.101E-05 0.111E+02   0.305E+02 -.738E-05 -.103E+02   0.136E+01 -.230E-18 -.765E+00   0.147E-04 0.395E-09 0.152E-04
   0.247E+03 0.444E-05 0.979E+01   -.246E+03 0.813E-05 -.110E+02   -.701E+00 0.250E-17 0.118E+01   0.765E-04 -.367E-09 0.284E-04
   -.247E+03 -.558E-05 -.979E+01   0.246E+03 -.817E-05 0.110E+02   0.701E+00 0.196E-17 -.118E+01   -.765E-04 0.348E-09 -.284E-04
   0.161E+03 -.625E-05 0.615E+02   -.160E+03 -.768E-05 -.631E+02   -.849E+00 -.207E-17 0.167E+01   0.362E-04 0.383E-09 0.462E-04
   -.161E+03 0.375E-05 -.615E+02   0.160E+03 0.749E-05 0.631E+02   0.849E+00 0.142E-17 -.167E+01   -.362E-04 -.383E-09 -.462E-04
 -----------------------------------------------------------------------------------------------
   0.612E-04 -.206E-03 0.647E-04   -.568E-13 0.532E-14 0.497E-13   0.333E-15 0.317E-17 0.222E-15   -.215E-07 0.685E-10 -.302E-08
 
 
 POSITION                                       TOTAL-FORCE (eV/Angst)
 -----------------------------------------------------------------------------------
      0.13670      1.69446      8.19339         0.750643     -0.000000     -0.000373
      8.97277      5.08339      3.40876        -0.750643     -0.000000      0.000373
      4.36803      5.08339      2.16622        -0.082410     -0.000000      0.000317
      4.74143      1.69446      9.43593         0.082410     -0.000000     -0.000317
      1.43529      5.08339     10.65557         0.693466     -0.000000      0.000841
      7.67418      1.69446      0.94657        -0.693466     -0.000000     -0.000841
      3.06944      1.69446      4.61923         0.302777     -0.000000      0.000431
      6.04002      5.08339      6.98291        -0.302777     -0.000000     -0.000431
      1.75027      0.49332      1.68677        -0.153675      0.000176     -0.000120
      7.35920      6.28453      9.91538         0.153675     -0.000176      0.000120
      2.75446      6.28989      7.64605         0.029899     -0.000057      0.000725
      6.35500      0.48796      3.95610        -0.029899      0.000057     -0.000725
      7.35920      3.88225      9.91538         0.153675      0.000176      0.000120
      1.75027      2.89560      1.68677        -0.153675     -0.000176     -0.000120
      6.35500      2.90097      3.95610        -0.029899     -0.000057     -0.000725
      2.75446      3.87688      7.64605         0.029899      0.000057      0.000725
      0.74693      5.08339      6.96022        -0.233937     -0.000000      0.000260
      8.36254      1.69446      4.64192         0.233937     -0.000000     -0.000260
      3.75780      1.69446      0.98802         0.173070     -0.000000     -0.000045
      5.35166      5.08339     10.61412        -0.173070     -0.000000      0.000045
      1.78112      1.69446     11.17948        -0.275585     -0.000000      0.000567
      7.32835      5.08339      0.42266         0.275585     -0.000000     -0.000567
      2.72362      5.08339      5.53563        -0.289714     -0.000000     -0.000311
      6.38585      1.69446      6.06651         0.289714     -0.000000      0.000311
 -----------------------------------------------------------------------------------
    total drift:                                0.000061     -0.000206      0.000065


--------------------------------------------------------------------------------------------------------



  FREE ENERGIE OF THE ION-ELECTRON SYSTEM (eV)
  ---------------------------------------------------
  free  energy   TOTEN  =      -105.23738750 eV

  energy  without entropy=     -105.23738750  energy(sigma->0) =     -105.23738750
 


--------------------------------------------------------------------------------------------------------


    POTLOK:  cpu time    0.0640: real time    0.0642


--------------------------------------------------------------------------------------------------------


 writing wavefunctions
     LOOP+:  cpu time   85.8502: real time   86.9853
    4ORBIT:  cpu time    0.0000: real time    0.0000
 BZINTS: Fermi energy: -0.390974;144.000000 electrons
         Band energy:***********;  BLOECHL correction:  0.000000

 total amount of memory used by VASP MPI-rank0    79346. kBytes
=======================================================================

   base      :      30000. kBytes
   nonlr-proj:       2640. kBytes
   fftplans  :       5898. kBytes
   grid      :       8824. kBytes
   one-center:         93. kBytes
   wavefun   :      31891. kBytes
 
  
  
 General timing and accounting informations for this job:
 ========================================================
  
                  Total CPU time used (sec):       93.847
                            User time (sec):       88.548
                          System time (sec):        5.299
                         Elapsed time (sec):       97.201
  
                   Maximum memory used (kb):      168924.
                   Average memory used (kb):           0.
  
                          Minor page faults:        65890
                          Major page faults:          178
                 Voluntary context switches:        12521
