 vasp.5.4.4.18Apr17-6-g9f103f2a35 (build Nov 21 2017 15:30:27) complex          
  
 executed on             LinuxIFC date 2020.09.15  08:06:37
 running on   64 total cores
 distrk:  each k-point on   32 cores,    2 groups
 distr:  one band on NCORES_PER_BAND=   4 cores,    8 groups


--------------------------------------------------------------------------------------------------------


 INCAR:
 POTCAR:   PAW_PBE Ba_sv 06Sep2000                
 POTCAR:   PAW_PBE Si 05Jan2001                   

 ----------------------------------------------------------------------------- 
|                                                                             |
|           W    W    AA    RRRRR   N    N  II  N    N   GGGG   !!!           |
|           W    W   A  A   R    R  NN   N  II  NN   N  G    G  !!!           |
|           W    W  A    A  R    R  N N  N  II  N N  N  G       !!!           |
|           W WW W  AAAAAA  RRRRR   N  N N  II  N  N N  G  GGG   !            |
|           WW  WW  A    A  R   R   N   NN  II  N   NN  G    G                |
|           W    W  A    A  R    R  N    N  II  N    N   GGGG   !!!           |
|                                                                             |
|      You have enabled k-point parallelism (KPAR>1).                         |
|      This developmental code was originally  written by Paul Kent at ORNL,  |
|      and carefully double checked in Vienna.                                |
|      GW as well as linear response parallelism added by Martijn Marsman     |
|      and Georg Kresse.                                                      |
|      Carefully verify results versus KPAR=1.                                |
|      Report problems to Paul Kent and Vienna.                               |
|                                                                             |
 ----------------------------------------------------------------------------- 

 POTCAR:   PAW_PBE Ba_sv 06Sep2000                
   VRHFIN =Ba: 5s5p6s                                                           
   LEXCH  = PE                                                                  
   EATOM  =   700.2255 eV,   51.4651 Ry                                         
                                                                                
   TITEL  = PAW_PBE Ba_sv 06Sep2000                                             
   LULTRA =        F    use ultrasoft PP ?                                      
   IUNSCR =        1    unscreen: 0-lin 1-nonlin 2-no                           
   RPACOR =    2.400    partial core radius                                     
   POMASS =  137.327; ZVAL   =   10.000    mass and valenz                      
   RCORE  =    2.800    outmost cutoff radius                                   
   RWIGS  =    3.740; RWIGS  =    1.979    wigner-seitz radius (au A)           
   ENMAX  =  187.210; ENMIN  =  140.408 eV                                      
   RCLOC  =    2.516    cutoff for local pot                                    
   LCOR   =        T    correct aug charges                                     
   LPAW   =        T    paw PP                                                  
   EAUG   =  351.165                                                            
   DEXC   =     .000                                                            
   RMAX   =    3.370    core radius for proj-oper                               
   RAUG   =    1.300    factor for augmentation sphere                          
   RDEP   =    2.976    radius for radial grids                                 
   QCUT   =   -3.709; QGAM   =    7.419    optimization parameters              
                                                                                
   Description                                                                  
     l     E      TYP  RCUT    TYP  RCUT                                        
     0   .000     23  2.800                                                     
     0   .000     23  2.800                                                     
     1   .000     23  2.700                                                     
     1  2.000     23  2.700                                                     
     2   .000     23  2.700                                                     
     2   .000     23  2.700                                                     
  local pseudopotential read in
  partial core-charges read in
  atomic valenz-charges read in
  non local Contribution for L=           0  read in
    real space projection operators read in
  non local Contribution for L=           0  read in
    real space projection operators read in
  non local Contribution for L=           1  read in
    real space projection operators read in
  non local Contribution for L=           1  read in
    real space projection operators read in
  non local Contribution for L=           2  read in
    real space projection operators read in
  non local Contribution for L=           2  read in
    real space projection operators read in
    PAW grid and wavefunctions read in
 
   number of l-projection  operators is LMAX  =           6
   number of lm-projection operators is LMMAX =          18
 
 POTCAR:   PAW_PBE Si 05Jan2001                   
   VRHFIN =Si: s2p2                                                             
   LEXCH  = PE                                                                  
   EATOM  =   103.0669 eV,    7.5752 Ry                                         
                                                                                
   TITEL  = PAW_PBE Si 05Jan2001                                                
   LULTRA =        F    use ultrasoft PP ?                                      
   IUNSCR =        1    unscreen: 0-lin 1-nonlin 2-no                           
   RPACOR =    1.500    partial core radius                                     
   POMASS =   28.085; ZVAL   =    4.000    mass and valenz                      
   RCORE  =    1.900    outmost cutoff radius                                   
   RWIGS  =    2.480; RWIGS  =    1.312    wigner-seitz radius (au A)           
   ENMAX  =  245.345; ENMIN  =  184.009 eV                                      
   ICORE  =        2    local potential                                         
   LCOR   =        T    correct aug charges                                     
   LPAW   =        T    paw PP                                                  
   EAUG   =  322.069                                                            
   DEXC   =    -.007                                                            
   RMAX   =    2.944    core radius for proj-oper                               
   RAUG   =    1.300    factor for augmentation sphere                          
   RDEP   =    1.993    radius for radial grids                                 
   QCUT   =   -4.246; QGAM   =    8.493    optimization parameters              
                                                                                
   Description                                                                  
     l     E      TYP  RCUT    TYP  RCUT                                        
     0   .000     23  1.900                                                     
     0   .000     23  1.900                                                     
     1   .000     23  1.900                                                     
     1   .000     23  1.900                                                     
     2   .000      7  1.900                                                     
  local pseudopotential read in
  partial core-charges read in
  atomic valenz-charges read in
  non local Contribution for L=           0  read in
    real space projection operators read in
  non local Contribution for L=           0  read in
    real space projection operators read in
  non local Contribution for L=           1  read in
    real space projection operators read in
  non local Contribution for L=           1  read in
    real space projection operators read in
    PAW grid and wavefunctions read in
 
   number of l-projection  operators is LMAX  =           4
   number of lm-projection operators is LMMAX =           8
 
 Optimization of the real space projectors (new method)

 maximal supplied QI-value         = 13.42
 optimisation between [QCUT,QGAM] = [ 11.40, 22.81] = [ 36.42,145.68] Ry 
 Optimized for a Real-space Cutoff    1.56 Angstroem

   l    n(q)    QCUT    max X(q) W(low)/X(q) W(high)/X(q)  e(spline) 
   0     11    11.404     7.198    0.14E-04    0.26E-04    0.99E-07
   0     11    11.404    15.603    0.29E-04    0.72E-04    0.44E-06
   1     10    11.404     3.746    0.20E-04    0.24E-04    0.43E-07
   1     10    11.404     4.362    0.22E-03    0.97E-04    0.22E-06
   2     10    11.404     5.782    0.83E-04    0.62E-05    0.27E-06
   2     10    11.404    65.505    0.42E-03    0.31E-04    0.12E-05
 Optimization of the real space projectors (new method)

 maximal supplied QI-value         = 19.84
 optimisation between [QCUT,QGAM] = [ 11.31, 22.82] = [ 35.82,145.81] Ry 
 Optimized for a Real-space Cutoff    1.16 Angstroem

   l    n(q)    QCUT    max X(q) W(low)/X(q) W(high)/X(q)  e(spline) 
   0      8    11.310     8.708    0.14E-04    0.11E-04    0.43E-08
   0      8    11.310   106.241    0.27E-03    0.30E-03    0.38E-07
   1      7    11.310     5.901    0.82E-05    0.48E-04    0.19E-07
   1      7    11.310    73.241    0.27E-03    0.27E-03    0.74E-07
 PAW_PBE Ba_sv 06Sep2000                :
 energy of atom  1       EATOM= -700.2255
 kinetic energy error for atom=    0.0005 (will be added to EATOM!!)
 PAW_PBE Si 05Jan2001                   :
 energy of atom  2       EATOM= -103.0669
 kinetic energy error for atom=    0.0006 (will be added to EATOM!!)
 
 
 POSCAR: ba8 si16                                
  positions in direct lattice
  velocities in cartesian coordinates
 exchange correlation table for  LEXCH =        8
   RHO(1)=    0.500       N(1)  =     2000
   RHO(2)=  100.500       N(2)  =     4000
 


--------------------------------------------------------------------------------------------------------


 ion  position               nearest neighbor table
   1  0.006  0.250  0.706-  21 3.40  16 3.45  11 3.45  17 3.65  17 3.65   5 4.38   5 4.38   7 4.63

   2  0.376  0.750  0.294-  22 3.40  12 3.45  15 3.45  18 3.65  18 3.65   6 4.38   6 4.38   8 4.63

   3  0.182  0.750  0.187-  20 3.31   9 3.45  14 3.45  22 3.47  12 3.48  15 3.48  19 3.64  19 3.64
                            23 3.75   5 4.28   7 4.38   7 4.38
   4  0.200  0.250  0.813-  19 3.31  13 3.45  10 3.45  21 3.47  16 3.48  11 3.48  20 3.64  20 3.64
                            24 3.75   6 4.28   8 4.38   8 4.38
   5  0.060  0.750  0.918-   9 3.44  14 3.44  21 3.45  21 3.45  11 3.49  16 3.49  17 3.75   3 4.28
                             1 4.38   1 4.38
   6  0.322  0.250  0.082-  13 3.44  10 3.44  22 3.45  22 3.45  15 3.49  12 3.49  18 3.75   4 4.28
                             2 4.38   2 4.38
   7  0.128  0.250  0.398-  14 3.44   9 3.44  23 3.53  23 3.53  15 3.61  12 3.61  24 3.67  19 3.70
                            16 3.75  11 3.75   3 4.38   3 4.38   1 4.63
   8  0.254  0.750  0.602-  10 3.44  13 3.44  24 3.53  24 3.53  11 3.61  16 3.61  23 3.67  20 3.70
                            12 3.75  15 3.75   4 4.38   4 4.38   2 4.63
   9  0.073  0.073  0.145-  14 2.40  21 2.43  19 2.44   7 3.44   5 3.44   3 3.45
  10  0.309  0.927  0.855-  13 2.40  22 2.43  20 2.44   8 3.44   6 3.44   4 3.45
  11  0.115  0.928  0.659-  16 2.41  23 2.43  17 2.44   1 3.45   4 3.48   5 3.49   8 3.61   7 3.75

  12  0.267  0.072  0.341-  15 2.41  24 2.43  18 2.44   2 3.45   3 3.48   6 3.49   7 3.61   8 3.75

  13  0.309  0.573  0.855-  10 2.40  22 2.43  20 2.44   8 3.44   6 3.44   4 3.45
  14  0.073  0.427  0.145-   9 2.40  21 2.43  19 2.44   7 3.44   5 3.44   3 3.45
  15  0.267  0.428  0.341-  12 2.41  24 2.43  18 2.44   2 3.45   3 3.48   6 3.49   7 3.61   8 3.75

  16  0.115  0.572  0.659-  11 2.41  23 2.43  17 2.44   1 3.45   4 3.48   5 3.49   8 3.61   7 3.75

  17  0.031  0.750  0.600-  23 2.44  11 2.44  16 2.44   1 3.65   1 3.65   5 3.75
  18  0.350  0.250  0.400-  24 2.44  15 2.44  12 2.44   2 3.65   2 3.65   6 3.75
  19  0.157  0.250  0.084-  21 2.43  14 2.44   9 2.44   4 3.31   3 3.64   3 3.64   7 3.70
  20  0.225  0.750  0.916-  22 2.43  10 2.44  13 2.44   3 3.31   4 3.64   4 3.64   8 3.70
  21  0.074  0.250  0.963-  19 2.43  14 2.43   9 2.43   1 3.40   5 3.45   5 3.45   4 3.47
  22  0.307  0.750  0.037-  20 2.43  10 2.43  13 2.43   2 3.40   6 3.45   6 3.45   3 3.47
  23  0.113  0.750  0.477-  11 2.43  16 2.43  17 2.44   7 3.53   7 3.53   8 3.67   3 3.75
  24  0.268  0.250  0.523-  15 2.43  12 2.43  18 2.44   8 3.53   8 3.53   7 3.67   4 3.75
 
  LATTYP: Found a simple orthorhombic cell.
 ALAT       =     6.7778496742
 B/A-ratio  =     1.7117734747
 C/A-ratio  =     3.5423429602
  
  Lattice vectors:
  
 A1 = (   0.0000000000,   6.7778496742,   0.0000000000)
 A2 = (   0.0000000000,   0.0000000000, -11.6021432877)
 A3 = ( -24.0094680786,   0.0000000000,   0.0000000000)


Analysis of symmetry for initial positions (statically):
=====================================================================
 Subroutine PRICEL returns:
 Original cell was already a primitive cell.
 

 Routine SETGRP: Setting up the symmetry group for a 
 simple orthorhombic supercell.


 Subroutine GETGRP returns: Found  4 space group operations
 (whereof  1 operations were pure point group operations)
 out of a pool of  8 trial point group operations.


The static configuration has the point symmetry C_1 .
 The point group associated with its full space group is C_2h.


Analysis of symmetry for dynamics (positions and initial velocities):
=====================================================================
 Subroutine PRICEL returns:
 Original cell was already a primitive cell.
 

 Routine SETGRP: Setting up the symmetry group for a 
 simple orthorhombic supercell.


 Subroutine GETGRP returns: Found  4 space group operations
 (whereof  1 operations were pure point group operations)
 out of a pool of  8 trial point group operations.


The dynamic configuration has the point symmetry C_1 .
 The point group associated with its full space group is C_2h.


Analysis of constrained symmetry for selective dynamics:
=====================================================================
 Subroutine PRICEL returns:
 Original cell was already a primitive cell.
 

 Routine SETGRP: Setting up the symmetry group for a 
 simple orthorhombic supercell.


 Subroutine GETGRP returns: Found  4 space group operations
 (whereof  1 operations were pure point group operations)
 out of a pool of  8 trial point group operations.


The constrained configuration has the point symmetry C_1 .
 The point group associated with its full space group is C_2h.


 Subroutine INISYM returns: Found  4 space group operations
 (whereof  1 operations are pure point group operations),
 and found     1 'primitive' translations

 
 
 KPOINTS: k-density: 8.0                          

Automatic generation of k-mesh.
Space group operators:
 irot       det(A)        alpha          n_x          n_y          n_z        tau_x        tau_y        tau_z
    1     1.000000     0.000000     1.000000     0.000000     0.000000     0.000000     0.000000     0.000000
    2    -1.000000     0.000000     1.000000     0.000000     0.000000    -0.618506     0.000000     0.000000
    3     1.000000   180.000000     0.000000     1.000000     0.000000    -0.618506     0.500000     0.000000
    4    -1.000000   180.000000     0.000000     1.000000     0.000000     0.000000     0.500000     0.000000
 
 Subroutine IBZKPT returns following result:
 ===========================================
 
 Found     15 irreducible k-points:
 
 Following reciprocal coordinates:
            Coordinates               Weight
  0.000000  0.000000  0.000000      1.000000
  0.000000  0.125000  0.000000      2.000000
  0.000000  0.250000  0.000000      2.000000
  0.000000  0.375000  0.000000      2.000000
  0.000000  0.500000  0.000000      1.000000
  0.000000  0.000000  0.200000      2.000000
  0.000000  0.125000  0.200000      4.000000
  0.000000  0.250000  0.200000      4.000000
  0.000000  0.375000  0.200000      4.000000
  0.000000  0.500000  0.200000      2.000000
  0.000000  0.000000  0.400000      2.000000
  0.000000  0.125000  0.400000      4.000000
  0.000000  0.250000  0.400000      4.000000
  0.000000  0.375000  0.400000      4.000000
  0.000000  0.500000  0.400000      2.000000
 
 Following cartesian coordinates:
            Coordinates               Weight
  0.000000  0.000000  0.000000      1.000000
  0.000000  0.018442  0.000000      2.000000
  0.000000  0.036885  0.000000      2.000000
  0.000000  0.055327  0.000000      2.000000
  0.000000  0.073770  0.000000      1.000000
  0.000000  0.000000  0.017238      2.000000
  0.000000  0.018442  0.017238      4.000000
  0.000000  0.036885  0.017238      4.000000
  0.000000  0.055327  0.017238      4.000000
  0.000000  0.073770  0.017238      2.000000
  0.000000  0.000000  0.034476      2.000000
  0.000000  0.018442  0.034476      4.000000
  0.000000  0.036885  0.034476      4.000000
  0.000000  0.055327  0.034476      4.000000
  0.000000  0.073770  0.034476      2.000000
 
 TETIRR: Found    108 inequivalent tetrahedra from      240


--------------------------------------------------------------------------------------------------------




 Dimension of arrays:
   k-points           NKPTS =     15   k-points in BZ     NKDIM =     15   number of bands    NBANDS=     88
   number of dos      NEDOS =    301   number of ions     NIONS =     24
   non local maximal  LDIM  =      6   non local SUM 2l+1 LMDIM =     18
   total plane-waves  NPLWV = 358400
   max r-space proj   IRMAX =   3093   max aug-charges    IRDMAX=  12081
   dimension x,y,z NGX =   140 NGY =   40 NGZ =   64
   dimension x,y,z NGXF=   280 NGYF=   80 NGZF=  128
   support grid    NGXF=   280 NGYF=   80 NGZF=  128
   ions per type =               8  16
   NGX,Y,Z   is equivalent  to a cutoff of   9.69,  9.81,  9.17 a.u.
   NGXF,Y,Z  is equivalent  to a cutoff of  19.39, 19.62, 18.34 a.u.

 SYSTEM =  unknown system                          
 POSCAR =  ba8 si16                                

 Startparameter for this run:
   NWRITE =      2    write-flag & timer
   PREC   = normal    normal or accurate (medium, high low for compatibility)
   ISTART =      0    job   : 0-new  1-cont  2-samecut
   ICHARG =      2    charge: 1-file 2-atom 10-const
   ISPIN  =      1    spin polarized calculation?
   LNONCOLLINEAR =      F non collinear calculations
   LSORBIT =      F    spin-orbit coupling
   INIWAV =      1    electr: 0-lowe 1-rand  2-diag
   LASPH  =      F    aspherical Exc in radial PAW
   METAGGA=      F    non-selfconsistent MetaGGA calc.

 Electronic Relaxation 1
   ENCUT  =  500.0 eV  36.75 Ry    6.06 a.u.  43.77 12.36 21.15*2*pi/ulx,y,z
   ENINI  =  500.0     initial cutoff
   ENAUG  =  351.2 eV  augmentation charge cutoff
   NELM   =    100;   NELMIN=  2; NELMDL= -5     # of ELM steps 
   EDIFF  = 0.1E-05   stopping-criterion for ELM
   LREAL  =      T    real-space projection
   NLSPLINE    = F    spline interpolate recip. space projectors
   LCOMPAT=      F    compatible to vasp.4.4
   GGA_COMPAT  = T    GGA compatible to vasp.4.4-vasp.4.6
   LMAXPAW     = -100 max onsite density
   LMAXMIX     =    2 max onsite mixed and CHGCAR
   VOSKOWN=      0    Vosko Wilk Nusair interpolation
   ROPT   =   -0.00050  -0.00050
 Ionic relaxation
   EDIFFG = -.1E-02   stopping-criterion for IOM
   NSW    =      0    number of steps for IOM
   NBLOCK =      1;   KBLOCK =      1    inner block; outer block 
   IBRION =     -1    ionic relax: 0-MD 1-quasi-New 2-CG
   NFREE  =      0    steps in history (QN), initial steepest desc. (CG)
   ISIF   =      2    stress and relaxation
   IWAVPR =     10    prediction:  0-non 1-charg 2-wave 3-comb
   ISYM   =      2    0-nonsym 1-usesym 2-fastsym
   LCORR  =      T    Harris-Foulkes like correction to forces

   POTIM  = 0.3000    time-step for ionic-motion
   TEIN   =    0.0    initial temperature
   TEBEG  =    0.0;   TEEND  =   0.0 temperature during run
   SMASS  =  -3.00    Nose mass-parameter (am)
   estimated Nose-frequenzy (Omega)   =  0.10E-29 period in steps =****** mass=  -0.132E-25a.u.
   SCALEE = 1.0000    scale energy and forces
   NPACO  =    256;   APACO  = 16.0  distance and # of slots for P.C.
   PSTRESS=    0.0 pullay stress

  Mass of Ions in am
   POMASS = 137.33 28.09
  Ionic Valenz
   ZVAL   =  10.00  4.00
  Atomic Wigner-Seitz radii
   RWIGS  =  -1.00 -1.00
  virtual crystal weights 
   VCA    =   1.00  1.00
   NELECT =     144.0000    total number of electrons
   NUPDOWN=      -1.0000    fix difference up-down

 DOS related values:
   EMIN   =  10.00;   EMAX   =-10.00  energy-range for DOS
   EFERMI =   0.00
   ISMEAR =    -5;   SIGMA  =   0.01  broadening in eV -4-tet -1-fermi 0-gaus

 Electronic relaxation 2 (details)
   IALGO  =     38    algorithm
   LDIAG  =      T    sub-space diagonalisation (order eigenvalues)
   LSUBROT=      F    optimize rotation matrix (better conditioning)
   TURBO    =      0    0=normal 1=particle mesh
   IRESTART =      0    0=no restart 2=restart with 2 vectors
   NREBOOT  =      0    no. of reboots
   NMIN     =      0    reboot dimension
   EREF     =   0.00    reference energy to select bands
   IMIX   =      4    mixing-type and parameters
     AMIX     =   0.40;   BMIX     =  1.00
     AMIX_MAG =   1.60;   BMIX_MAG =  1.00
     AMIN     =   0.10
     WC   =   100.;   INIMIX=   1;  MIXPRE=   1;  MAXMIX= -45

 Intra band minimization:
   WEIMIN = 0.0000     energy-eigenvalue tresh-hold
   EBREAK =  0.28E-08  absolut break condition
   DEPER  =   0.30     relativ break condition  

   TIME   =   0.40     timestep for ELM

  volume/ion in A,a.u.               =      78.67       530.88
  Fermi-wavevector in a.u.,A,eV,Ry     =   0.694264  1.311969  6.558046  0.482003
  Thomas-Fermi vector in A             =   1.776709
 
 Write flags
   LWAVE        =      T    write WAVECAR
   LDOWNSAMPLE  =      F    k-point downsampling of WAVECAR
   LCHARG       =      T    write CHGCAR
   LVTOT        =      F    write LOCPOT, total local potential
   LVHAR        =      F    write LOCPOT, Hartree potential only
   LELF         =      F    write electronic localiz. function (ELF)
   LORBIT       =      0    0 simple, 1 ext, 2 COOP (PROOUT), +10 PAW based schemes


 Dipole corrections
   LMONO  =      F    monopole corrections only (constant potential shift)
   LDIPOL =      F    correct potential (dipole corrections)
   IDIPOL =      0    1-x, 2-y, 3-z, 4-all directions 
   EPSILON=  1.0000000 bulk dielectric constant

 Exchange correlation treatment:
   GGA     =    --    GGA type
   LEXCH   =     8    internal setting for exchange type
   VOSKOWN=      0    Vosko Wilk Nusair interpolation
   LHFCALC =     F    Hartree Fock is set to
   LHFONE  =     F    Hartree Fock one center treatment
   AEXX    =    0.0000 exact exchange contribution

 Linear response parameters
   LEPSILON=     F    determine dielectric tensor
   LRPA    =     F    only Hartree local field effects (RPA)
   LNABLA  =     F    use nabla operator in PAW spheres
   LVEL    =     F    velocity operator in full k-point grid
   LINTERFAST=   F  fast interpolation
   KINTER  =     0    interpolate to denser k-point grid
   CSHIFT  =0.1000    complex shift for real part using Kramers Kronig
   OMEGAMAX=  -1.0    maximum frequency
   DEG_THRESHOLD= 0.2000000E-02 threshold for treating states as degnerate
   RTIME   =   -0.100 relaxation time in fs
  (WPLASMAI=    0.000 imaginary part of plasma frequency in eV, 0.658/RTIME)
   DFIELD  = 0.0000000 0.0000000 0.0000000 field for delta impulse in time
 
 Orbital magnetization related:
   ORBITALMAG=     F  switch on orbital magnetization
   LCHIMAG   =     F  perturbation theory with respect to B field
   DQ        =  0.001000  dq finite difference perturbation B field
   LLRAUG    =     F  two centre corrections for induced B field



--------------------------------------------------------------------------------------------------------


 Static calculation
 charge density and potential will be updated during run
 non-spin polarized calculation
 Variant of blocked Davidson
 Davidson routine will perform the subspace rotation
 perform sub-space diagonalisation
    after iterative eigenvector-optimisation
 modified Broyden-mixing scheme, WC =      100.0
 initial mixing is a Kerker type mixing with AMIX =  0.4000 and BMIX =      1.0000
 Hartree-type preconditioning will be used
 using additional bands           16
 real space projection scheme for non local part
 use partial core corrections
 calculate Harris-corrections to forces 
   (improved forces if not selfconsistent)
 use gradient corrections 
 use of overlap-Matrix (Vanderbilt PP)
 Fermi weights with tetrahedron method with Bloechl corrections


--------------------------------------------------------------------------------------------------------


  energy-cutoff  :      500.00
  volume of cell :     1888.05
      direct lattice vectors                 reciprocal lattice vectors
    24.009468079  0.000000000  0.000000000     0.041650236  0.000000000  0.000000000
     0.000000000  6.777849674  0.000000000     0.000000000  0.147539419  0.000000000
     0.000000000  0.000000000 11.602143288     0.000000000  0.000000000  0.086190971

  length of vectors
    24.009468079  6.777849674 11.602143288     0.041650236  0.147539419  0.086190971


 
 k-points in units of 2pi/SCALE and weight: k-density: 8.0                          
   0.00000000  0.00000000  0.00000000       0.025
   0.00000000  0.01844243  0.00000000       0.050
   0.00000000  0.03688485  0.00000000       0.050
   0.00000000  0.05532728  0.00000000       0.050
   0.00000000  0.07376971  0.00000000       0.025
   0.00000000  0.00000000  0.01723819       0.050
   0.00000000  0.01844243  0.01723819       0.100
   0.00000000  0.03688485  0.01723819       0.100
   0.00000000  0.05532728  0.01723819       0.100
   0.00000000  0.07376971  0.01723819       0.050
   0.00000000  0.00000000  0.03447639       0.050
   0.00000000  0.01844243  0.03447639       0.100
   0.00000000  0.03688485  0.03447639       0.100
   0.00000000  0.05532728  0.03447639       0.100
   0.00000000  0.07376971  0.03447639       0.050
 
 k-points in reciprocal lattice and weights: k-density: 8.0                          
   0.00000000  0.00000000  0.00000000       0.025
   0.00000000  0.12500000  0.00000000       0.050
   0.00000000  0.25000000  0.00000000       0.050
   0.00000000  0.37500000  0.00000000       0.050
   0.00000000  0.50000000  0.00000000       0.025
   0.00000000  0.00000000  0.20000000       0.050
   0.00000000  0.12500000  0.20000000       0.100
   0.00000000  0.25000000  0.20000000       0.100
   0.00000000  0.37500000  0.20000000       0.100
   0.00000000  0.50000000  0.20000000       0.050
   0.00000000  0.00000000  0.40000000       0.050
   0.00000000  0.12500000  0.40000000       0.100
   0.00000000  0.25000000  0.40000000       0.100
   0.00000000  0.37500000  0.40000000       0.100
   0.00000000  0.50000000  0.40000000       0.050
 
 position of ions in fractional coordinates (direct lattice) 
   0.00569361  0.25000000  0.70593949
   0.37580039  0.75000002  0.29406051
   0.18192962  0.75000002  0.18655817
   0.19956438  0.25000000  0.81344181
   0.05978014  0.75000002  0.91791145
   0.32171386  0.25000000  0.08208853
   0.12784309  0.25000000  0.39769106
   0.25365091  0.75000002  0.60230898
   0.07289913  0.07285686  0.14463723
   0.30859487  0.92714314  0.85536275
   0.11472410  0.92812166  0.65928619
   0.26676990  0.07187834  0.34071381
   0.30859487  0.57285686  0.85536275
   0.07289913  0.42714314  0.14463723
   0.26676990  0.42812166  0.34071381
   0.11472410  0.57187834  0.65928619
   0.03110981  0.75000002  0.60031853
   0.35038419  0.25000000  0.39968147
   0.15651343  0.25000000  0.08427779
   0.22498058  0.75000002  0.91572219
   0.07418398  0.25000000  0.96270733
   0.30731002  0.75000002  0.03729269
   0.11343925  0.75000002  0.47730980
   0.26805475  0.25000000  0.52269012
 
 position of ions in cartesian coordinates  (Angst):
   0.13670066  1.69446242  8.19041107
   9.02276745  5.08338737  3.41173222
   4.36803341  5.08338737  2.16447462
   4.79143467  1.69446242  9.43766843
   1.43528938  5.08338737 10.64974017
   7.72417870  1.69446242  0.95240288
   3.06944466  1.69446242  4.61406862
   6.09002342  5.08338737  6.98807514
   1.75026941  0.49381282  1.67810186
   7.40919867  6.28403680  9.92404119
   2.75446463  6.29066906  7.64913284
   6.40500345  0.48718056  3.95301045
   7.40919867  3.88273771  9.92404119
   1.75026941  2.89511196  1.67810186
   6.40500345  2.90174422  3.95301045
   2.75446463  3.87610545  7.64913284
   0.74692994  5.08338737  6.96498157
   8.41253796  1.69446242  4.63716172
   3.75780416  1.69446242  0.97780298
   5.40166416  5.08338737 10.62434007
   1.78111780  1.69446242 11.16946836
   7.37835016  5.08338737  0.43267510
   2.72361612  5.08338737  5.53781666
   6.43585196  1.69446242  6.06432568
 


--------------------------------------------------------------------------------------------------------


 k-point  1 :   0.0000 0.0000 0.0000  plane waves:   47989
 k-point  2 :   0.0000 0.1250 0.0000  plane waves:   47929
 k-point  3 :   0.0000 0.2500 0.0000  plane waves:   47901
 k-point  4 :   0.0000 0.3750 0.0000  plane waves:   47910
 k-point  5 :   0.0000 0.5000 0.0000  plane waves:   47868
 k-point  6 :   0.0000 0.0000 0.2000  plane waves:   48006
 k-point  7 :   0.0000 0.1250 0.2000  plane waves:   47967
 k-point  8 :   0.0000 0.2500 0.2000  plane waves:   47907
 k-point  9 :   0.0000 0.3750 0.2000  plane waves:   47884
 k-point 10 :   0.0000 0.5000 0.2000  plane waves:   47884
 k-point 11 :   0.0000 0.0000 0.4000  plane waves:   47922
 k-point 12 :   0.0000 0.1250 0.4000  plane waves:   47954
 k-point 13 :   0.0000 0.2500 0.4000  plane waves:   47967
 k-point 14 :   0.0000 0.3750 0.4000  plane waves:   47928
 k-point 15 :   0.0000 0.5000 0.4000  plane waves:   47890

 maximum and minimum number of plane-waves per node :     12077    11868

 maximum number of plane-waves:     48006
 maximum index in each direction: 
   IXMAX=   43   IYMAX=   12   IZMAX=   21
   IXMIN=  -43   IYMIN=  -12   IZMIN=  -21


 real space projection operators:
  total allocation   :       4535.17 KBytes
  max/ min on nodes  :       1136.00       1130.72


 parallel 3D FFT for wavefunctions:
    minimum data exchange during FFTs selected (reduces bandwidth)
 parallel 3D FFT for charge:
    minimum data exchange during FFTs selected (reduces bandwidth)


 total amount of memory used by VASP MPI-rank0    79350. kBytes
=======================================================================

   base      :      30000. kBytes
   nonlr-proj:       2644. kBytes
   fftplans  :       5898. kBytes
   grid      :       8824. kBytes
   one-center:         93. kBytes
   wavefun   :      31891. kBytes
 
     INWAV:  cpu time    0.0001: real time    0.0003
 Broyden mixing: mesh for mixing (old mesh)
   NGX = 87   NGY = 25   NGZ = 43
  (NGX  =280   NGY  = 80   NGZ  =128)
  gives a total of  93525 points

 initial charge density was supplied:
 charge density of overlapping atoms calculated
 number of electron     144.0000000 magnetization 
 keeping initial charge density in first step


--------------------------------------------------------------------------------------------------------


 Maximum index for non-local projection operator          753
 Maximum index for augmentation-charges          601 (set IRDMAX)


--------------------------------------------------------------------------------------------------------


 First call to EWALD:  gamma=   0.143
 Maximum number of real-space cells 2x 5x 3
 Maximum number of reciprocal cells 5x 2x 3

    FEWALD:  cpu time    0.0022: real time    0.0022


--------------------------------------- Iteration      1(   1)  ---------------------------------------


    POTLOK:  cpu time    0.0677: real time    0.1049
    SETDIJ:  cpu time    0.0025: real time    0.0027
     EDDAV:  cpu time    2.7056: real time    2.7187
 BZINTS: Fermi energy:  7.072153;144.000000 electrons
         Band energy:-463.000805;  BLOECHL correction: -0.027121
       DOS:  cpu time    0.0116: real time    0.0119
    --------------------------------------------
      LOOP:  cpu time    2.7875: real time    2.8382

 eigenvalue-minimisations  :  2768
 total energy-change (2. order) : 0.1191146E+04  (-0.4786178E+04)
 number of electron     144.0000000 magnetization 
 augmentation part      144.0000000 magnetization 

 Free energy of the ion-electron system (eV)
  ---------------------------------------------------
  alpha Z        PSCENC =       170.45750602
  Ewald energy   TEWEN  =     12153.61275403
  -Hartree energ DENC   =    -18265.07603427
  -exchange      EXHF   =         0.00000000
  -V(xc)+E(xc)   XCENC  =        42.63286018
  PAW double counting   =      3692.15173346    -3390.49189382
  entropy T*S    EENTRO =         0.00000000
  eigenvalues    EBANDS =      -463.00080506
  atomic energy  EATOM  =      7250.85976021
  Solvation  Ediel_sol  =         0.00000000
  ---------------------------------------------------
  free energy    TOTEN  =      1191.14588075 eV

  energy without entropy =     1191.14588075  energy(sigma->0) =     1191.14588075


--------------------------------------------------------------------------------------------------------




--------------------------------------- Iteration      1(   2)  ---------------------------------------


     EDDAV:  cpu time    3.2323: real time    3.2506
 BZINTS: Fermi energy: -1.994639;144.000000 electrons
         Band energy:***********;  BLOECHL correction:  0.000000
       DOS:  cpu time    0.0021: real time    0.0021
    --------------------------------------------
      LOOP:  cpu time    3.2344: real time    3.2528

 eigenvalue-minimisations  :  3800
 total energy-change (2. order) :-0.1128913E+04  (-0.1099633E+04)
 number of electron     144.0000000 magnetization 
 augmentation part      144.0000000 magnetization 

 Free energy of the ion-electron system (eV)
  ---------------------------------------------------
  alpha Z        PSCENC =       170.45750602
  Ewald energy   TEWEN  =     12153.61275403
  -Hartree energ DENC   =    -18265.07603427
  -exchange      EXHF   =         0.00000000
  -V(xc)+E(xc)   XCENC  =        42.63286018
  PAW double counting   =      3692.15173346    -3390.49189382
  entropy T*S    EENTRO =         0.00000000
  eigenvalues    EBANDS =     -1591.91401568
  atomic energy  EATOM  =      7250.85976021
  Solvation  Ediel_sol  =         0.00000000
  ---------------------------------------------------
  free energy    TOTEN  =        62.23267013 eV

  energy without entropy =       62.23267013  energy(sigma->0) =       62.23267013


--------------------------------------------------------------------------------------------------------




--------------------------------------- Iteration      1(   3)  ---------------------------------------


     EDDAV:  cpu time    2.8915: real time    2.9092
 BZINTS: Fermi energy: -3.334811;144.000000 electrons
         Band energy:***********;  BLOECHL correction:  0.000000
       DOS:  cpu time    0.0020: real time    0.0020
    --------------------------------------------
      LOOP:  cpu time    2.8935: real time    2.9112

 eigenvalue-minimisations  :  3208
 total energy-change (2. order) :-0.1711991E+03  (-0.1705055E+03)
 number of electron     144.0000000 magnetization 
 augmentation part      144.0000000 magnetization 

 Free energy of the ion-electron system (eV)
  ---------------------------------------------------
  alpha Z        PSCENC =       170.45750602
  Ewald energy   TEWEN  =     12153.61275403
  -Hartree energ DENC   =    -18265.07603427
  -exchange      EXHF   =         0.00000000
  -V(xc)+E(xc)   XCENC  =        42.63286018
  PAW double counting   =      3692.15173346    -3390.49189382
  entropy T*S    EENTRO =         0.00000000
  eigenvalues    EBANDS =     -1763.11313442
  atomic energy  EATOM  =      7250.85976021
  Solvation  Ediel_sol  =         0.00000000
  ---------------------------------------------------
  free energy    TOTEN  =      -108.96644861 eV

  energy without entropy =     -108.96644861  energy(sigma->0) =     -108.96644861


--------------------------------------------------------------------------------------------------------




--------------------------------------- Iteration      1(   4)  ---------------------------------------


     EDDAV:  cpu time    3.3817: real time    3.4013
 BZINTS: Fermi energy: -3.432754;144.000000 electrons
         Band energy:***********;  BLOECHL correction:  0.000000
       DOS:  cpu time    0.0020: real time    0.0020
    --------------------------------------------
      LOOP:  cpu time    3.3838: real time    3.4033

 eigenvalue-minimisations  :  3768
 total energy-change (2. order) :-0.6012778E+01  (-0.5995991E+01)
 number of electron     144.0000000 magnetization 
 augmentation part      144.0000000 magnetization 

 Free energy of the ion-electron system (eV)
  ---------------------------------------------------
  alpha Z        PSCENC =       170.45750602
  Ewald energy   TEWEN  =     12153.61275403
  -Hartree energ DENC   =    -18265.07603427
  -exchange      EXHF   =         0.00000000
  -V(xc)+E(xc)   XCENC  =        42.63286018
  PAW double counting   =      3692.15173346    -3390.49189382
  entropy T*S    EENTRO =         0.00000000
  eigenvalues    EBANDS =     -1769.12591265
  atomic energy  EATOM  =      7250.85976021
  Solvation  Ediel_sol  =         0.00000000
  ---------------------------------------------------
  free energy    TOTEN  =      -114.97922684 eV

  energy without entropy =     -114.97922684  energy(sigma->0) =     -114.97922684


--------------------------------------------------------------------------------------------------------




--------------------------------------- Iteration      1(   5)  ---------------------------------------


     EDDAV:  cpu time    3.5206: real time    3.5396
 BZINTS: Fermi energy: -3.399580;144.000000 electrons
         Band energy:***********;  BLOECHL correction:  0.000000
       DOS:  cpu time    0.0022: real time    0.0022
    CHARGE:  cpu time    0.1525: real time    0.1530
    MIXING:  cpu time    0.0064: real time    0.0066
    --------------------------------------------
      LOOP:  cpu time    3.6817: real time    3.7015

 eigenvalue-minimisations  :  4176
 total energy-change (2. order) :-0.2807597E+00  (-0.2806650E+00)
 number of electron     143.9999990 magnetization 
 augmentation part      -17.5586163 magnetization 

 Broyden mixing:
  rms(total) = 0.90979E+00    rms(broyden)= 0.90979E+00
  rms(prec ) = 0.11924E+01
  weight for this iteration     100.00

 Free energy of the ion-electron system (eV)
  ---------------------------------------------------
  alpha Z        PSCENC =       170.45750602
  Ewald energy   TEWEN  =     12153.61275403
  -Hartree energ DENC   =    -18265.07603427
  -exchange      EXHF   =         0.00000000
  -V(xc)+E(xc)   XCENC  =        42.63286018
  PAW double counting   =      3692.15173346    -3390.49189382
  entropy T*S    EENTRO =         0.00000000
  eigenvalues    EBANDS =     -1769.40667240
  atomic energy  EATOM  =      7250.85976021
  Solvation  Ediel_sol  =         0.00000000
  ---------------------------------------------------
  free energy    TOTEN  =      -115.25998659 eV

  energy without entropy =     -115.25998659  energy(sigma->0) =     -115.25998659


--------------------------------------------------------------------------------------------------------




--------------------------------------- Iteration      1(   6)  ---------------------------------------


    POTLOK:  cpu time    0.0753: real time    0.0862
    SETDIJ:  cpu time    0.0020: real time    0.0020
     EDDAV:  cpu time    2.9841: real time    2.9912
 BZINTS: Fermi energy: -2.204868;144.000000 electrons
         Band energy:***********;  BLOECHL correction:  0.000000
       DOS:  cpu time    0.0023: real time    0.0023
    CHARGE:  cpu time    0.1577: real time    0.1581
    MIXING:  cpu time    0.0060: real time    0.0060
    --------------------------------------------
      LOOP:  cpu time    3.2275: real time    3.2459

 eigenvalue-minimisations  :  2992
 total energy-change (2. order) : 0.8238654E+01  (-0.2032295E+01)
 number of electron     143.9999990 magnetization 
 augmentation part      -17.4517150 magnetization 

 Broyden mixing:
  rms(total) = 0.46310E+00    rms(broyden)= 0.46310E+00
  rms(prec ) = 0.58578E+00
  weight for this iteration     100.00

 eigenvalues of (default mixing * dielectric matrix)
  average eigenvalue GAMMA=   1.5378
  1.5378

 Free energy of the ion-electron system (eV)
  ---------------------------------------------------
  alpha Z        PSCENC =       170.45750602
  Ewald energy   TEWEN  =     12153.61275403
  -Hartree energ DENC   =    -18362.34456163
  -exchange      EXHF   =         0.00000000
  -V(xc)+E(xc)   XCENC  =        45.37586959
  PAW double counting   =      3729.80952464    -3435.31072959
  entropy T*S    EENTRO =         0.00000000
  eigenvalues    EBANDS =     -1659.48145612
  atomic energy  EATOM  =      7250.85976021
  Solvation  Ediel_sol  =         0.00000000
  ---------------------------------------------------
  free energy    TOTEN  =      -107.02133286 eV

  energy without entropy =     -107.02133286  energy(sigma->0) =     -107.02133286


--------------------------------------------------------------------------------------------------------




--------------------------------------- Iteration      1(   7)  ---------------------------------------


    POTLOK:  cpu time    0.0578: real time    0.0688
    SETDIJ:  cpu time    0.0019: real time    0.0019
     EDDAV:  cpu time    3.2776: real time    3.2854
 BZINTS: Fermi energy: -1.376516;144.000000 electrons
         Band energy:***********;  BLOECHL correction:  0.000000
       DOS:  cpu time    0.0027: real time    0.0027
    CHARGE:  cpu time    0.1780: real time    0.1784
    MIXING:  cpu time    0.0053: real time    0.0056
    --------------------------------------------
      LOOP:  cpu time    3.5232: real time    3.5427

 eigenvalue-minimisations  :  3480
 total energy-change (2. order) : 0.1357522E+01  (-0.9674448E+00)
 number of electron     143.9999989 magnetization 
 augmentation part      -17.5364842 magnetization 

 Broyden mixing:
  rms(total) = 0.24380E+00    rms(broyden)= 0.24380E+00
  rms(prec ) = 0.29582E+00
  weight for this iteration     100.00

 eigenvalues of (default mixing * dielectric matrix)
  average eigenvalue GAMMA=   1.8429
  1.8429  1.8429

 Free energy of the ion-electron system (eV)
  ---------------------------------------------------
  alpha Z        PSCENC =       170.45750602
  Ewald energy   TEWEN  =     12153.61275403
  -Hartree energ DENC   =    -18442.41714135
  -exchange      EXHF   =         0.00000000
  -V(xc)+E(xc)   XCENC  =        47.64427128
  PAW double counting   =      3777.40057736    -3488.73504060
  entropy T*S    EENTRO =         0.00000000
  eigenvalues    EBANDS =     -1574.48649757
  atomic energy  EATOM  =      7250.85976021
  Solvation  Ediel_sol  =         0.00000000
  ---------------------------------------------------
  free energy    TOTEN  =      -105.66381061 eV

  energy without entropy =     -105.66381061  energy(sigma->0) =     -105.66381061


--------------------------------------------------------------------------------------------------------




--------------------------------------- Iteration      1(   8)  ---------------------------------------


    POTLOK:  cpu time    0.0615: real time    0.0723
    SETDIJ:  cpu time    0.0016: real time    0.0016
     EDDAV:  cpu time    2.8414: real time    2.8482
 BZINTS: Fermi energy: -1.249517;144.000000 electrons
         Band energy:***********;  BLOECHL correction:  0.000000
       DOS:  cpu time    0.0020: real time    0.0020
    CHARGE:  cpu time    0.1515: real time    0.1519
    MIXING:  cpu time    0.0050: real time    0.0053
    --------------------------------------------
      LOOP:  cpu time    3.0630: real time    3.0813

 eigenvalue-minimisations  :  3120
 total energy-change (2. order) : 0.2310983E+00  (-0.3467036E+00)
 number of electron     143.9999990 magnetization 
 augmentation part      -17.6619505 magnetization 

 Broyden mixing:
  rms(total) = 0.11504E+00    rms(broyden)= 0.11503E+00
  rms(prec ) = 0.18977E+00
  weight for this iteration     100.00

 eigenvalues of (default mixing * dielectric matrix)
  average eigenvalue GAMMA=   1.6752
  2.6084  1.2087  1.2087

 Free energy of the ion-electron system (eV)
  ---------------------------------------------------
  alpha Z        PSCENC =       170.45750602
  Ewald energy   TEWEN  =     12153.61275403
  -Hartree energ DENC   =    -18479.55722405
  -exchange      EXHF   =         0.00000000
  -V(xc)+E(xc)   XCENC  =        48.60188195
  PAW double counting   =      3826.84071417    -3540.00629631
  entropy T*S    EENTRO =         0.00000000
  eigenvalues    EBANDS =     -1536.24180838
  atomic energy  EATOM  =      7250.85976021
  Solvation  Ediel_sol  =         0.00000000
  ---------------------------------------------------
  free energy    TOTEN  =      -105.43271235 eV

  energy without entropy =     -105.43271235  energy(sigma->0) =     -105.43271235


--------------------------------------------------------------------------------------------------------




--------------------------------------- Iteration      1(   9)  ---------------------------------------


    POTLOK:  cpu time    0.0579: real time    0.0688
    SETDIJ:  cpu time    0.0015: real time    0.0015
     EDDAV:  cpu time    2.8855: real time    2.8923
 BZINTS: Fermi energy: -0.820955;144.000000 electrons
         Band energy:***********;  BLOECHL correction:  0.000000
       DOS:  cpu time    0.0023: real time    0.0023
    CHARGE:  cpu time    0.1475: real time    0.1479
    MIXING:  cpu time    0.0055: real time    0.0056
    --------------------------------------------
      LOOP:  cpu time    3.1002: real time    3.1184

 eigenvalue-minimisations  :  3112
 total energy-change (2. order) : 0.2760111E+00  (-0.1180228E+00)
 number of electron     143.9999989 magnetization 
 augmentation part      -17.6385903 magnetization 

 Broyden mixing:
  rms(total) = 0.57561E-01    rms(broyden)= 0.57560E-01
  rms(prec ) = 0.81952E-01
  weight for this iteration     100.00

 eigenvalues of (default mixing * dielectric matrix)
  average eigenvalue GAMMA=   1.4123
  2.5300  1.2081  1.2081  0.7030

 Free energy of the ion-electron system (eV)
  ---------------------------------------------------
  alpha Z        PSCENC =       170.45750602
  Ewald energy   TEWEN  =     12153.61275403
  -Hartree energ DENC   =    -18521.72488185
  -exchange      EXHF   =         0.00000000
  -V(xc)+E(xc)   XCENC  =        49.53705830
  PAW double counting   =      3838.26963626    -3552.79377043
  entropy T*S    EENTRO =         0.00000000
  eigenvalues    EBANDS =     -1493.37476375
  atomic energy  EATOM  =      7250.85976021
  Solvation  Ediel_sol  =         0.00000000
  ---------------------------------------------------
  free energy    TOTEN  =      -105.15670121 eV

  energy without entropy =     -105.15670121  energy(sigma->0) =     -105.15670121


--------------------------------------------------------------------------------------------------------




--------------------------------------- Iteration      1(  10)  ---------------------------------------


    POTLOK:  cpu time    0.0587: real time    0.0704
    SETDIJ:  cpu time    0.0015: real time    0.0015
     EDDAV:  cpu time    3.2575: real time    3.2652
 BZINTS: Fermi energy: -0.770716;144.000000 electrons
         Band energy:***********;  BLOECHL correction:  0.000000
       DOS:  cpu time    0.0023: real time    0.0023
    CHARGE:  cpu time    0.1505: real time    0.1509
    MIXING:  cpu time    0.0052: real time    0.0053
    --------------------------------------------
      LOOP:  cpu time    3.4758: real time    3.4956

 eigenvalue-minimisations  :  3488
 total energy-change (2. order) :-0.1702098E-01  (-0.2339875E-01)
 number of electron     143.9999989 magnetization 
 augmentation part      -17.6610502 magnetization 

 Broyden mixing:
  rms(total) = 0.41927E-01    rms(broyden)= 0.41927E-01
  rms(prec ) = 0.63275E-01
  weight for this iteration     100.00

 eigenvalues of (default mixing * dielectric matrix)
  average eigenvalue GAMMA=   1.6062
  2.4967  2.4967  1.0968  0.9704  0.9704

 Free energy of the ion-electron system (eV)
  ---------------------------------------------------
  alpha Z        PSCENC =       170.45750602
  Ewald energy   TEWEN  =     12153.61275403
  -Hartree energ DENC   =    -18531.27924765
  -exchange      EXHF   =         0.00000000
  -V(xc)+E(xc)   XCENC  =        49.53305164
  PAW double counting   =      3833.34097915    -3547.49677416
  entropy T*S    EENTRO =         0.00000000
  eigenvalues    EBANDS =     -1484.20175142
  atomic energy  EATOM  =      7250.85976021
  Solvation  Ediel_sol  =         0.00000000
  ---------------------------------------------------
  free energy    TOTEN  =      -105.17372219 eV

  energy without entropy =     -105.17372219  energy(sigma->0) =     -105.17372219


--------------------------------------------------------------------------------------------------------




--------------------------------------- Iteration      1(  11)  ---------------------------------------


    POTLOK:  cpu time    0.0557: real time    0.0672
    SETDIJ:  cpu time    0.0018: real time    0.0018
     EDDAV:  cpu time    2.8102: real time    2.8169
 BZINTS: Fermi energy: -0.645950;144.000000 electrons
         Band energy:***********;  BLOECHL correction:  0.000000
       DOS:  cpu time    0.0023: real time    0.0023
    CHARGE:  cpu time    0.1495: real time    0.1499
    MIXING:  cpu time    0.0052: real time    0.0052
    --------------------------------------------
      LOOP:  cpu time    3.0247: real time    3.0433

 eigenvalue-minimisations  :  3104
 total energy-change (2. order) : 0.8855089E-02  (-0.6664486E-02)
 number of electron     143.9999989 magnetization 
 augmentation part      -17.6649037 magnetization 

 Broyden mixing:
  rms(total) = 0.16638E-01    rms(broyden)= 0.16638E-01
  rms(prec ) = 0.33075E-01
  weight for this iteration     100.00

 eigenvalues of (default mixing * dielectric matrix)
  average eigenvalue GAMMA=   1.6240
  2.8232  2.8232  1.2306  0.9242  0.9715  0.9715

 Free energy of the ion-electron system (eV)
  ---------------------------------------------------
  alpha Z        PSCENC =       170.45750602
  Ewald energy   TEWEN  =     12153.61275403
  -Hartree energ DENC   =    -18551.46933564
  -exchange      EXHF   =         0.00000000
  -V(xc)+E(xc)   XCENC  =        49.71642992
  PAW double counting   =      3834.15802708    -3547.99581269
  entropy T*S    EENTRO =         0.00000000
  eigenvalues    EBANDS =     -1464.50419603
  atomic energy  EATOM  =      7250.85976021
  Solvation  Ediel_sol  =         0.00000000
  ---------------------------------------------------
  free energy    TOTEN  =      -105.16486710 eV

  energy without entropy =     -105.16486710  energy(sigma->0) =     -105.16486710


--------------------------------------------------------------------------------------------------------




--------------------------------------- Iteration      1(  12)  ---------------------------------------


    POTLOK:  cpu time    0.0598: real time    0.0711
    SETDIJ:  cpu time    0.0016: real time    0.0016
     EDDAV:  cpu time    2.9526: real time    2.9595
 BZINTS: Fermi energy: -0.568702;144.000000 electrons
         Band energy:***********;  BLOECHL correction:  0.000000
       DOS:  cpu time    0.0022: real time    0.0022
    CHARGE:  cpu time    0.1496: real time    0.1500
    MIXING:  cpu time    0.0050: real time    0.0051
    --------------------------------------------
      LOOP:  cpu time    3.1708: real time    3.1895

 eigenvalue-minimisations  :  3080
 total energy-change (2. order) :-0.4863598E-02  (-0.1584913E-02)
 number of electron     143.9999989 magnetization 
 augmentation part      -17.6589800 magnetization 

 Broyden mixing:
  rms(total) = 0.12474E-01    rms(broyden)= 0.12474E-01
  rms(prec ) = 0.21484E-01
  weight for this iteration     100.00

 eigenvalues of (default mixing * dielectric matrix)
  average eigenvalue GAMMA=   1.7830
  3.8428  2.5617  2.0131  1.1270  1.1270  0.9048  0.9048

 Free energy of the ion-electron system (eV)
  ---------------------------------------------------
  alpha Z        PSCENC =       170.45750602
  Ewald energy   TEWEN  =     12153.61275403
  -Hartree energ DENC   =    -18564.54164592
  -exchange      EXHF   =         0.00000000
  -V(xc)+E(xc)   XCENC  =        49.78803830
  PAW double counting   =      3831.86249545    -3545.56319677
  entropy T*S    EENTRO =         0.00000000
  eigenvalues    EBANDS =     -1451.64544202
  atomic energy  EATOM  =      7250.85976021
  Solvation  Ediel_sol  =         0.00000000
  ---------------------------------------------------
  free energy    TOTEN  =      -105.16973070 eV

  energy without entropy =     -105.16973070  energy(sigma->0) =     -105.16973070


--------------------------------------------------------------------------------------------------------




--------------------------------------- Iteration      1(  13)  ---------------------------------------


    POTLOK:  cpu time    0.0569: real time    0.0679
    SETDIJ:  cpu time    0.0016: real time    0.0016
     EDDAV:  cpu time    2.9914: real time    2.9985
 BZINTS: Fermi energy: -0.475691;144.000000 electrons
         Band energy:***********;  BLOECHL correction:  0.000000
       DOS:  cpu time    0.0021: real time    0.0021
    CHARGE:  cpu time    0.1445: real time    0.1448
    MIXING:  cpu time    0.0055: real time    0.0055
    --------------------------------------------
      LOOP:  cpu time    3.2019: real time    3.2203

 eigenvalue-minimisations  :  3232
 total energy-change (2. order) :-0.9845038E-02  (-0.1018611E-02)
 number of electron     143.9999989 magnetization 
 augmentation part      -17.6609164 magnetization 

 Broyden mixing:
  rms(total) = 0.64599E-02    rms(broyden)= 0.64599E-02
  rms(prec ) = 0.10983E-01
  weight for this iteration     100.00

 eigenvalues of (default mixing * dielectric matrix)
  average eigenvalue GAMMA=   1.8335
  4.2221  2.9164  2.4035  1.2251  1.2251  0.8965  0.8895  0.8895

 Free energy of the ion-electron system (eV)
  ---------------------------------------------------
  alpha Z        PSCENC =       170.45750602
  Ewald energy   TEWEN  =     12153.61275403
  -Hartree energ DENC   =    -18575.60157556
  -exchange      EXHF   =         0.00000000
  -V(xc)+E(xc)   XCENC  =        49.84305137
  PAW double counting   =      3830.05102712    -3543.85935901
  entropy T*S    EENTRO =         0.00000000
  eigenvalues    EBANDS =     -1440.54273992
  atomic energy  EATOM  =      7250.85976021
  Solvation  Ediel_sol  =         0.00000000
  ---------------------------------------------------
  free energy    TOTEN  =      -105.17957574 eV

  energy without entropy =     -105.17957574  energy(sigma->0) =     -105.17957574


--------------------------------------------------------------------------------------------------------




--------------------------------------- Iteration      1(  14)  ---------------------------------------


    POTLOK:  cpu time    0.0692: real time    0.0804
    SETDIJ:  cpu time    0.0016: real time    0.0016
     EDDAV:  cpu time    2.8758: real time    2.8826
 BZINTS: Fermi energy: -0.458384;144.000000 electrons
         Band energy:***********;  BLOECHL correction:  0.000000
       DOS:  cpu time    0.0019: real time    0.0019
    CHARGE:  cpu time    0.1427: real time    0.1430
    MIXING:  cpu time    0.0055: real time    0.0056
    --------------------------------------------
      LOOP:  cpu time    3.0966: real time    3.1151

 eigenvalue-minimisations  :  3136
 total energy-change (2. order) :-0.5563115E-02  (-0.2977527E-03)
 number of electron     143.9999989 magnetization 
 augmentation part      -17.6615860 magnetization 

 Broyden mixing:
  rms(total) = 0.54927E-02    rms(broyden)= 0.54927E-02
  rms(prec ) = 0.87906E-02
  weight for this iteration     100.00

 eigenvalues of (default mixing * dielectric matrix)
  average eigenvalue GAMMA=   1.8725
  4.6467  3.1584  2.0923  1.6613  1.4201  0.9137  0.9137  1.0230  1.0230

 Free energy of the ion-electron system (eV)
  ---------------------------------------------------
  alpha Z        PSCENC =       170.45750602
  Ewald energy   TEWEN  =     12153.61275403
  -Hartree energ DENC   =    -18579.00321792
  -exchange      EXHF   =         0.00000000
  -V(xc)+E(xc)   XCENC  =        49.84273637
  PAW double counting   =      3829.16213649    -3542.98254634
  entropy T*S    EENTRO =         0.00000000
  eigenvalues    EBANDS =     -1437.13426772
  atomic energy  EATOM  =      7250.85976021
  Solvation  Ediel_sol  =         0.00000000
  ---------------------------------------------------
  free energy    TOTEN  =      -105.18513885 eV

  energy without entropy =     -105.18513885  energy(sigma->0) =     -105.18513885


--------------------------------------------------------------------------------------------------------




--------------------------------------- Iteration      1(  15)  ---------------------------------------


    POTLOK:  cpu time    0.0590: real time    0.0700
    SETDIJ:  cpu time    0.0015: real time    0.0015
     EDDAV:  cpu time    2.8189: real time    2.8256
 BZINTS: Fermi energy: -0.449223;144.000000 electrons
         Band energy:***********;  BLOECHL correction:  0.000000
       DOS:  cpu time    0.0022: real time    0.0022
    CHARGE:  cpu time    0.1491: real time    0.1495
    MIXING:  cpu time    0.0068: real time    0.0069
    --------------------------------------------
      LOOP:  cpu time    3.0376: real time    3.0557

 eigenvalue-minimisations  :  3016
 total energy-change (2. order) :-0.2059042E-02  (-0.1845870E-03)
 number of electron     143.9999989 magnetization 
 augmentation part      -17.6633042 magnetization 

 Broyden mixing:
  rms(total) = 0.20578E-02    rms(broyden)= 0.20578E-02
  rms(prec ) = 0.39359E-02
  weight for this iteration     100.00

 eigenvalues of (default mixing * dielectric matrix)
  average eigenvalue GAMMA=   1.9679
  5.4229  3.6590  2.4523  1.7311  0.9108  0.9108  1.2752  1.2752  1.0208  1.0208

 Free energy of the ion-electron system (eV)
  ---------------------------------------------------
  alpha Z        PSCENC =       170.45750602
  Ewald energy   TEWEN  =     12153.61275403
  -Hartree energ DENC   =    -18580.64677312
  -exchange      EXHF   =         0.00000000
  -V(xc)+E(xc)   XCENC  =        49.83681201
  PAW double counting   =      3829.64592903    -3543.43353220
  entropy T*S    EENTRO =         0.00000000
  eigenvalues    EBANDS =     -1435.51965389
  atomic energy  EATOM  =      7250.85976021
  Solvation  Ediel_sol  =         0.00000000
  ---------------------------------------------------
  free energy    TOTEN  =      -105.18719790 eV

  energy without entropy =     -105.18719790  energy(sigma->0) =     -105.18719790


--------------------------------------------------------------------------------------------------------




--------------------------------------- Iteration      1(  16)  ---------------------------------------


    POTLOK:  cpu time    0.0644: real time    0.0759
    SETDIJ:  cpu time    0.0016: real time    0.0016
     EDDAV:  cpu time    2.8096: real time    2.8163
 BZINTS: Fermi energy: -0.442664;144.000000 electrons
         Band energy:***********;  BLOECHL correction:  0.000000
       DOS:  cpu time    0.0021: real time    0.0021
    CHARGE:  cpu time    0.1461: real time    0.1465
    MIXING:  cpu time    0.0067: real time    0.0068
    --------------------------------------------
      LOOP:  cpu time    3.0306: real time    3.0492

 eigenvalue-minimisations  :  3120
 total energy-change (2. order) :-0.1016716E-02  (-0.6587936E-04)
 number of electron     143.9999989 magnetization 
 augmentation part      -17.6632768 magnetization 

 Broyden mixing:
  rms(total) = 0.14921E-02    rms(broyden)= 0.14921E-02
  rms(prec ) = 0.26595E-02
  weight for this iteration     100.00

 eigenvalues of (default mixing * dielectric matrix)
  average eigenvalue GAMMA=   2.0231
  5.7195  4.0349  2.4747  1.8270  1.8270  0.9144  0.9144  1.2780  1.2780  0.9934
  0.9934

 Free energy of the ion-electron system (eV)
  ---------------------------------------------------
  alpha Z        PSCENC =       170.45750602
  Ewald energy   TEWEN  =     12153.61275403
  -Hartree energ DENC   =    -18581.97543029
  -exchange      EXHF   =         0.00000000
  -V(xc)+E(xc)   XCENC  =        49.83398001
  PAW double counting   =      3829.80847530    -3543.60511322
  entropy T*S    EENTRO =         0.00000000
  eigenvalues    EBANDS =     -1434.18014667
  atomic energy  EATOM  =      7250.85976021
  Solvation  Ediel_sol  =         0.00000000
  ---------------------------------------------------
  free energy    TOTEN  =      -105.18821461 eV

  energy without entropy =     -105.18821461  energy(sigma->0) =     -105.18821461


--------------------------------------------------------------------------------------------------------




--------------------------------------- Iteration      1(  17)  ---------------------------------------


    POTLOK:  cpu time    0.0616: real time    0.0725
    SETDIJ:  cpu time    0.0014: real time    0.0014
     EDDAV:  cpu time    2.8981: real time    2.9049
 BZINTS: Fermi energy: -0.438212;144.000000 electrons
         Band energy:***********;  BLOECHL correction:  0.000000
       DOS:  cpu time    0.0019: real time    0.0019
    CHARGE:  cpu time    0.1490: real time    0.1494
    MIXING:  cpu time    0.0056: real time    0.0057
    --------------------------------------------
      LOOP:  cpu time    3.1176: real time    3.1358

 eigenvalue-minimisations  :  3128
 total energy-change (2. order) :-0.4770252E-03  (-0.2520774E-04)
 number of electron     143.9999989 magnetization 
 augmentation part      -17.6631929 magnetization 

 Broyden mixing:
  rms(total) = 0.85990E-03    rms(broyden)= 0.85990E-03
  rms(prec ) = 0.16622E-02
  weight for this iteration     100.00

 eigenvalues of (default mixing * dielectric matrix)
  average eigenvalue GAMMA=   2.0407
  5.9806  4.3671  2.7441  2.1992  1.6778  0.9135  0.9135  1.3345  1.3345  0.9530
  1.0352  1.0352

 Free energy of the ion-electron system (eV)
  ---------------------------------------------------
  alpha Z        PSCENC =       170.45750602
  Ewald energy   TEWEN  =     12153.61275403
  -Hartree energ DENC   =    -18582.96356330
  -exchange      EXHF   =         0.00000000
  -V(xc)+E(xc)   XCENC  =        49.83601765
  PAW double counting   =      3829.80748457    -3543.60162910
  entropy T*S    EENTRO =         0.00000000
  eigenvalues    EBANDS =     -1433.19702172
  atomic energy  EATOM  =      7250.85976021
  Solvation  Ediel_sol  =         0.00000000
  ---------------------------------------------------
  free energy    TOTEN  =      -105.18869164 eV

  energy without entropy =     -105.18869164  energy(sigma->0) =     -105.18869164


--------------------------------------------------------------------------------------------------------




--------------------------------------- Iteration      1(  18)  ---------------------------------------


    POTLOK:  cpu time    0.0582: real time    0.0689
    SETDIJ:  cpu time    0.0016: real time    0.0016
     EDDAV:  cpu time    2.6874: real time    2.6937
 BZINTS: Fermi energy: -0.438230;144.000000 electrons
         Band energy:***********;  BLOECHL correction:  0.000000
       DOS:  cpu time    0.0019: real time    0.0019
    CHARGE:  cpu time    0.1554: real time    0.1558
    MIXING:  cpu time    0.0056: real time    0.0057
    --------------------------------------------
      LOOP:  cpu time    2.9101: real time    2.9277

 eigenvalue-minimisations  :  2944
 total energy-change (2. order) :-0.5932190E-03  (-0.1210481E-04)
 number of electron     143.9999989 magnetization 
 augmentation part      -17.6631023 magnetization 

 Broyden mixing:
  rms(total) = 0.54993E-03    rms(broyden)= 0.54993E-03
  rms(prec ) = 0.10220E-02
  weight for this iteration     100.00

 eigenvalues of (default mixing * dielectric matrix)
  average eigenvalue GAMMA=   2.1131
  6.3401  4.9162  2.9656  2.4672  1.8549  0.9126  0.9126  1.4275  1.4275  1.1622
  1.1622  0.9609  0.9609

 Free energy of the ion-electron system (eV)
  ---------------------------------------------------
  alpha Z        PSCENC =       170.45750602
  Ewald energy   TEWEN  =     12153.61275403
  -Hartree energ DENC   =    -18583.49925739
  -exchange      EXHF   =         0.00000000
  -V(xc)+E(xc)   XCENC  =        49.83733158
  PAW double counting   =      3829.80158086    -3543.59402183
  entropy T*S    EENTRO =         0.00000000
  eigenvalues    EBANDS =     -1432.66493835
  atomic energy  EATOM  =      7250.85976021
  Solvation  Ediel_sol  =         0.00000000
  ---------------------------------------------------
  free energy    TOTEN  =      -105.18928486 eV

  energy without entropy =     -105.18928486  energy(sigma->0) =     -105.18928486


--------------------------------------------------------------------------------------------------------




--------------------------------------- Iteration      1(  19)  ---------------------------------------


    POTLOK:  cpu time    0.0547: real time    0.0658
    SETDIJ:  cpu time    0.0015: real time    0.0015
     EDDAV:  cpu time    2.4460: real time    2.4518
 BZINTS: Fermi energy: -0.440865;144.000000 electrons
         Band energy:***********;  BLOECHL correction:  0.000000
       DOS:  cpu time    0.0020: real time    0.0020
    CHARGE:  cpu time    0.1477: real time    0.1480
    MIXING:  cpu time    0.0058: real time    0.0058
    --------------------------------------------
      LOOP:  cpu time    2.6576: real time    2.6749

 eigenvalue-minimisations  :  2640
 total energy-change (2. order) :-0.6152942E-03  (-0.6952272E-05)
 number of electron     143.9999989 magnetization 
 augmentation part      -17.6632211 magnetization 

 Broyden mixing:
  rms(total) = 0.42325E-03    rms(broyden)= 0.42325E-03
  rms(prec ) = 0.64046E-03
  weight for this iteration     100.00

 eigenvalues of (default mixing * dielectric matrix)
  average eigenvalue GAMMA=   2.2030
  6.6068  5.5807  3.3213  2.6925  2.1213  1.6181  1.6181  0.9127  0.9127  1.2283
  1.2283  0.9677  1.0169  1.0169

 Free energy of the ion-electron system (eV)
  ---------------------------------------------------
  alpha Z        PSCENC =       170.45750602
  Ewald energy   TEWEN  =     12153.61275403
  -Hartree energ DENC   =    -18583.82597823
  -exchange      EXHF   =         0.00000000
  -V(xc)+E(xc)   XCENC  =        49.83638033
  PAW double counting   =      3829.75484228    -3543.54574582
  entropy T*S    EENTRO =         0.00000000
  eigenvalues    EBANDS =     -1432.33941897
  atomic energy  EATOM  =      7250.85976021
  Solvation  Ediel_sol  =         0.00000000
  ---------------------------------------------------
  free energy    TOTEN  =      -105.18990015 eV

  energy without entropy =     -105.18990015  energy(sigma->0) =     -105.18990015


--------------------------------------------------------------------------------------------------------




--------------------------------------- Iteration      1(  20)  ---------------------------------------


    POTLOK:  cpu time    0.0570: real time    0.0683
    SETDIJ:  cpu time    0.0024: real time    0.0024
     EDDAV:  cpu time    2.4372: real time    2.4429
 BZINTS: Fermi energy: -0.445352;144.000000 electrons
         Band energy:***********;  BLOECHL correction:  0.000000
       DOS:  cpu time    0.0019: real time    0.0019
    CHARGE:  cpu time    0.1505: real time    0.1509
    MIXING:  cpu time    0.0091: real time    0.0092
    --------------------------------------------
      LOOP:  cpu time    2.6581: real time    2.6756

 eigenvalue-minimisations  :  2584
 total energy-change (2. order) :-0.4288526E-03  (-0.6927589E-05)
 number of electron     143.9999989 magnetization 
 augmentation part      -17.6632848 magnetization 

 Broyden mixing:
  rms(total) = 0.17355E-03    rms(broyden)= 0.17355E-03
  rms(prec ) = 0.25116E-03
  weight for this iteration     100.00

 eigenvalues of (default mixing * dielectric matrix)
  average eigenvalue GAMMA=   2.3051
  7.4266  6.3623  3.5358  3.0756  2.3439  1.6645  1.6645  0.9127  0.9127  1.2738
  1.2738  1.1042  1.1042  0.9606  0.9606

 Free energy of the ion-electron system (eV)
  ---------------------------------------------------
  alpha Z        PSCENC =       170.45750602
  Ewald energy   TEWEN  =     12153.61275403
  -Hartree energ DENC   =    -18583.96179907
  -exchange      EXHF   =         0.00000000
  -V(xc)+E(xc)   XCENC  =        49.83616733
  PAW double counting   =      3829.74546782    -3543.53628594
  entropy T*S    EENTRO =         0.00000000
  eigenvalues    EBANDS =     -1432.20389939
  atomic energy  EATOM  =      7250.85976021
  Solvation  Ediel_sol  =         0.00000000
  ---------------------------------------------------
  free energy    TOTEN  =      -105.19032900 eV

  energy without entropy =     -105.19032900  energy(sigma->0) =     -105.19032900


--------------------------------------------------------------------------------------------------------




--------------------------------------- Iteration      1(  21)  ---------------------------------------


    POTLOK:  cpu time    0.0925: real time    0.1033
    SETDIJ:  cpu time    0.0017: real time    0.0017
     EDDAV:  cpu time    2.3261: real time    2.3316
 BZINTS: Fermi energy: -0.450885;144.000000 electrons
         Band energy:***********;  BLOECHL correction:  0.000000
       DOS:  cpu time    0.0019: real time    0.0019
    CHARGE:  cpu time    0.1461: real time    0.1464
    MIXING:  cpu time    0.0077: real time    0.0078
    --------------------------------------------
      LOOP:  cpu time    2.5760: real time    2.5928

 eigenvalue-minimisations  :  2416
 total energy-change (2. order) :-0.1512470E-03  (-0.2266197E-05)
 number of electron     143.9999989 magnetization 
 augmentation part      -17.6632536 magnetization 

 Broyden mixing:
  rms(total) = 0.10593E-03    rms(broyden)= 0.10593E-03
  rms(prec ) = 0.12815E-03
  weight for this iteration     100.00

 eigenvalues of (default mixing * dielectric matrix)
  average eigenvalue GAMMA=   2.3694
  8.4441  6.6363  3.7342  3.1770  2.3827  1.8915  1.8915  0.9127  0.9127  1.3077
  1.3077  1.1860  1.1860  0.9766  0.9766  0.9877

 Free energy of the ion-electron system (eV)
  ---------------------------------------------------
  alpha Z        PSCENC =       170.45750602
  Ewald energy   TEWEN  =     12153.61275403
  -Hartree energ DENC   =    -18583.93661170
  -exchange      EXHF   =         0.00000000
  -V(xc)+E(xc)   XCENC  =        49.83554314
  PAW double counting   =      3829.74654555    -3543.53802861
  entropy T*S    EENTRO =         0.00000000
  eigenvalues    EBANDS =     -1432.22794889
  atomic energy  EATOM  =      7250.85976021
  Solvation  Ediel_sol  =         0.00000000
  ---------------------------------------------------
  free energy    TOTEN  =      -105.19048025 eV

  energy without entropy =     -105.19048025  energy(sigma->0) =     -105.19048025


--------------------------------------------------------------------------------------------------------




--------------------------------------- Iteration      1(  22)  ---------------------------------------


    POTLOK:  cpu time    0.0662: real time    0.0775
    SETDIJ:  cpu time    0.0015: real time    0.0015
     EDDAV:  cpu time    2.4641: real time    2.4700
 BZINTS: Fermi energy: -0.456155;144.000000 electrons
         Band energy:***********;  BLOECHL correction:  0.000000
       DOS:  cpu time    0.0020: real time    0.0020
    CHARGE:  cpu time    0.1507: real time    0.1511
    MIXING:  cpu time    0.0074: real time    0.0075
    --------------------------------------------
      LOOP:  cpu time    2.6919: real time    2.7095

 eigenvalue-minimisations  :  2416
 total energy-change (2. order) :-0.3314419E-04  (-0.2823716E-06)
 number of electron     143.9999989 magnetization 
 augmentation part      -17.6632477 magnetization 

 Broyden mixing:
  rms(total) = 0.50536E-04    rms(broyden)= 0.50536E-04
  rms(prec ) = 0.64344E-04
  weight for this iteration     100.00

 eigenvalues of (default mixing * dielectric matrix)
  average eigenvalue GAMMA=   2.3800
  8.9132  6.8672  3.8522  3.3238  2.5363  2.0990  1.7855  0.9127  0.9127  1.2758
  1.2758  1.3805  1.2415  1.0896  1.0896  0.9526  0.9526

 Free energy of the ion-electron system (eV)
  ---------------------------------------------------
  alpha Z        PSCENC =       170.45750602
  Ewald energy   TEWEN  =     12153.61275403
  -Hartree energ DENC   =    -18583.93932952
  -exchange      EXHF   =         0.00000000
  -V(xc)+E(xc)   XCENC  =        49.83535494
  PAW double counting   =      3829.73568806    -3543.52710208
  entropy T*S    EENTRO =         0.00000000
  eigenvalues    EBANDS =     -1432.22514506
  atomic energy  EATOM  =      7250.85976021
  Solvation  Ediel_sol  =         0.00000000
  ---------------------------------------------------
  free energy    TOTEN  =      -105.19051339 eV

  energy without entropy =     -105.19051339  energy(sigma->0) =     -105.19051339


--------------------------------------------------------------------------------------------------------




--------------------------------------- Iteration      1(  23)  ---------------------------------------


    POTLOK:  cpu time    0.0647: real time    0.0758
    SETDIJ:  cpu time    0.0018: real time    0.0018
     EDDAV:  cpu time    2.1982: real time    2.2034
 BZINTS: Fermi energy: -0.374649;144.000000 electrons
         Band energy:***********;  BLOECHL correction:  0.000000
       DOS:  cpu time    0.0026: real time    0.0026
    CHARGE:  cpu time    0.1461: real time    0.1464
    MIXING:  cpu time    0.0068: real time    0.0069
    --------------------------------------------
      LOOP:  cpu time    2.4201: real time    2.4369

 eigenvalue-minimisations  :  2120
 total energy-change (2. order) :-0.1695244E-04  (-0.1502513E-06)
 number of electron     143.9999989 magnetization 
 augmentation part      -17.6632485 magnetization 

 Broyden mixing:
  rms(total) = 0.23155E-04    rms(broyden)= 0.23155E-04
  rms(prec ) = 0.30131E-04
  weight for this iteration     100.00

 eigenvalues of (default mixing * dielectric matrix)
  average eigenvalue GAMMA=   2.3630
  8.9850  6.9737  3.6954  3.6954  2.5377  2.1081  1.8819  1.8819  0.9127  0.9127
  1.2670  1.2670  1.2083  1.2083  1.0544  0.9759  0.9759  0.9919

 Free energy of the ion-electron system (eV)
  ---------------------------------------------------
  alpha Z        PSCENC =       170.45750602
  Ewald energy   TEWEN  =     12153.61275403
  -Hartree energ DENC   =    -18583.93149985
  -exchange      EXHF   =         0.00000000
  -V(xc)+E(xc)   XCENC  =        49.83530386
  PAW double counting   =      3829.73657009    -3543.52800421
  entropy T*S    EENTRO =         0.00000000
  eigenvalues    EBANDS =     -1432.23292050
  atomic energy  EATOM  =      7250.85976021
  Solvation  Ediel_sol  =         0.00000000
  ---------------------------------------------------
  free energy    TOTEN  =      -105.19053035 eV

  energy without entropy =     -105.19053035  energy(sigma->0) =     -105.19053035


--------------------------------------------------------------------------------------------------------




--------------------------------------- Iteration      1(  24)  ---------------------------------------


    POTLOK:  cpu time    0.0690: real time    0.0802
    SETDIJ:  cpu time    0.0016: real time    0.0016
     EDDAV:  cpu time    2.0879: real time    2.0928
 BZINTS: Fermi energy: -0.379615;144.000000 electrons
         Band energy:***********;  BLOECHL correction:  0.000000
       DOS:  cpu time    0.0023: real time    0.0023
    CHARGE:  cpu time    0.1458: real time    0.1462
    MIXING:  cpu time    0.0064: real time    0.0065
    --------------------------------------------
      LOOP:  cpu time    2.3130: real time    2.3296

 eigenvalue-minimisations  :  1952
 total energy-change (2. order) :-0.2523531E-05  (-0.1675072E-07)
 number of electron     143.9999989 magnetization 
 augmentation part      -17.6632525 magnetization 

 Broyden mixing:
  rms(total) = 0.15952E-04    rms(broyden)= 0.15952E-04
  rms(prec ) = 0.23112E-04
  weight for this iteration     100.00

 eigenvalues of (default mixing * dielectric matrix)
  average eigenvalue GAMMA=   2.3691
  9.0771  7.0307  3.8323  3.8323  2.8497  2.2814  2.2814  1.5864  1.5864  0.9127
  0.9127  1.2614  1.2614  1.1506  1.1506  0.9627  0.9627  1.0405  1.0405

 Free energy of the ion-electron system (eV)
  ---------------------------------------------------
  alpha Z        PSCENC =       170.45750602
  Ewald energy   TEWEN  =     12153.61275403
  -Hartree energ DENC   =    -18583.92719189
  -exchange      EXHF   =         0.00000000
  -V(xc)+E(xc)   XCENC  =        49.83524095
  PAW double counting   =      3829.73799951    -3543.52941496
  entropy T*S    EENTRO =         0.00000000
  eigenvalues    EBANDS =     -1432.23718673
  atomic energy  EATOM  =      7250.85976021
  Solvation  Ediel_sol  =         0.00000000
  ---------------------------------------------------
  free energy    TOTEN  =      -105.19053287 eV

  energy without entropy =     -105.19053287  energy(sigma->0) =     -105.19053287


--------------------------------------------------------------------------------------------------------




--------------------------------------- Iteration      1(  25)  ---------------------------------------


    POTLOK:  cpu time    0.0585: real time    0.0700
    SETDIJ:  cpu time    0.0015: real time    0.0015
     EDDAV:  cpu time    2.0230: real time    2.0277
 BZINTS: Fermi energy: -0.383995;144.000000 electrons
         Band energy:***********;  BLOECHL correction:  0.000000
       DOS:  cpu time    0.0023: real time    0.0023
    CHARGE:  cpu time    0.1647: real time    0.1651
    MIXING:  cpu time    0.0072: real time    0.0072
    --------------------------------------------
      LOOP:  cpu time    2.2571: real time    2.2739

 eigenvalue-minimisations  :  1840
 total energy-change (2. order) :-0.1228029E-05  (-0.1773004E-07)
 number of electron     143.9999989 magnetization 
 augmentation part      -17.6632538 magnetization 

 Broyden mixing:
  rms(total) = 0.60980E-05    rms(broyden)= 0.60980E-05
  rms(prec ) = 0.88997E-05
  weight for this iteration     100.00

 eigenvalues of (default mixing * dielectric matrix)
  average eigenvalue GAMMA=   2.3331
  9.1158  7.0159  3.9486  3.8677  2.9352  2.5085  1.8889  1.8889  1.4863  1.4863
  0.9127  0.9127  1.2253  1.2253  1.1513  1.1513  1.0533  0.9720  0.9720  0.9443

 Free energy of the ion-electron system (eV)
  ---------------------------------------------------
  alpha Z        PSCENC =       170.45750602
[...]
      7     -27.7856      2.00000
      8     -27.7852      2.00000
      9     -14.8639      2.00000
     10     -14.8637      2.00000
     11     -14.7974      2.00000
     12     -14.7974      2.00000
     13     -14.7266      2.00000
     14     -14.7266      2.00000
     15     -13.9082      2.00000
     16     -13.9073      2.00000
     17     -13.7986      2.00000
     18     -13.7884      2.00000
     19     -13.7646      2.00000
     20     -13.7613      2.00000
     21     -13.7438      2.00000
     22     -13.7424      2.00000
     23     -13.7265      2.00000
     24     -13.7238      2.00000
     25     -13.6601      2.00000
     26     -13.6519      2.00000
     27     -13.1738      2.00000
     28     -13.1640      2.00000
     29     -13.1273      2.00000
     30     -13.1196      2.00000
     31     -13.0945      2.00000
     32     -13.0937      2.00000
     33     -11.0146      2.00000
     34     -11.0016      2.00000
     35     -10.6245      2.00000
     36     -10.6091      2.00000
     37      -6.4079      2.00000
     38      -6.3898      2.00000
     39      -6.1626      2.00000
     40      -6.1542      2.00000
     41      -6.0914      2.00000
     42      -6.0859      2.00000
     43      -5.8311      2.00000
     44      -5.8180      2.00000
     45      -5.7761      2.00000
     46      -5.7282      2.00000
     47      -5.6882      2.00000
     48      -5.5786      2.00000
     49      -2.7753      2.00000
     50      -2.6816      2.00000
     51      -2.5173      2.00000
     52      -2.4667      2.00000
     53      -2.1925      2.00000
     54      -2.1053      2.00000
     55      -2.0850      2.00000
     56      -2.0531      2.00000
     57      -1.9030      2.00000
     58      -1.8792      2.00000
     59      -1.7802      2.00000
     60      -1.6918      2.00000
     61      -1.6118      2.00000
     62      -1.5491      2.00000
     63      -1.4529      2.00000
     64      -1.3817      2.00000
     65      -1.2587      2.00000
     66      -1.1863      2.00000
     67      -1.1215      2.00000
     68      -1.0062      2.00000
     69      -0.8776      2.00000
     70      -0.7749      2.00000
     71      -0.7617      2.00000
     72      -0.6964      2.00000
     73       0.4185      0.00000
     74       0.4472      0.00000
     75       0.5852      0.00000
     76       0.6259      0.00000
     77       0.6916      0.00000
     78       0.8163      0.00000
     79       0.9395      0.00000
     80       0.9829      0.00000
     81       0.9991      0.00000
     82       1.1511      0.00000
     83       1.2822      0.00000
     84       1.3756      0.00000
     85       1.4183      0.00000
     86       1.5740      0.00000
     87       1.6710      0.00000
     88       1.7810      0.00000

 k-point    15 :       0.0000    0.5000    0.4000
  band No.  band energies     occupation 
      1     -29.5243      2.00000
      2     -29.5243      2.00000
      3     -28.4844      2.00000
      4     -28.4844      2.00000
      5     -28.3973      2.00000
      6     -28.3973      2.00000
      7     -27.7854      2.00000
      8     -27.7854      2.00000
      9     -14.8633      2.00000
     10     -14.8633      2.00000
     11     -14.7981      2.00000
     12     -14.7981      2.00000
     13     -14.7285      2.00000
     14     -14.7285      2.00000
     15     -13.9070      2.00000
     16     -13.9070      2.00000
     17     -13.7954      2.00000
     18     -13.7954      2.00000
     19     -13.7665      2.00000
     20     -13.7665      2.00000
     21     -13.7420      2.00000
     22     -13.7420      2.00000
     23     -13.7280      2.00000
     24     -13.7280      2.00000
     25     -13.6554      2.00000
     26     -13.6554      2.00000
     27     -13.1687      2.00000
     28     -13.1687      2.00000
     29     -13.1233      2.00000
     30     -13.1233      2.00000
     31     -13.0938      2.00000
     32     -13.0938      2.00000
     33     -11.0024      2.00000
     34     -11.0024      2.00000
     35     -10.6073      2.00000
     36     -10.6072      2.00000
     37      -6.4273      2.00000
     38      -6.4273      2.00000
     39      -6.1304      2.00000
     40      -6.1303      2.00000
     41      -6.0902      2.00000
     42      -6.0901      2.00000
     43      -5.8011      2.00000
     44      -5.8011      2.00000
     45      -5.7617      2.00000
     46      -5.7617      2.00000
     47      -5.6308      2.00000
     48      -5.6307      2.00000
     49      -2.6830      2.00000
     50      -2.6829      2.00000
     51      -2.5100      2.00000
     52      -2.5100      2.00000
     53      -2.1432      2.00000
     54      -2.1432      2.00000
     55      -2.0845      2.00000
     56      -2.0845      2.00000
     57      -1.8937      2.00000
     58      -1.8937      2.00000
     59      -1.6841      2.00000
     60      -1.6841      2.00000
     61      -1.4890      2.00000
     62      -1.4890      2.00000
     63      -1.4625      2.00000
     64      -1.4625      2.00000
     65      -1.2401      2.00000
     66      -1.2400      2.00000
     67      -1.0586      2.00000
     68      -1.0586      2.00000
     69      -0.8659      2.00000
     70      -0.8659      2.00000
     71      -0.7300      2.00000
     72      -0.7300      2.00000
     73       0.3349      0.00000
     74       0.3349      0.00000
     75       0.5740      0.00000
     76       0.5740      0.00000
     77       0.7482      0.00000
     78       0.7482      0.00000
     79       0.9319      0.00000
     80       0.9319      0.00000
     81       0.9986      0.00000
     82       0.9986      0.00000
     83       1.3495      0.00000
     84       1.3495      0.00000
     85       1.5336      0.00000
     86       1.5336      0.00000
     87       1.6321      0.00000
     88       1.6321      0.00000


--------------------------------------------------------------------------------------------------------


 soft charge-density along one line, spin component           1
         0         1         2         3         4         5         6         7         8         9
 total charge-density along one line
 
 pseudopotential strength for first ion, spin component:           1
  5.094  -5.597  -0.000  -0.008  -0.037  -0.000  -0.003  -0.015
 -5.597  -2.740   0.000   0.002   0.007  -0.000  -0.001  -0.006
 -0.000   0.000  -6.778  -0.000  -0.000   1.861  -0.000  -0.000
 -0.008   0.002  -0.000  -6.773  -0.002  -0.000   1.873  -0.003
 -0.037   0.007  -0.000  -0.002  -6.772  -0.000  -0.003   1.872
 -0.000  -0.000   1.861  -0.000  -0.000   7.308  -0.000  -0.000
 -0.003  -0.001  -0.000   1.873  -0.003  -0.000   7.310  -0.000
 -0.015  -0.006  -0.000  -0.003   1.872  -0.000  -0.000   7.310
 -0.000   0.000  -0.013  -0.000  -0.000  -0.009  -0.000  -0.000
 -0.000   0.000  -0.001  -0.000  -0.000  -0.000  -0.000  -0.000
  0.002  -0.001   0.000  -0.004   0.007   0.000  -0.003   0.005
 -0.002   0.001  -0.000  -0.013  -0.002  -0.000  -0.008  -0.002
  0.003  -0.001   0.000  -0.001  -0.012   0.000  -0.001  -0.008
  0.000   0.000   0.001   0.000   0.000   0.000   0.000   0.000
  0.000   0.000   0.000   0.000   0.000  -0.000   0.000   0.000
 -0.000  -0.000  -0.000   0.000  -0.000  -0.000   0.000  -0.000
  0.000   0.000   0.000   0.001   0.000   0.000   0.000   0.000
 -0.000  -0.000  -0.000   0.000   0.000  -0.000   0.000   0.000
 total augmentation occupancy for first ion, spin component:           1
  2.102  -0.256   0.000   0.013   0.055   0.000  -0.006  -0.020   0.000   0.000   0.015  -0.010   0.033   0.000   0.000  -0.010
 -0.256   0.638   0.000  -0.033  -0.144   0.000   0.012   0.033  -0.000   0.000  -0.025   0.013  -0.063  -0.000  -0.000   0.039
  0.000   0.000   2.012   0.000   0.000  -0.011  -0.000   0.000  -0.083   0.022   0.000   0.000   0.000   0.077  -0.042  -0.000
  0.013  -0.033   0.000   2.000   0.003   0.000  -0.002  -0.002   0.000   0.000  -0.045  -0.068  -0.014  -0.000   0.000   0.044
  0.055  -0.144   0.000   0.003   1.995   0.000  -0.002  -0.000   0.000   0.000   0.035  -0.007  -0.052   0.000   0.000  -0.032
  0.000   0.000  -0.011   0.000  -0.000   0.008  -0.000   0.000   0.022  -0.009   0.000   0.000   0.000  -0.030   0.014   0.000
 -0.006   0.012   0.000  -0.002  -0.002   0.000   0.005   0.001   0.000   0.000   0.016   0.015   0.005   0.000   0.000  -0.022
 -0.020   0.033   0.000  -0.002  -0.000   0.000   0.001   0.004   0.000   0.000  -0.007   0.000   0.008   0.000   0.000   0.009
  0.000   0.000  -0.083   0.000   0.000   0.022   0.000   0.000   0.145  -0.014   0.000   0.000   0.000  -0.183   0.020   0.000
 -0.000   0.000   0.022   0.000   0.000  -0.009   0.000   0.000  -0.014   0.068   0.000   0.000   0.000   0.018  -0.085   0.000
  0.015  -0.025   0.000  -0.045   0.035  -0.000   0.016  -0.007   0.000   0.000   0.122   0.051   0.019  -0.000   0.000  -0.148
 -0.010   0.013   0.000  -0.068  -0.007  -0.000   0.015   0.000   0.000   0.000   0.051   0.087   0.009   0.000   0.000  -0.070
  0.033  -0.063   0.000  -0.014  -0.052   0.000   0.005   0.008   0.000   0.000   0.019   0.009   0.096   0.000   0.000  -0.026
  0.000  -0.000   0.077   0.000   0.000  -0.030   0.000   0.000  -0.183   0.018   0.000  -0.000  -0.000   0.259  -0.034   0.000
  0.000   0.000  -0.042   0.000   0.000   0.014   0.000   0.000   0.020  -0.085   0.000  -0.000  -0.000  -0.034   0.115   0.000
 -0.010   0.039   0.000   0.044  -0.032   0.000  -0.022   0.009   0.000   0.000  -0.148  -0.070  -0.026   0.000   0.000   0.202
  0.007  -0.030  -0.000   0.063   0.000   0.000  -0.022  -0.001   0.000   0.000  -0.068  -0.110  -0.012  -0.000   0.000   0.105
 -0.025   0.075   0.000   0.022   0.050   0.000  -0.008  -0.012   0.000   0.000  -0.028  -0.014  -0.126   0.000   0.000   0.043


------------------------ aborting loop because EDIFF is reached ----------------------------------------


    CHARGE:  cpu time    0.1479: real time    0.1482
    FORLOC:  cpu time    0.0095: real time    0.0096
    FORNL :  cpu time    0.5302: real time    0.5315
    STRESS:  cpu time    1.5973: real time    1.6012
    FORCOR:  cpu time    0.0769: real time    0.0771
    FORHAR:  cpu time    0.0246: real time    0.0247
    MIXING:  cpu time    0.0079: real time    0.0082
    OFIELD:  cpu time    0.0000: real time    0.0000

  FORCE on cell =-STRESS in cart. coord.  units (eV):
  Direction    XX          YY          ZZ          XY          YZ          ZX
  --------------------------------------------------------------------------------------
  Alpha Z   170.45751   170.45751   170.45751
  Ewald  -19919.73439 16305.39144 15767.94205    -0.00002     0.00000   143.98726
  Hartree-16851.93476 17929.08558 17506.77321     0.00000    -0.00000   109.30084
  E(xc)    -462.17862  -460.41483  -460.81256    -0.00000    -0.00000     0.20364
  Local   35355.87551-35669.64880-34701.67064     0.00001    -0.00000  -251.05899
  n-local   339.02605   339.13868   339.79931     0.05823    -0.19823    -1.69752
  augment  -169.31421  -169.64982  -169.52093    -0.00000    -0.00000     0.33015
  Kinetic  1530.64103  1546.78679  1538.98279    -0.03418    -0.81900    -1.00739
  Fock        0.00000     0.00000     0.00000     0.00000     0.00000     0.00000
  -------------------------------------------------------------------------------------
  Total      -7.16188    -8.85346    -8.04928     0.00000     0.00000     0.05799
  in kB      -6.07750    -7.51296    -6.83053     0.00000     0.00000     0.04921
  external pressure =       -6.81 kB  Pullay stress =        0.00 kB


 VOLUME and BASIS-vectors are now :
 -----------------------------------------------------------------------------
  energy-cutoff  :      500.00
  volume of cell :     1888.05
      direct lattice vectors                 reciprocal lattice vectors
    24.009468079  0.000000000  0.000000000     0.041650236  0.000000000  0.000000000
     0.000000000  6.777849674  0.000000000     0.000000000  0.147539419  0.000000000
     0.000000000  0.000000000 11.602143288     0.000000000  0.000000000  0.086190971

  length of vectors
    24.009468079  6.777849674 11.602143288     0.041650236  0.147539419  0.086190971


 FORCES acting on ions
    electron-ion (+dipol)            ewald-force                    non-local-force                 convergence-correction
 -----------------------------------------------------------------------------------------------
   0.788E+03 0.102E-04 0.442E+02   -.783E+03 0.984E-05 -.434E+02   -.427E+01 -.294E-18 -.833E+00   0.609E-04 -.681E-09 0.702E-05
   -.788E+03 -.632E-04 -.442E+02   0.783E+03 -.128E-04 0.434E+02   0.427E+01 0.234E-18 0.833E+00   -.609E-04 0.708E-09 -.701E-05
   0.794E+02 -.600E-04 -.364E+02   -.792E+02 -.189E-04 0.351E+02   -.254E+00 -.239E-18 0.127E+01   0.717E-04 0.110E-08 -.529E-04
   -.794E+02 0.117E-04 0.364E+02   0.792E+02 0.132E-04 -.351E+02   0.254E+00 -.308E-18 -.127E+01   -.717E-04 -.104E-08 0.529E-04
   0.634E+03 -.611E-04 -.497E+02   -.632E+03 -.168E-04 0.502E+02   -.200E+01 -.206E-17 -.489E+00   0.132E-03 0.888E-09 -.545E-04
   -.634E+03 0.903E-05 0.497E+02   0.632E+03 0.146E-04 -.502E+02   0.200E+01 -.249E-17 0.489E+00   -.132E-03 -.863E-09 0.544E-04
   0.368E+03 0.122E-04 -.814E+01   -.367E+03 0.134E-04 0.733E+01   -.108E+01 -.152E-17 0.811E+00   0.113E-03 -.101E-08 0.110E-04
   -.368E+03 -.615E-04 0.814E+01   0.367E+03 -.135E-04 -.733E+01   0.108E+01 -.171E-17 -.811E+00   -.113E-03 0.984E-09 -.110E-04
   0.276E+03 0.366E+02 -.468E+02   -.276E+03 -.381E+02 0.477E+02   -.865E-01 0.151E+01 -.879E+00   0.834E-04 0.448E-04 -.418E-04
   -.276E+03 -.366E+02 0.468E+02   0.276E+03 0.381E+02 -.477E+02   0.865E-01 -.151E+01 0.879E+00   -.834E-04 -.448E-04 0.418E-04
   0.125E+03 -.323E+02 0.290E+01   -.125E+03 0.335E+02 -.191E+01   -.491E+00 -.113E+01 -.993E+00   0.271E-04 -.289E-04 -.815E-06
   -.125E+03 0.323E+02 -.290E+01   0.125E+03 -.335E+02 0.191E+01   0.491E+00 0.113E+01 0.993E+00   -.271E-04 0.289E-04 0.817E-06
   -.276E+03 0.366E+02 0.468E+02   0.276E+03 -.381E+02 -.477E+02   0.865E-01 0.151E+01 0.879E+00   -.834E-04 0.448E-04 0.418E-04
   0.276E+03 -.366E+02 -.468E+02   -.276E+03 0.381E+02 0.477E+02   -.865E-01 -.151E+01 -.879E+00   0.834E-04 -.448E-04 -.418E-04
   -.125E+03 -.323E+02 -.290E+01   0.125E+03 0.335E+02 0.191E+01   0.491E+00 -.113E+01 0.993E+00   -.271E-04 -.289E-04 0.817E-06
   0.125E+03 0.323E+02 0.290E+01   -.125E+03 -.335E+02 -.191E+01   -.491E+00 0.113E+01 -.993E+00   0.271E-04 0.289E-04 -.815E-06
   0.333E+03 -.422E-05 0.459E+02   -.335E+03 -.606E-05 -.466E+02   0.140E+01 0.129E-18 0.632E+00   0.641E-04 0.297E-09 0.239E-04
   -.333E+03 0.614E-05 -.459E+02   0.335E+03 0.631E-05 0.466E+02   -.140E+01 -.157E-19 -.632E+00   -.641E-04 -.302E-09 -.239E-04
   0.322E+02 0.992E-05 -.111E+02   -.307E+02 0.768E-05 0.104E+02   -.139E+01 -.279E-18 0.755E+00   -.147E-04 -.416E-09 -.165E-04
   -.322E+02 -.127E-05 0.111E+02   0.307E+02 -.733E-05 -.104E+02   0.139E+01 -.254E-18 -.755E+00   0.147E-04 0.392E-09 0.165E-04
   0.245E+03 0.442E-05 0.104E+02   -.245E+03 0.812E-05 -.116E+02   -.574E+00 -.781E-18 0.118E+01   0.785E-04 -.362E-09 0.286E-04
   -.245E+03 -.556E-05 -.104E+02   0.245E+03 -.816E-05 0.116E+02   0.574E+00 0.731E-18 -.118E+01   -.785E-04 0.344E-09 -.286E-04
   0.159E+03 -.621E-05 0.610E+02   -.159E+03 -.762E-05 -.626E+02   -.812E+00 -.157E-17 0.170E+01   0.360E-04 0.380E-09 0.494E-04
   -.159E+03 0.374E-05 -.610E+02   0.159E+03 0.744E-05 0.626E+02   0.812E+00 0.305E-18 -.170E+01   -.360E-04 -.378E-09 -.494E-04
 -----------------------------------------------------------------------------------------------
   0.304E-04 -.207E-03 0.747E-04   -.171E-12 0.186E-13 0.000E+00   -.222E-15 -.224E-15 -.222E-15   0.281E-07 0.103E-10 -.373E-08
 
 
 POSITION                                       TOTAL-FORCE (eV/Angst)
 -----------------------------------------------------------------------------------
      0.13670      1.69446      8.19041         0.758137      0.000000     -0.000348
      9.02277      5.08339      3.41173        -0.758137     -0.000000      0.000348
      4.36803      5.08339      2.16447         0.001767      0.000000      0.000477
      4.79143      1.69446      9.43767        -0.001767     -0.000000     -0.000477
      1.43529      5.08339     10.64974         0.687549     -0.000000      0.000692
      7.72418      1.69446      0.95240        -0.687549      0.000000     -0.000692
      3.06944      1.69446      4.61407         0.354757      0.000000      0.000447
      6.09002      5.08339      6.98808        -0.354757     -0.000000     -0.000447
      1.75027      0.49381      1.67810        -0.152692      0.000062     -0.000384
      7.40920      6.28404      9.92404         0.152692     -0.000062      0.000384
      2.75446      6.29067      7.64913         0.078901     -0.000030     -0.000404
      6.40500      0.48718      3.95301        -0.078901      0.000030      0.000404
      7.40920      3.88274      9.92404         0.152692      0.000062      0.000384
      1.75027      2.89511      1.67810        -0.152692     -0.000062     -0.000384
      6.40500      2.90174      3.95301        -0.078901     -0.000030      0.000404
      2.75446      3.87611      7.64913         0.078901      0.000030     -0.000404
      0.74693      5.08339      6.96498        -0.226880      0.000000      0.000064
      8.41254      1.69446      4.63716         0.226880     -0.000000     -0.000064
      3.75780      1.69446      0.97780         0.177544      0.000000      0.000091
      5.40166      5.08339     10.62434        -0.177544     -0.000000     -0.000091
      1.78112      1.69446     11.16947        -0.246218     -0.000000      0.000728
      7.37835      5.08339      0.43268         0.246218      0.000000     -0.000728
      2.72362      5.08339      5.53782        -0.275297      0.000000      0.000335
      6.43585      1.69446      6.06433         0.275297     -0.000000     -0.000335
 -----------------------------------------------------------------------------------
    total drift:                                0.000030     -0.000207      0.000075


--------------------------------------------------------------------------------------------------------



  FREE ENERGIE OF THE ION-ELECTRON SYSTEM (eV)
  ---------------------------------------------------
  free  energy   TOTEN  =      -105.19053428 eV

  energy  without entropy=     -105.19053428  energy(sigma->0) =     -105.19053428
 


--------------------------------------------------------------------------------------------------------


    POTLOK:  cpu time    0.0653: real time    0.0655


--------------------------------------------------------------------------------------------------------


 writing wavefunctions
     LOOP+:  cpu time   84.9063: real time   86.4879
    4ORBIT:  cpu time    0.0000: real time    0.0000
 BZINTS: Fermi energy: -0.387830;144.000000 electrons
         Band energy:***********;  BLOECHL correction:  0.000000

 total amount of memory used by VASP MPI-rank0    79350. kBytes
=======================================================================

   base      :      30000. kBytes
   nonlr-proj:       2644. kBytes
   fftplans  :       5898. kBytes
   grid      :       8824. kBytes
   one-center:         93. kBytes
   wavefun   :      31891. kBytes
 
  
  
 General timing and accounting informations for this job:
 ========================================================
  
                  Total CPU time used (sec):       92.776
                            User time (sec):       87.790
                          System time (sec):        4.986
                         Elapsed time (sec):       96.200
  
                   Maximum memory used (kb):      171204.
                   Average memory used (kb):           0.
  
                          Minor page faults:        62325
                          Major page faults:          308
                 Voluntary context switches:        13025
