 vasp.5.4.4.18Apr17-6-g9f103f2a35 (build Nov 21 2017 15:30:27) complex          
  
 executed on             LinuxIFC date 2020.12.16  17:49:25
 running on   64 total cores
 distrk:  each k-point on   32 cores,    2 groups
 distr:  one band on NCORES_PER_BAND=   4 cores,    8 groups


--------------------------------------------------------------------------------------------------------


 INCAR:
 POTCAR:   PAW Ba_sv 17Apr2000                    
 POTCAR:   PAW Si 02Apr1999                       

 ----------------------------------------------------------------------------- 
|                                                                             |
|           W    W    AA    RRRRR   N    N  II  N    N   GGGG   !!!           |
|           W    W   A  A   R    R  NN   N  II  NN   N  G    G  !!!           |
|           W    W  A    A  R    R  N N  N  II  N N  N  G       !!!           |
|           W WW W  AAAAAA  RRRRR   N  N N  II  N  N N  G  GGG   !            |
|           WW  WW  A    A  R   R   N   NN  II  N   NN  G    G                |
|           W    W  A    A  R    R  N    N  II  N    N   GGGG   !!!           |
|                                                                             |
|      You have enabled k-point parallelism (KPAR>1).                         |
|      This developmental code was originally  written by Paul Kent at ORNL,  |
|      and carefully double checked in Vienna.                                |
|      GW as well as linear response parallelism added by Martijn Marsman     |
|      and Georg Kresse.                                                      |
|      Carefully verify results versus KPAR=1.                                |
|      Report problems to Paul Kent and Vienna.                               |
|                                                                             |
 ----------------------------------------------------------------------------- 

 POTCAR:   PAW Ba_sv 17Apr2000                    
   VRHFIN =Ba: s2p6s2                                                           
   LEXCH  = CA                                                                  
   EATOM  =   704.0172 eV,   51.7438 Ry                                         
                                                                                
   TITEL  = PAW Ba_sv 17Apr2000                                                 
   LULTRA =        F    use ultrasoft PP ?                                      
   IUNSCR =        1    unscreen: 0-lin 1-nonlin 2-no                           
   RPACOR =    2.400    partial core radius                                     
   POMASS =  137.327; ZVAL   =   10.000    mass and valenz                      
   RCORE  =    2.800    outmost cutoff radius                                   
   RWIGS  =    3.740; RWIGS  =    1.979    wigner-seitz radius (au A)           
   ENMAX  =  186.981; ENMIN  =  140.236 eV                                      
   RCLOC  =    2.516    cutoff for local pot                                    
   LCOR   =        T    correct aug charges                                     
   LPAW   =        T    paw PP                                                  
   EAUG   =  351.165                                                            
   DEXC   =     .000                                                            
   RMAX   =    3.372    core radius for proj-oper                               
   RAUG   =    1.300    factor for augmentation sphere                          
   RDEP   =    2.976    core radius for depl-charge                             
   QCUT   =   -3.707; QGAM   =    7.414    optimization parameters              
                                                                                
   Description                                                                  
     l     E      TYP  RCUT    TYP  RCUT                                        
     0   .000     23  2.800                                                     
     0   .000     23  2.800                                                     
     1   .000     23  2.700                                                     
     1  2.000     23  2.700                                                     
     2   .000     23  2.700                                                     
     2   .000     23  2.700                                                     
  local pseudopotential read in
  partial core-charges read in
  atomic valenz-charges read in
  non local Contribution for L=           0  read in
    real space projection operators read in
  non local Contribution for L=           0  read in
    real space projection operators read in
  non local Contribution for L=           1  read in
    real space projection operators read in
  non local Contribution for L=           1  read in
    real space projection operators read in
  non local Contribution for L=           2  read in
    real space projection operators read in
  non local Contribution for L=           2  read in
    real space projection operators read in
    PAW grid and wavefunctions read in
 
   number of l-projection  operators is LMAX  =           6
   number of lm-projection operators is LMMAX =          18
 
 POTCAR:   PAW Si 02Apr1999                       
   VRHFIN =Si: s2p2                                                             
   LEXCH  = CA                                                                  
   EATOM  =   103.4338 eV,    7.6022 Ry                                         
                                                                                
   TITEL  = PAW Si 02Apr1999                                                    
   LULTRA =        F    use ultrasoft PP ?                                      
   IUNSCR =        1    unscreen: 0-lin 1-nonlin 2-no                           
   RPACOR =    1.500    partial core radius                                     
   POMASS =   28.085; ZVAL   =    4.000    mass and valenz                      
   RCORE  =    1.900    outmost cutoff radius                                   
   RWIGS  =    2.480; RWIGS  =    1.312    wigner-seitz radius (au A)           
   ENMAX  =  245.704; ENMIN  =  184.278 eV                                      
   ICORE  =        2    local potential                                         
   LCOR   =        T    correct aug charges                                     
   LPAW   =        T    paw PP                                                  
   EAUG   =  322.069                                                            
   DEXC   =    -.006                                                            
   RMAX   =    2.941    core radius for proj-oper                               
   RAUG   =    1.300    factor for augmentation sphere                          
   RDEP   =    1.993    core radius for depl-charge                             
   QCUT   =   -4.250; QGAM   =    8.499    optimization parameters              
                                                                                
   Description                                                                  
     l     E      TYP  RCUT    TYP  RCUT                                        
     0   .000     23  1.900                                                     
     0   .000     23  1.900                                                     
     1   .000     23  1.900                                                     
     1   .000     23  1.900                                                     
     2   .000      7  1.900                                                     
  local pseudopotential read in
  partial core-charges read in
  atomic valenz-charges read in
  non local Contribution for L=           0  read in
    real space projection operators read in
  non local Contribution for L=           0  read in
    real space projection operators read in
  non local Contribution for L=           1  read in
    real space projection operators read in
  non local Contribution for L=           1  read in
    real space projection operators read in
    PAW grid and wavefunctions read in
 
   number of l-projection  operators is LMAX  =           4
   number of lm-projection operators is LMMAX =           8
 
 Optimization of the real space projectors (new method)

 maximal supplied QI-value         = 13.42
 optimisation between [QCUT,QGAM] = [ 11.40, 22.81] = [ 36.42,145.68] Ry 
 Optimized for a Real-space Cutoff    1.56 Angstroem

   l    n(q)    QCUT    max X(q) W(low)/X(q) W(high)/X(q)  e(spline) 
   0     11    11.404     7.180    0.12E-04    0.23E-04    0.91E-07
   0     11    11.404    14.700    0.33E-04    0.82E-04    0.45E-06
   1     10    11.404     3.780    0.19E-04    0.22E-04    0.42E-07
   1     10    11.404     4.341    0.22E-03    0.98E-04    0.21E-06
   2     10    11.404     5.806    0.81E-04    0.60E-05    0.26E-06
   2     10    11.404    65.524    0.41E-03    0.30E-04    0.12E-05
 Optimization of the real space projectors (new method)

 maximal supplied QI-value         = 19.84
 optimisation between [QCUT,QGAM] = [ 11.31, 22.82] = [ 35.82,145.81] Ry 
 Optimized for a Real-space Cutoff    1.16 Angstroem

   l    n(q)    QCUT    max X(q) W(low)/X(q) W(high)/X(q)  e(spline) 
   0      8    11.310     8.540    0.14E-04    0.11E-04    0.43E-08
   0      8    11.310   104.916    0.28E-03    0.31E-03    0.39E-07
   1      7    11.310     5.806    0.79E-05    0.47E-04    0.19E-07
   1      7    11.310    72.249    0.28E-03    0.28E-03    0.75E-07
 PAW Ba_sv 17Apr2000                    :
 energy of atom  1       EATOM= -704.0172
 kinetic energy error for atom=    0.0005 (will be added to EATOM!!)
 PAW Si 02Apr1999                       :
 energy of atom  2       EATOM= -103.4338
 kinetic energy error for atom=    0.0006 (will be added to EATOM!!)
 
 
 POSCAR: ba8 si16                                
  positions in cartesian coordinates
  No initial velocities read in
 exchange correlation table for  LEXCH =        2
   RHO(1)=    0.500       N(1)  =     2000
   RHO(2)=  100.500       N(2)  =     4000
 


--------------------------------------------------------------------------------------------------------


 ion  position               nearest neighbor table
   1  0.015  0.250  0.691-  24 3.40  18 3.40  13 3.45  10 3.45  16 3.45  11 3.45  21 3.60  17 3.63
                            17 3.63   5 4.41   5 4.41   7 4.42   4 4.71   4 4.71
   2  0.985  0.750  0.309-  23 3.40  17 3.40   9 3.45  14 3.45  12 3.45  15 3.45  22 3.60  18 3.63
                            18 3.63   6 4.41   6 4.41   8 4.42   3 4.71   3 4.71
   3  0.485  0.750  0.191-  22 3.40  20 3.40  12 3.45  15 3.45   9 3.45  14 3.45  23 3.60  19 3.63
                            19 3.63   7 4.41   7 4.41   5 4.42   2 4.71   2 4.71
   4  0.515  0.250  0.809-  21 3.40  19 3.40  16 3.45  11 3.45  13 3.45  10 3.45  24 3.60  20 3.63
                            20 3.63   8 4.41   8 4.41   6 4.42   1 4.71   1 4.71
   5  0.159  0.750  0.907-  10 3.46  13 3.46  21 3.48  21 3.48  11 3.50  16 3.50  22 3.54   9 3.55
                            14 3.55  17 3.71  20 3.82   1 4.41   1 4.41   3 4.42
   6  0.841  0.250  0.093-  14 3.46   9 3.46  22 3.48  22 3.48  15 3.50  12 3.50  21 3.54  13 3.55
                            10 3.55  18 3.71  19 3.82   2 4.41   2 4.41   4 4.42
   7  0.341  0.250  0.407-  15 3.46  12 3.46  23 3.48  23 3.48  14 3.50   9 3.50  24 3.54  16 3.55
                            11 3.55  19 3.71  18 3.82   3 4.41   3 4.41   1 4.42
   8  0.659  0.750  0.593-  11 3.46  16 3.46  24 3.48  24 3.48  10 3.50  13 3.50  23 3.54  12 3.55
                            15 3.55  20 3.71  17 3.82   4 4.41   4 4.41   2 4.42
   9  0.194  0.073  0.147-  14 2.41  21 2.41  19 2.42   2 3.45   3 3.45   6 3.46   7 3.50   5 3.55

  10  0.806  0.927  0.853-  13 2.41  22 2.41  20 2.42   1 3.45   4 3.45   5 3.46   8 3.50   6 3.55

  11  0.306  0.927  0.647-  16 2.41  23 2.41  17 2.42   4 3.45   1 3.45   8 3.46   5 3.50   7 3.55

  12  0.694  0.073  0.353-  15 2.41  24 2.41  18 2.42   3 3.45   2 3.45   7 3.46   6 3.50   8 3.55

  13  0.806  0.573  0.853-  10 2.41  22 2.41  20 2.42   1 3.45   4 3.45   5 3.46   8 3.50   6 3.55

  14  0.194  0.427  0.147-   9 2.41  21 2.41  19 2.42   2 3.45   3 3.45   6 3.46   7 3.50   5 3.55

  15  0.694  0.427  0.353-  12 2.41  24 2.41  18 2.42   3 3.45   2 3.45   7 3.46   6 3.50   8 3.55

  16  0.306  0.573  0.647-  11 2.41  23 2.41  17 2.42   4 3.45   1 3.45   8 3.46   5 3.50   7 3.55

  17  0.083  0.750  0.592-  11 2.42  16 2.42  23 2.45   2 3.40   1 3.63   1 3.63   5 3.71   8 3.82

  18  0.917  0.250  0.408-  15 2.42  12 2.42  24 2.45   1 3.40   2 3.63   2 3.63   6 3.71   7 3.82

  19  0.417  0.250  0.092-  14 2.42   9 2.42  21 2.45   4 3.40   3 3.63   3 3.63   7 3.71   6 3.82

  20  0.583  0.750  0.908-  10 2.42  13 2.42  22 2.45   3 3.40   4 3.63   4 3.63   8 3.71   5 3.82

  21  0.198  0.250  0.967-  14 2.41   9 2.41  19 2.45   4 3.40   5 3.48   5 3.48   6 3.54   1 3.60

  22  0.802  0.750  0.033-  10 2.41  13 2.41  20 2.45   3 3.40   6 3.48   6 3.48   5 3.54   2 3.60

  23  0.302  0.750  0.467-  11 2.41  16 2.41  17 2.45   2 3.40   7 3.48   7 3.48   8 3.54   3 3.60

  24  0.698  0.250  0.533-  15 2.41  12 2.41  18 2.45   1 3.40   8 3.48   8 3.48   7 3.54   4 3.60

 
  LATTYP: Found a simple orthorhombic cell.
 ALAT       =     6.7778496742
 B/A-ratio  =     1.3292516818
 C/A-ratio  =     1.7117734747
  
  Lattice vectors:
  
 A1 = (   0.0000000000,  -6.7778496742,   0.0000000000)
 A2 = (  -9.0094680786,   0.0000000000,   0.0000000000)
 A3 = (   0.0000000000,   0.0000000000, -11.6021432877)


Analysis of symmetry for initial positions (statically):
=====================================================================
 Subroutine PRICEL returns:
 Original cell was already a primitive cell.
 

 Routine SETGRP: Setting up the symmetry group for a 
 simple orthorhombic supercell.


 Subroutine GETGRP returns: Found  8 space group operations
 (whereof  2 operations were pure point group operations)
 out of a pool of  8 trial point group operations.


The static configuration has the point symmetry S_2 .
 The point group associated with its full space group is D_2h.


Analysis of symmetry for dynamics (positions and initial velocities):
=====================================================================
 Subroutine PRICEL returns:
 Original cell was already a primitive cell.
 

 Routine SETGRP: Setting up the symmetry group for a 
 simple orthorhombic supercell.


 Subroutine GETGRP returns: Found  8 space group operations
 (whereof  2 operations were pure point group operations)
 out of a pool of  8 trial point group operations.


The dynamic configuration has the point symmetry S_2 .
 The point group associated with its full space group is D_2h.


 Subroutine INISYM returns: Found  8 space group operations
 (whereof  2 operations are pure point group operations),
 and found     1 'primitive' translations

 
 
 KPOINTS: k-density: 6.0                          

Automatic generation of k-mesh.
Space group operators:
 irot       det(A)        alpha          n_x          n_y          n_z        tau_x        tau_y        tau_z
    1     1.000000     0.000000     1.000000     0.000000     0.000000     0.000000     0.000000     0.000000
    2    -1.000000     0.000000     1.000000     0.000000     0.000000     0.000000     0.000000     0.000000
    3     1.000000   180.000000     0.000000     0.000000     1.000000    -0.500000     0.000000    -0.500000
    4    -1.000000   180.000000     0.000000     0.000000     1.000000    -0.500000     0.000000    -0.500000
    5     1.000000   180.000000     1.000000     0.000000     0.000000    -0.500000    -0.500000    -0.500000
    6    -1.000000   180.000000     1.000000     0.000000     0.000000    -0.500000    -0.500000    -0.500000
    7     1.000000   180.000000     0.000000     1.000000     0.000000    -0.000000    -0.500000    -0.000000
    8    -1.000000   180.000000     0.000000     1.000000     0.000000     0.000000    -0.500000     0.000000
 
 Subroutine IBZKPT returns following result:
 ===========================================
 
 Found     36 irreducible k-points:
 
 Following reciprocal coordinates:
            Coordinates               Weight
  0.000000  0.000000  0.000000      1.000000
  0.200000  0.000000  0.000000      2.000000
  0.400000  0.000000  0.000000      2.000000
  0.000000  0.166667  0.000000      2.000000
  0.200000  0.166667  0.000000      4.000000
  0.400000  0.166667  0.000000      4.000000
  0.000000  0.333333  0.000000      2.000000
  0.200000  0.333333  0.000000      4.000000
  0.400000  0.333333  0.000000      4.000000
  0.000000  0.500000  0.000000      1.000000
  0.200000  0.500000  0.000000      2.000000
  0.400000  0.500000  0.000000      2.000000
  0.000000  0.000000  0.250000      2.000000
  0.200000  0.000000  0.250000      4.000000
  0.400000  0.000000  0.250000      4.000000
  0.000000  0.166667  0.250000      4.000000
  0.200000  0.166667  0.250000      8.000000
  0.400000  0.166667  0.250000      8.000000
  0.000000  0.333333  0.250000      4.000000
  0.200000  0.333333  0.250000      8.000000
  0.400000  0.333333  0.250000      8.000000
  0.000000  0.500000  0.250000      2.000000
  0.200000  0.500000  0.250000      4.000000
  0.400000  0.500000  0.250000      4.000000
  0.000000  0.000000  0.500000      1.000000
  0.200000  0.000000  0.500000      2.000000
  0.400000  0.000000  0.500000      2.000000
  0.000000  0.166667  0.500000      2.000000
  0.200000  0.166667  0.500000      4.000000
  0.400000  0.166667  0.500000      4.000000
  0.000000  0.333333  0.500000      2.000000
  0.200000  0.333333  0.500000      4.000000
  0.400000  0.333333  0.500000      4.000000
  0.000000  0.500000  0.500000      1.000000
  0.200000  0.500000  0.500000      2.000000
  0.400000  0.500000  0.500000      2.000000
 
 Following cartesian coordinates:
            Coordinates               Weight
  0.000000  0.000000  0.000000      1.000000
  0.022199  0.000000  0.000000      2.000000
  0.044398  0.000000  0.000000      2.000000
  0.000000  0.024590  0.000000      2.000000
  0.022199  0.024590  0.000000      4.000000
  0.044398  0.024590  0.000000      4.000000
  0.000000  0.049180  0.000000      2.000000
  0.022199  0.049180  0.000000      4.000000
  0.044398  0.049180  0.000000      4.000000
  0.000000  0.073770  0.000000      1.000000
  0.022199  0.073770  0.000000      2.000000
  0.044398  0.073770  0.000000      2.000000
  0.000000  0.000000  0.021548      2.000000
  0.022199  0.000000  0.021548      4.000000
  0.044398  0.000000  0.021548      4.000000
  0.000000  0.024590  0.021548      4.000000
  0.022199  0.024590  0.021548      8.000000
  0.044398  0.024590  0.021548      8.000000
  0.000000  0.049180  0.021548      4.000000
  0.022199  0.049180  0.021548      8.000000
  0.044398  0.049180  0.021548      8.000000
  0.000000  0.073770  0.021548      2.000000
  0.022199  0.073770  0.021548      4.000000
  0.044398  0.073770  0.021548      4.000000
  0.000000  0.000000  0.043095      1.000000
  0.022199  0.000000  0.043095      2.000000
  0.044398  0.000000  0.043095      2.000000
  0.000000  0.024590  0.043095      2.000000
  0.022199  0.024590  0.043095      4.000000
  0.044398  0.024590  0.043095      4.000000
  0.000000  0.049180  0.043095      2.000000
  0.022199  0.049180  0.043095      4.000000
  0.044398  0.049180  0.043095      4.000000
  0.000000  0.073770  0.043095      1.000000
  0.022199  0.073770  0.043095      2.000000
  0.044398  0.073770  0.043095      2.000000
 
 TETIRR: Found    360 inequivalent tetrahedra from      720


--------------------------------------------------------------------------------------------------------




 Dimension of arrays:
   k-points           NKPTS =     36   k-points in BZ     NKDIM =     36   number of bands    NBANDS=     88
   number of dos      NEDOS =    301   number of ions     NIONS =     24
   non local maximal  LDIM  =      6   non local SUM 2l+1 LMDIM =     18
   total plane-waves  NPLWV = 128000
   max r-space proj   IRMAX =   2946   max aug-charges    IRDMAX=  11507
   dimension x,y,z NGX =    50 NGY =   40 NGZ =   64
   dimension x,y,z NGXF=   100 NGYF=   80 NGZF=  128
   support grid    NGXF=   100 NGYF=   80 NGZF=  128
   ions per type =               8  16
   NGX,Y,Z   is equivalent  to a cutoff of   9.23,  9.81,  9.17 a.u.
   NGXF,Y,Z  is equivalent  to a cutoff of  18.45, 19.62, 18.34 a.u.

 SYSTEM =  unknown system                          
 POSCAR =  ba8 si16                                

 Startparameter for this run:
   NWRITE =      2    write-flag & timer
   PREC   = normal    normal or accurate (medium, high low for compatibility)
   ISTART =      0    job   : 0-new  1-cont  2-samecut
   ICHARG =      2    charge: 1-file 2-atom 10-const
   ISPIN  =      1    spin polarized calculation?
   LNONCOLLINEAR =      F non collinear calculations
   LSORBIT =      F    spin-orbit coupling
   INIWAV =      1    electr: 0-lowe 1-rand  2-diag
   LASPH  =      F    aspherical Exc in radial PAW
   METAGGA=      F    non-selfconsistent MetaGGA calc.

 Electronic Relaxation 1
   ENCUT  =  500.0 eV  36.75 Ry    6.06 a.u.  16.43 12.36 21.15*2*pi/ulx,y,z
   ENINI  =  500.0     initial cutoff
   ENAUG  =  351.2 eV  augmentation charge cutoff
   NELM   =    100;   NELMIN=  2; NELMDL= -5     # of ELM steps 
   EDIFF  = 0.1E-05   stopping-criterion for ELM
   LREAL  =      T    real-space projection
   NLSPLINE    = F    spline interpolate recip. space projectors
   LCOMPAT=      F    compatible to vasp.4.4
   GGA_COMPAT  = T    GGA compatible to vasp.4.4-vasp.4.6
   LMAXPAW     = -100 max onsite density
   LMAXMIX     =    2 max onsite mixed and CHGCAR
   VOSKOWN=      0    Vosko Wilk Nusair interpolation
   ROPT   =   -0.00050  -0.00050
 Ionic relaxation
   EDIFFG = -.1E-01   stopping-criterion for IOM
   NSW    =    200    number of steps for IOM
   NBLOCK =      1;   KBLOCK =    200    inner block; outer block 
   IBRION =      2    ionic relax: 0-MD 1-quasi-New 2-CG
   NFREE  =      1    steps in history (QN), initial steepest desc. (CG)
   ISIF   =      3    stress and relaxation
   IWAVPR =     11    prediction:  0-non 1-charg 2-wave 3-comb
   ISYM   =      2    0-nonsym 1-usesym 2-fastsym
   LCORR  =      T    Harris-Foulkes like correction to forces

   POTIM  = 0.5000    time-step for ionic-motion
   TEIN   =    0.0    initial temperature
   TEBEG  =    0.0;   TEEND  =   0.0 temperature during run
   SMASS  =  -3.00    Nose mass-parameter (am)
   estimated Nose-frequenzy (Omega)   =  0.10E-29 period in steps =****** mass=  -0.185E-26a.u.
   SCALEE = 1.0000    scale energy and forces
   NPACO  =    256;   APACO  = 16.0  distance and # of slots for P.C.
   PSTRESS=    0.0 pullay stress

  Mass of Ions in am
   POMASS = 137.33 28.09
  Ionic Valenz
   ZVAL   =  10.00  4.00
  Atomic Wigner-Seitz radii
   RWIGS  =  -1.00 -1.00
  virtual crystal weights 
   VCA    =   1.00  1.00
   NELECT =     144.0000    total number of electrons
   NUPDOWN=      -1.0000    fix difference up-down

 DOS related values:
   EMIN   =  10.00;   EMAX   =-10.00  energy-range for DOS
   EFERMI =   0.00
   ISMEAR =    -5;   SIGMA  =   0.01  broadening in eV -4-tet -1-fermi 0-gaus

 Electronic relaxation 2 (details)
   IALGO  =     38    algorithm
   LDIAG  =      T    sub-space diagonalisation (order eigenvalues)
   LSUBROT=      F    optimize rotation matrix (better conditioning)
   TURBO    =      0    0=normal 1=particle mesh
   IRESTART =      0    0=no restart 2=restart with 2 vectors
   NREBOOT  =      0    no. of reboots
   NMIN     =      0    reboot dimension
   EREF     =   0.00    reference energy to select bands
   IMIX   =      4    mixing-type and parameters
     AMIX     =   0.40;   BMIX     =  1.00
     AMIX_MAG =   1.60;   BMIX_MAG =  1.00
     AMIN     =   0.10
     WC   =   100.;   INIMIX=   1;  MIXPRE=   1;  MAXMIX= -45

 Intra band minimization:
   WEIMIN = 0.0010     energy-eigenvalue tresh-hold
   EBREAK =  0.28E-08  absolut break condition
   DEPER  =   0.30     relativ break condition  

   TIME   =   0.40     timestep for ELM

  volume/ion in A,a.u.               =      29.52       199.21
  Fermi-wavevector in a.u.,A,eV,Ry     =   0.962541  1.818939 12.605595  0.926485
  Thomas-Fermi vector in A             =   2.092009
 
 Write flags
   LWAVE        =      T    write WAVECAR
   LDOWNSAMPLE  =      F    k-point downsampling of WAVECAR
   LCHARG       =      T    write CHGCAR
   LVTOT        =      F    write LOCPOT, total local potential
   LVHAR        =      F    write LOCPOT, Hartree potential only
   LELF         =      F    write electronic localiz. function (ELF)
   LORBIT       =      0    0 simple, 1 ext, 2 COOP (PROOUT), +10 PAW based schemes


 Dipole corrections
   LMONO  =      F    monopole corrections only (constant potential shift)
   LDIPOL =      F    correct potential (dipole corrections)
   IDIPOL =      0    1-x, 2-y, 3-z, 4-all directions 
   EPSILON=  1.0000000 bulk dielectric constant

 Exchange correlation treatment:
   GGA     =    --    GGA type
   LEXCH   =     2    internal setting for exchange type
   VOSKOWN=      0    Vosko Wilk Nusair interpolation
   LHFCALC =     F    Hartree Fock is set to
   LHFONE  =     F    Hartree Fock one center treatment
   AEXX    =    0.0000 exact exchange contribution

 Linear response parameters
   LEPSILON=     F    determine dielectric tensor
   LRPA    =     F    only Hartree local field effects (RPA)
   LNABLA  =     F    use nabla operator in PAW spheres
   LVEL    =     F    velocity operator in full k-point grid
   LINTERFAST=   F  fast interpolation
   KINTER  =     0    interpolate to denser k-point grid
   CSHIFT  =0.1000    complex shift for real part using Kramers Kronig
   OMEGAMAX=  -1.0    maximum frequency
   DEG_THRESHOLD= 0.2000000E-02 threshold for treating states as degnerate
   RTIME   =   -0.100 relaxation time in fs
  (WPLASMAI=    0.000 imaginary part of plasma frequency in eV, 0.658/RTIME)
   DFIELD  = 0.0000000 0.0000000 0.0000000 field for delta impulse in time
 
 Orbital magnetization related:
   ORBITALMAG=     F  switch on orbital magnetization
   LCHIMAG   =     F  perturbation theory with respect to B field
   DQ        =  0.001000  dq finite difference perturbation B field
   LLRAUG    =     F  two centre corrections for induced B field



--------------------------------------------------------------------------------------------------------


 conjugate gradient relaxation of ions
 charge density and potential will be updated during run
 non-spin polarized calculation
 Variant of blocked Davidson
 Davidson routine will perform the subspace rotation
 perform sub-space diagonalisation
    after iterative eigenvector-optimisation
 modified Broyden-mixing scheme, WC =      100.0
 initial mixing is a Kerker type mixing with AMIX =  0.4000 and BMIX =      1.0000
 Hartree-type preconditioning will be used
 using additional bands           16
 real space projection scheme for non local part
 use partial core corrections
 calculate Harris-corrections to forces 
   (improved forces if not selfconsistent)
 use of overlap-Matrix (Vanderbilt PP)
 Fermi weights with tetrahedron method with Bloechl corrections


--------------------------------------------------------------------------------------------------------


  energy-cutoff  :      500.00
  volume of cell :      708.48
      direct lattice vectors                 reciprocal lattice vectors
     9.009468079  0.000000000  0.000000000     0.110994344  0.000000000  0.000000000
     0.000000000  6.777849674  0.000000000     0.000000000  0.147539419  0.000000000
     0.000000000  0.000000000 11.602143288     0.000000000  0.000000000  0.086190971

  length of vectors
     9.009468079  6.777849674 11.602143288     0.110994344  0.147539419  0.086190971


 
 k-points in units of 2pi/SCALE and weight: k-density: 6.0                          
   0.00000000  0.00000000  0.00000000       0.008
   0.02219887  0.00000000  0.00000000       0.017
   0.04439774  0.00000000  0.00000000       0.017
   0.00000000  0.02458990  0.00000000       0.017
   0.02219887  0.02458990  0.00000000       0.033
   0.04439774  0.02458990  0.00000000       0.033
   0.00000000  0.04917981  0.00000000       0.017
   0.02219887  0.04917981  0.00000000       0.033
   0.04439774  0.04917981  0.00000000       0.033
   0.00000000  0.07376971  0.00000000       0.008
   0.02219887  0.07376971  0.00000000       0.017
   0.04439774  0.07376971  0.00000000       0.017
   0.00000000  0.00000000  0.02154774       0.017
   0.02219887  0.00000000  0.02154774       0.033
   0.04439774  0.00000000  0.02154774       0.033
   0.00000000  0.02458990  0.02154774       0.033
   0.02219887  0.02458990  0.02154774       0.067
   0.04439774  0.02458990  0.02154774       0.067
   0.00000000  0.04917981  0.02154774       0.033
   0.02219887  0.04917981  0.02154774       0.067
   0.04439774  0.04917981  0.02154774       0.067
   0.00000000  0.07376971  0.02154774       0.017
   0.02219887  0.07376971  0.02154774       0.033
   0.04439774  0.07376971  0.02154774       0.033
   0.00000000  0.00000000  0.04309549       0.008
   0.02219887  0.00000000  0.04309549       0.017
   0.04439774  0.00000000  0.04309549       0.017
   0.00000000  0.02458990  0.04309549       0.017
   0.02219887  0.02458990  0.04309549       0.033
   0.04439774  0.02458990  0.04309549       0.033
   0.00000000  0.04917981  0.04309549       0.017
   0.02219887  0.04917981  0.04309549       0.033
   0.04439774  0.04917981  0.04309549       0.033
   0.00000000  0.07376971  0.04309549       0.008
   0.02219887  0.07376971  0.04309549       0.017
   0.04439774  0.07376971  0.04309549       0.017
 
 k-points in reciprocal lattice and weights: k-density: 6.0                          
   0.00000000  0.00000000  0.00000000       0.008
   0.20000000  0.00000000  0.00000000       0.017
   0.40000000  0.00000000  0.00000000       0.017
   0.00000000  0.16666667  0.00000000       0.017
   0.20000000  0.16666667  0.00000000       0.033
   0.40000000  0.16666667  0.00000000       0.033
   0.00000000  0.33333333  0.00000000       0.017
   0.20000000  0.33333333  0.00000000       0.033
   0.40000000  0.33333333  0.00000000       0.033
   0.00000000  0.50000000  0.00000000       0.008
   0.20000000  0.50000000  0.00000000       0.017
   0.40000000  0.50000000  0.00000000       0.017
   0.00000000  0.00000000  0.25000000       0.017
   0.20000000  0.00000000  0.25000000       0.033
   0.40000000  0.00000000  0.25000000       0.033
   0.00000000  0.16666667  0.25000000       0.033
   0.20000000  0.16666667  0.25000000       0.067
   0.40000000  0.16666667  0.25000000       0.067
   0.00000000  0.33333333  0.25000000       0.033
   0.20000000  0.33333333  0.25000000       0.067
   0.40000000  0.33333333  0.25000000       0.067
   0.00000000  0.50000000  0.25000000       0.017
   0.20000000  0.50000000  0.25000000       0.033
   0.40000000  0.50000000  0.25000000       0.033
   0.00000000  0.00000000  0.50000000       0.008
   0.20000000  0.00000000  0.50000000       0.017
   0.40000000  0.00000000  0.50000000       0.017
   0.00000000  0.16666667  0.50000000       0.017
   0.20000000  0.16666667  0.50000000       0.033
   0.40000000  0.16666667  0.50000000       0.033
   0.00000000  0.33333333  0.50000000       0.017
   0.20000000  0.33333333  0.50000000       0.033
   0.40000000  0.33333333  0.50000000       0.033
   0.00000000  0.50000000  0.50000000       0.008
   0.20000000  0.50000000  0.50000000       0.017
   0.40000000  0.50000000  0.50000000       0.017
 
 position of ions in fractional coordinates (direct lattice) 
   0.01517300  0.25000000  0.69130999
   0.98482700  0.75000002  0.30869001
   0.48482700  0.75000002  0.19130993
   0.51517300  0.25000000  0.80869005
   0.15930900  0.75000002  0.90664998
   0.84069100  0.25000000  0.09335000
   0.34069100  0.25000000  0.40665007
   0.65930900  0.75000002  0.59334998
   0.19427001  0.07254100  0.14674400
   0.80572999  0.92745899  0.85325598
   0.30572999  0.92745899  0.64674402
   0.69427001  0.07254100  0.35325598
   0.80572999  0.57254101  0.85325598
   0.19427001  0.42745899  0.14674400
   0.69427001  0.42745899  0.35325598
   0.30572999  0.57254101  0.64674402
   0.08290500  0.75000002  0.59200102
   0.91709498  0.25000000  0.40799898
   0.41709501  0.25000000  0.09200096
   0.58290502  0.75000002  0.90799902
   0.19769400  0.25000000  0.96694000
   0.80230599  0.75000002  0.03306002
   0.30230599  0.75000002  0.46693992
   0.69769401  0.25000000  0.53306000
 
 position of ions in cartesian coordinates  (Angst):
   0.13670066  1.69446242  8.02067757
   8.87276745  5.08338737  3.58146572
   4.36803341  5.08338737  2.21960521
   4.64143467  1.69446242  9.38253784
   1.43528938  5.08338737 10.51908302
   7.57417870  1.69446242  1.08306003
   3.06944466  1.69446242  4.71801233
   5.94002342  5.08338737  6.88413143
   1.75026941  0.49167198  1.70254493
   7.25919867  6.28617763  9.89959812
   2.75446463  6.28617763  7.50361681
   6.25500345  0.49167198  4.09852648
   7.25919867  3.88059688  9.89959812
   1.75026941  2.89725280  1.70254493
   6.25500345  2.89725280  4.09852648
   2.75446463  3.88059688  7.50361681
   0.74692994  5.08338737  6.86848068
   8.26253796  1.69446242  4.73366260
   3.75780416  1.69446242  1.06740832
   5.25166416  5.08338737 10.53473473
   1.78111780  1.69446242 11.21857643
   7.22835016  5.08338737  0.38356703
   2.72361612  5.08338737  5.41750383
   6.28585196  1.69446242  6.18463850
 


--------------------------------------------------------------------------------------------------------


 k-point  1 :   0.0000 0.0000 0.0000  plane waves:   18015
 k-point  2 :   0.2000 0.0000 0.0000  plane waves:   18061
 k-point  3 :   0.4000 0.0000 0.0000  plane waves:   17963
 k-point  4 :   0.0000 0.1667 0.0000  plane waves:   17981
 k-point  5 :   0.2000 0.1667 0.0000  plane waves:   17995
 k-point  6 :   0.4000 0.1667 0.0000  plane waves:   17998
 k-point  7 :   0.0000 0.3333 0.0000  plane waves:   17997
 k-point  8 :   0.2000 0.3333 0.0000  plane waves:   17955
 k-point  9 :   0.4000 0.3333 0.0000  plane waves:   17977
 k-point 10 :   0.0000 0.5000 0.0000  plane waves:   17944
 k-point 11 :   0.2000 0.5000 0.0000  plane waves:   17950
 k-point 12 :   0.4000 0.5000 0.0000  plane waves:   17980
 k-point 13 :   0.0000 0.0000 0.2500  plane waves:   18014
 k-point 14 :   0.2000 0.0000 0.2500  plane waves:   18010
 k-point 15 :   0.4000 0.0000 0.2500  plane waves:   17976
 k-point 16 :   0.0000 0.1667 0.2500  plane waves:   17994
 k-point 17 :   0.2000 0.1667 0.2500  plane waves:   18005
 k-point 18 :   0.4000 0.1667 0.2500  plane waves:   17983
 k-point 19 :   0.0000 0.3333 0.2500  plane waves:   17983
 k-point 20 :   0.2000 0.3333 0.2500  plane waves:   17976
 k-point 21 :   0.4000 0.3333 0.2500  plane waves:   17972
 k-point 22 :   0.0000 0.5000 0.2500  plane waves:   17960
 k-point 23 :   0.2000 0.5000 0.2500  plane waves:   17998
 k-point 24 :   0.4000 0.5000 0.2500  plane waves:   17972
 k-point 25 :   0.0000 0.0000 0.5000  plane waves:   17962
 k-point 26 :   0.2000 0.0000 0.5000  plane waves:   17982
 k-point 27 :   0.4000 0.0000 0.5000  plane waves:   17990
 k-point 28 :   0.0000 0.1667 0.5000  plane waves:   17998
 k-point 29 :   0.2000 0.1667 0.5000  plane waves:   17996
 k-point 30 :   0.4000 0.1667 0.5000  plane waves:   17998
 k-point 31 :   0.0000 0.3333 0.5000  plane waves:   18010
 k-point 32 :   0.2000 0.3333 0.5000  plane waves:   18006
 k-point 33 :   0.4000 0.3333 0.5000  plane waves:   17968
 k-point 34 :   0.0000 0.5000 0.5000  plane waves:   18004
 k-point 35 :   0.2000 0.5000 0.5000  plane waves:   18000
 k-point 36 :   0.4000 0.5000 0.5000  plane waves:   17992

 maximum and minimum number of plane-waves per node :      4533     4466

 maximum number of plane-waves:     18061
 maximum index in each direction: 
   IXMAX=   16   IYMAX=   12   IZMAX=   21
   IXMIN=  -16   IYMIN=  -12   IZMIN=  -21


 real space projection operators:
  total allocation   :       4328.62 KBytes
  max/ min on nodes  :       1126.75       1037.56


 parallel 3D FFT for wavefunctions:
    minimum data exchange during FFTs selected (reduces bandwidth)
 parallel 3D FFT for charge:
    minimum data exchange during FFTs selected (reduces bandwidth)


 total amount of memory used by VASP MPI-rank0    67772. kBytes
=======================================================================

   base      :      30000. kBytes
   nonlr-proj:       2580. kBytes
   fftplans  :       2347. kBytes
   grid      :       3658. kBytes
   one-center:         93. kBytes
   wavefun   :      29094. kBytes
 
     INWAV:  cpu time    0.0001: real time    0.0002
 Broyden mixing: mesh for mixing (old mesh)
   NGX = 33   NGY = 25   NGZ = 43
  (NGX  =100   NGY  = 80   NGZ  =128)
  gives a total of  35475 points

 initial charge density was supplied:
 charge density of overlapping atoms calculated
 number of electron     144.0000000 magnetization 
 keeping initial charge density in first step


--------------------------------------------------------------------------------------------------------


 Maximum index for non-local projection operator          837
 Maximum index for augmentation-charges         1190 (set IRDMAX)


--------------------------------------------------------------------------------------------------------


 First call to EWALD:  gamma=   0.199
 Maximum number of real-space cells 3x 3x 2
 Maximum number of reciprocal cells 3x 2x 3

    FEWALD:  cpu time    0.0408: real time    0.0409


--------------------------------------- Iteration      1(   1)  ---------------------------------------


    POTLOK:  cpu time    0.0142: real time    0.0351
    SETDIJ:  cpu time    0.1052: real time    0.1056
     EDDAV:  cpu time    2.4406: real time    2.4725
 BZINTS: Fermi energy: 11.178683;144.000000 electrons
         Band energy:  53.754800;  BLOECHL correction: -0.050779
       DOS:  cpu time    0.0472: real time    0.0476
    --------------------------------------------
      LOOP:  cpu time    2.6073: real time    2.6608

 eigenvalue-minimisations  :  6336
 total energy-change (2. order) : 0.8267794E+03  (-0.5714391E+04)
 number of electron     144.0000000 magnetization 
 augmentation part      144.0000000 magnetization 

 Free energy of the ion-electron system (eV)
  ---------------------------------------------------
  alpha Z        PSCENC =       443.28406406
  Ewald energy   TEWEN  =     -6374.53395873
  -Hartree energ DENC   =      -922.96023404
  -exchange      EXHF   =         0.00000000
  -V(xc)+E(xc)   XCENC  =        51.92115468
  PAW double counting   =      3711.26622449    -3423.01674647
  entropy T*S    EENTRO =         0.00000000
  eigenvalues    EBANDS =        53.75479995
  atomic energy  EATOM  =      7287.06411261
  Solvation  Ediel_sol  =         0.00000000
  ---------------------------------------------------
  free energy    TOTEN  =       826.77941656 eV

  energy without entropy =      826.77941656  energy(sigma->0) =      826.77941656


--------------------------------------------------------------------------------------------------------




--------------------------------------- Iteration      1(   2)  ---------------------------------------


     EDDAV:  cpu time    3.0717: real time    3.0797
 BZINTS: Fermi energy:  4.623944;144.000000 electrons
         Band energy:-818.266990;  BLOECHL correction: -0.001081
       DOS:  cpu time    0.0379: real time    0.0380
    --------------------------------------------
      LOOP:  cpu time    3.1096: real time    3.1177

 eigenvalue-minimisations  :  8584
 total energy-change (2. order) :-0.8720218E+03  (-0.8437107E+03)
 number of electron     144.0000000 magnetization 
 augmentation part      144.0000000 magnetization 

 Free energy of the ion-electron system (eV)
  ---------------------------------------------------
  alpha Z        PSCENC =       443.28406406
  Ewald energy   TEWEN  =     -6374.53395873
  -Hartree energ DENC   =      -922.96023404
  -exchange      EXHF   =         0.00000000
  -V(xc)+E(xc)   XCENC  =        51.92115468
  PAW double counting   =      3711.26622449    -3423.01674647
  entropy T*S    EENTRO =         0.00000000
  eigenvalues    EBANDS =      -818.26698984
  atomic energy  EATOM  =      7287.06411261
  Solvation  Ediel_sol  =         0.00000000
  ---------------------------------------------------
  free energy    TOTEN  =       -45.24237323 eV

  energy without entropy =      -45.24237323  energy(sigma->0) =      -45.24237323


--------------------------------------------------------------------------------------------------------




--------------------------------------- Iteration      1(   3)  ---------------------------------------


     EDDAV:  cpu time    2.9199: real time    2.9277
 BZINTS: Fermi energy:  2.723147;144.000000 electrons
         Band energy:-896.603444;  BLOECHL correction:  0.000000
       DOS:  cpu time    0.0082: real time    0.0082
    --------------------------------------------
      LOOP:  cpu time    2.9281: real time    2.9359

 eigenvalue-minimisations  :  7776
 total energy-change (2. order) :-0.7833645E+02  (-0.7748999E+02)
 number of electron     144.0000000 magnetization 
 augmentation part      144.0000000 magnetization 

 Free energy of the ion-electron system (eV)
  ---------------------------------------------------
  alpha Z        PSCENC =       443.28406406
  Ewald energy   TEWEN  =     -6374.53395873
  -Hartree energ DENC   =      -922.96023404
  -exchange      EXHF   =         0.00000000
  -V(xc)+E(xc)   XCENC  =        51.92115468
  PAW double counting   =      3711.26622449    -3423.01674647
  entropy T*S    EENTRO =         0.00000000
  eigenvalues    EBANDS =      -896.60344391
  atomic energy  EATOM  =      7287.06411261
  Solvation  Ediel_sol  =         0.00000000
  ---------------------------------------------------
  free energy    TOTEN  =      -123.57882731 eV

  energy without entropy =     -123.57882731  energy(sigma->0) =     -123.57882731


--------------------------------------------------------------------------------------------------------




--------------------------------------- Iteration      1(   4)  ---------------------------------------


     EDDAV:  cpu time    3.5145: real time    3.5234
 BZINTS: Fermi energy:  2.726083;144.000000 electrons
         Band energy:-899.213961;  BLOECHL correction:  0.000000
       DOS:  cpu time    0.0082: real time    0.0082
    --------------------------------------------
      LOOP:  cpu time    3.5227: real time    3.5316

 eigenvalue-minimisations  :  9488
 total energy-change (2. order) :-0.2610517E+01  (-0.2603468E+01)
 number of electron     144.0000000 magnetization 
 augmentation part      144.0000000 magnetization 

 Free energy of the ion-electron system (eV)
  ---------------------------------------------------
  alpha Z        PSCENC =       443.28406406
  Ewald energy   TEWEN  =     -6374.53395873
  -Hartree energ DENC   =      -922.96023404
  -exchange      EXHF   =         0.00000000
  -V(xc)+E(xc)   XCENC  =        51.92115468
  PAW double counting   =      3711.26622449    -3423.01674647
  entropy T*S    EENTRO =         0.00000000
  eigenvalues    EBANDS =      -899.21396138
  atomic energy  EATOM  =      7287.06411261
  Solvation  Ediel_sol  =         0.00000000
  ---------------------------------------------------
  free energy    TOTEN  =      -126.18934477 eV

  energy without entropy =     -126.18934477  energy(sigma->0) =     -126.18934477


--------------------------------------------------------------------------------------------------------




--------------------------------------- Iteration      1(   5)  ---------------------------------------


     EDDAV:  cpu time    3.1266: real time    3.1346
 BZINTS: Fermi energy:  2.710207;144.000000 electrons
         Band energy:-899.294822;  BLOECHL correction:  0.000000
       DOS:  cpu time    0.0081: real time    0.0081
    CHARGE:  cpu time    0.0890: real time    0.0895
    MIXING:  cpu time    0.0041: real time    0.0047
    --------------------------------------------
      LOOP:  cpu time    3.2278: real time    3.2369

 eigenvalue-minimisations  :  8336
 total energy-change (2. order) :-0.8086073E-01  (-0.8081910E-01)
 number of electron     144.0000001 magnetization 
 augmentation part      -16.8571141 magnetization 

 Broyden mixing:
  rms(total) = 0.84689E+00    rms(broyden)= 0.84688E+00
  rms(prec ) = 0.13352E+01
  weight for this iteration     100.00

 Free energy of the ion-electron system (eV)
  ---------------------------------------------------
  alpha Z        PSCENC =       443.28406406
  Ewald energy   TEWEN  =     -6374.53395873
  -Hartree energ DENC   =      -922.96023404
  -exchange      EXHF   =         0.00000000
  -V(xc)+E(xc)   XCENC  =        51.92115468
  PAW double counting   =      3711.26622449    -3423.01674647
  entropy T*S    EENTRO =         0.00000000
  eigenvalues    EBANDS =      -899.29482211
  atomic energy  EATOM  =      7287.06411261
  Solvation  Ediel_sol  =         0.00000000
  ---------------------------------------------------
  free energy    TOTEN  =      -126.27020550 eV

  energy without entropy =     -126.27020550  energy(sigma->0) =     -126.27020550


--------------------------------------------------------------------------------------------------------




--------------------------------------- Iteration      1(   6)  ---------------------------------------


    POTLOK:  cpu time    0.0159: real time    0.0170
    SETDIJ:  cpu time    0.0040: real time    0.0040
     EDDAV:  cpu time    2.8805: real time    2.8873
 BZINTS: Fermi energy:  3.138542;144.000000 electrons
         Band energy:-882.456730;  BLOECHL correction:  0.000000
       DOS:  cpu time    0.0082: real time    0.0082
    CHARGE:  cpu time    0.0826: real time    0.0828
    MIXING:  cpu time    0.0034: real time    0.0034
    --------------------------------------------
      LOOP:  cpu time    2.9946: real time    3.0028

 eigenvalue-minimisations  :  7416
 total energy-change (2. order) : 0.4098332E+01  (-0.1242466E+01)
 number of electron     144.0000000 magnetization 
 augmentation part      -16.7911561 magnetization 

 Broyden mixing:
  rms(total) = 0.42138E+00    rms(broyden)= 0.42138E+00
  rms(prec ) = 0.54262E+00
  weight for this iteration     100.00

 eigenvalues of (default mixing * dielectric matrix)
  average eigenvalue GAMMA=   1.6782
  1.6782

 Free energy of the ion-electron system (eV)
  ---------------------------------------------------
  alpha Z        PSCENC =       443.28406406
  Ewald energy   TEWEN  =     -6374.53395873
  -Hartree energ DENC   =      -930.06589963
  -exchange      EXHF   =         0.00000000
  -V(xc)+E(xc)   XCENC  =        53.95815128
  PAW double counting   =      3751.72784031    -3471.14945379
  entropy T*S    EENTRO =         0.00000000
  eigenvalues    EBANDS =      -882.45673011
  atomic energy  EATOM  =      7287.06411261
  Solvation  Ediel_sol  =         0.00000000
  ---------------------------------------------------
  free energy    TOTEN  =      -122.17187399 eV

  energy without entropy =     -122.17187399  energy(sigma->0) =     -122.17187399


--------------------------------------------------------------------------------------------------------




--------------------------------------- Iteration      1(   7)  ---------------------------------------


    POTLOK:  cpu time    0.0176: real time    0.0182
    SETDIJ:  cpu time    0.0029: real time    0.0029
     EDDAV:  cpu time    3.2000: real time    3.2076
 BZINTS: Fermi energy:  3.319309;144.000000 electrons
         Band energy:-877.827273;  BLOECHL correction:  0.000000
       DOS:  cpu time    0.0081: real time    0.0081
    CHARGE:  cpu time    0.0921: real time    0.0955
    MIXING:  cpu time    0.0029: real time    0.0032
    --------------------------------------------
      LOOP:  cpu time    3.3237: real time    3.3356

 eigenvalue-minimisations  :  8712
 total energy-change (2. order) : 0.1086789E+00  (-0.4047433E+00)
 number of electron     144.0000000 magnetization 
 augmentation part      -16.9059125 magnetization 

 Broyden mixing:
  rms(total) = 0.18511E+00    rms(broyden)= 0.18511E+00
  rms(prec ) = 0.23485E+00
  weight for this iteration     100.00

 eigenvalues of (default mixing * dielectric matrix)
  average eigenvalue GAMMA=   1.7715
  1.6441  1.8989

 Free energy of the ion-electron system (eV)
  ---------------------------------------------------
  alpha Z        PSCENC =       443.28406406
  Ewald energy   TEWEN  =     -6374.53395873
  -Hartree energ DENC   =      -930.01167828
  -exchange      EXHF   =         0.00000000
  -V(xc)+E(xc)   XCENC  =        55.37458782
  PAW double counting   =      3801.18069931    -3526.59374893
  entropy T*S    EENTRO =         0.00000000
  eigenvalues    EBANDS =      -877.82727291
  atomic energy  EATOM  =      7287.06411261
  Solvation  Ediel_sol  =         0.00000000
  ---------------------------------------------------
  free energy    TOTEN  =      -122.06319504 eV

  energy without entropy =     -122.06319504  energy(sigma->0) =     -122.06319504


--------------------------------------------------------------------------------------------------------




--------------------------------------- Iteration      1(   8)  ---------------------------------------


    POTLOK:  cpu time    0.0171: real time    0.0178
    SETDIJ:  cpu time    0.0046: real time    0.0046
     EDDAV:  cpu time    2.6421: real time    2.6484
 BZINTS: Fermi energy:  3.297709;144.000000 electrons
         Band energy:-877.836045;  BLOECHL correction:  0.000000
       DOS:  cpu time    0.0093: real time    0.0094
    CHARGE:  cpu time    0.0934: real time    0.0937
    MIXING:  cpu time    0.0034: real time    0.0038
    --------------------------------------------
      LOOP:  cpu time    2.7700: real time    2.7775

 eigenvalue-minimisations  :  7088
 total energy-change (2. order) : 0.1232427E-01  (-0.1159182E+00)
 number of electron     144.0000001 magnetization 
 augmentation part      -17.0000060 magnetization 

 Broyden mixing:
  rms(total) = 0.69901E-01    rms(broyden)= 0.69901E-01
  rms(prec ) = 0.12851E+00
  weight for this iteration     100.00

 eigenvalues of (default mixing * dielectric matrix)
  average eigenvalue GAMMA=   1.6010
  2.4896  1.1567  1.1567

 Free energy of the ion-electron system (eV)
  ---------------------------------------------------
  alpha Z        PSCENC =       443.28406406
  Ewald energy   TEWEN  =     -6374.53395873
  -Hartree energ DENC   =      -927.91802687
  -exchange      EXHF   =         0.00000000
  -V(xc)+E(xc)   XCENC  =        56.05651876
  PAW double counting   =      3850.88518230    -3579.05271793
  entropy T*S    EENTRO =         0.00000000
  eigenvalues    EBANDS =      -877.83604498
  atomic energy  EATOM  =      7287.06411261
  Solvation  Ediel_sol  =         0.00000000
  ---------------------------------------------------
  free energy    TOTEN  =      -122.05087078 eV

  energy without entropy =     -122.05087078  energy(sigma->0) =     -122.05087078


--------------------------------------------------------------------------------------------------------




--------------------------------------- Iteration      1(   9)  ---------------------------------------


    POTLOK:  cpu time    0.0168: real time    0.0176
    SETDIJ:  cpu time    0.0037: real time    0.0037
     EDDAV:  cpu time    2.7078: real time    2.7141
 BZINTS: Fermi energy:  3.303099;144.000000 electrons
         Band energy:-875.395123;  BLOECHL correction:  0.000000
       DOS:  cpu time    0.0081: real time    0.0081
    CHARGE:  cpu time    0.0844: real time    0.0846
    MIXING:  cpu time    0.0032: real time    0.0033
    --------------------------------------------
      LOOP:  cpu time    2.8240: real time    2.8315

 eigenvalue-minimisations  :  7368
 total energy-change (2. order) : 0.4719780E-01  (-0.3030124E-01)
 number of electron     144.0000000 magnetization 
 augmentation part      -16.9917378 magnetization 

 Broyden mixing:
  rms(total) = 0.12551E-01    rms(broyden)= 0.12551E-01
  rms(prec ) = 0.14831E-01
  weight for this iteration     100.00

 eigenvalues of (default mixing * dielectric matrix)
  average eigenvalue GAMMA=   1.6392
  2.1371  2.1371  1.1414  1.1414

 Free energy of the ion-electron system (eV)
  ---------------------------------------------------
  alpha Z        PSCENC =       443.28406406
  Ewald energy   TEWEN  =     -6374.53395873
  -Hartree energ DENC   =      -929.70255244
  -exchange      EXHF   =         0.00000000
  -V(xc)+E(xc)   XCENC  =        56.47258403
  PAW double counting   =      3859.23253213    -3588.42533124
  entropy T*S    EENTRO =         0.00000000
  eigenvalues    EBANDS =      -875.39512339
  atomic energy  EATOM  =      7287.06411261
  Solvation  Ediel_sol  =         0.00000000
  ---------------------------------------------------
  free energy    TOTEN  =      -122.00367297 eV

  energy without entropy =     -122.00367297  energy(sigma->0) =     -122.00367297


--------------------------------------------------------------------------------------------------------




--------------------------------------- Iteration      1(  10)  ---------------------------------------


    POTLOK:  cpu time    0.0167: real time    0.0173
    SETDIJ:  cpu time    0.0028: real time    0.0028
     EDDAV:  cpu time    3.1322: real time    3.1396
 BZINTS: Fermi energy:  3.298088;144.000000 electrons
         Band energy:-875.431445;  BLOECHL correction:  0.000000
       DOS:  cpu time    0.0081: real time    0.0082
    CHARGE:  cpu time    0.0880: real time    0.0882
    MIXING:  cpu time    0.0030: real time    0.0030
    --------------------------------------------
      LOOP:  cpu time    3.2508: real time    3.2591

 eigenvalue-minimisations  :  8528
 total energy-change (2. order) :-0.3070273E-02  (-0.2943808E-02)
 number of electron     144.0000000 magnetization 
 augmentation part      -17.0139074 magnetization 

 Broyden mixing:
  rms(total) = 0.98051E-02    rms(broyden)= 0.98051E-02
  rms(prec ) = 0.14394E-01
  weight for this iteration     100.00

 eigenvalues of (default mixing * dielectric matrix)
  average eigenvalue GAMMA=   1.7006
  2.7374  2.7374  1.0891  1.0891  0.8500

 Free energy of the ion-electron system (eV)
  ---------------------------------------------------
  alpha Z        PSCENC =       443.28406406
  Ewald energy   TEWEN  =     -6374.53395873
  -Hartree energ DENC   =      -929.88888755
  -exchange      EXHF   =         0.00000000
  -V(xc)+E(xc)   XCENC  =        56.45035585
  PAW double counting   =      3858.98349462    -3587.93447936
  entropy T*S    EENTRO =         0.00000000
  eigenvalues    EBANDS =      -875.43144475
  atomic energy  EATOM  =      7287.06411261
  Solvation  Ediel_sol  =         0.00000000
  ---------------------------------------------------
  free energy    TOTEN  =      -122.00674325 eV

  energy without entropy =     -122.00674325  energy(sigma->0) =     -122.00674325


--------------------------------------------------------------------------------------------------------




--------------------------------------- Iteration      1(  11)  ---------------------------------------


    POTLOK:  cpu time    0.0160: real time    0.0167
    SETDIJ:  cpu time    0.0034: real time    0.0034
     EDDAV:  cpu time    3.0454: real time    3.0526
 BZINTS: Fermi energy:  3.295187;144.000000 electrons
         Band energy:-875.262797;  BLOECHL correction:  0.000000
       DOS:  cpu time    0.0081: real time    0.0081
    CHARGE:  cpu time    0.0903: real time    0.0905
    MIXING:  cpu time    0.0032: real time    0.0033
    --------------------------------------------
      LOOP:  cpu time    3.1665: real time    3.1746

 eigenvalue-minimisations  :  7720
 total energy-change (2. order) : 0.2409699E-03  (-0.1812462E-03)
 number of electron     144.0000000 magnetization 
 augmentation part      -17.0176353 magnetization 

 Broyden mixing:
  rms(total) = 0.28042E-02    rms(broyden)= 0.28042E-02
  rms(prec ) = 0.42535E-02
  weight for this iteration     100.00

 eigenvalues of (default mixing * dielectric matrix)
  average eigenvalue GAMMA=   1.5960
  2.5676  2.5676  1.1610  1.1610  1.0595  1.0595

 Free energy of the ion-electron system (eV)
  ---------------------------------------------------
  alpha Z        PSCENC =       443.28406406
  Ewald energy   TEWEN  =     -6374.53395873
  -Hartree energ DENC   =      -930.17482187
  -exchange      EXHF   =         0.00000000
  -V(xc)+E(xc)   XCENC  =        56.47358422
  PAW double counting   =      3860.96428940    -3589.82097485
  entropy T*S    EENTRO =         0.00000000
  eigenvalues    EBANDS =      -875.26279712
  atomic energy  EATOM  =      7287.06411261
  Solvation  Ediel_sol  =         0.00000000
  ---------------------------------------------------
  free energy    TOTEN  =      -122.00650228 eV

  energy without entropy =     -122.00650228  energy(sigma->0) =     -122.00650228


--------------------------------------------------------------------------------------------------------




--------------------------------------- Iteration      1(  12)  ---------------------------------------


    POTLOK:  cpu time    0.0167: real time    0.0174
    SETDIJ:  cpu time    0.0031: real time    0.0031
     EDDAV:  cpu time    3.2836: real time    3.2914
 BZINTS: Fermi energy:  3.291890;144.000000 electrons
         Band energy:-875.207521;  BLOECHL correction:  0.000000
       DOS:  cpu time    0.0081: real time    0.0081
    CHARGE:  cpu time    0.0881: real time    0.0883
    MIXING:  cpu time    0.0034: real time    0.0034
    --------------------------------------------
      LOOP:  cpu time    3.4031: real time    3.4118

 eigenvalue-minimisations  :  8704
 total energy-change (2. order) : 0.9859676E-05  (-0.2021796E-04)
 number of electron     144.0000000 magnetization 
 augmentation part      -17.0171293 magnetization 

 Broyden mixing:
  rms(total) = 0.16715E-02    rms(broyden)= 0.16715E-02
  rms(prec ) = 0.25983E-02
  weight for this iteration     100.00

 eigenvalues of (default mixing * dielectric matrix)
  average eigenvalue GAMMA=   1.6541
  2.9983  2.6231  1.7071  1.0730  1.0730  1.2054  0.8990

 Free energy of the ion-electron system (eV)
  ---------------------------------------------------
  alpha Z        PSCENC =       443.28406406
  Ewald energy   TEWEN  =     -6374.53395873
  -Hartree energ DENC   =      -930.21017624
  -exchange      EXHF   =         0.00000000
  -V(xc)+E(xc)   XCENC  =        56.48407212
  PAW double counting   =      3861.37746780    -3590.26455286
  entropy T*S    EENTRO =         0.00000000
  eigenvalues    EBANDS =      -875.20752118
  atomic energy  EATOM  =      7287.06411261
  Solvation  Ediel_sol  =         0.00000000
  ---------------------------------------------------
  free energy    TOTEN  =      -122.00649242 eV

  energy without entropy =     -122.00649242  energy(sigma->0) =     -122.00649242


--------------------------------------------------------------------------------------------------------




--------------------------------------- Iteration      1(  13)  ---------------------------------------


    POTLOK:  cpu time    0.0159: real time    0.0165
    SETDIJ:  cpu time    0.0036: real time    0.0036
     EDDAV:  cpu time    2.9182: real time    2.9250
 BZINTS: Fermi energy:  3.289181;144.000000 electrons
         Band energy:-875.185011;  BLOECHL correction:  0.000000
       DOS:  cpu time    0.0082: real time    0.0082
    CHARGE:  cpu time    0.1017: real time    0.1020
    MIXING:  cpu time    0.0036: real time    0.0037
    --------------------------------------------
      LOOP:  cpu time    3.0512: real time    3.0590

 eigenvalue-minimisations  :  7448
 total energy-change (2. order) : 0.1307186E-04  (-0.1379442E-04)
 number of electron     144.0000000 magnetization 
 augmentation part      -17.0168360 magnetization 

 Broyden mixing:
  rms(total) = 0.44076E-03    rms(broyden)= 0.44076E-03
  rms(prec ) = 0.70621E-03
  weight for this iteration     100.00

 eigenvalues of (default mixing * dielectric matrix)
  average eigenvalue GAMMA=   1.5808
  2.9313  2.4153  2.1010  1.0949  1.0949  1.0340  0.9877  0.9877

 Free energy of the ion-electron system (eV)
  ---------------------------------------------------
  alpha Z        PSCENC =       443.28406406
  Ewald energy   TEWEN  =     -6374.53395873
  -Hartree energ DENC   =      -930.25509834
  -exchange      EXHF   =         0.00000000
  -V(xc)+E(xc)   XCENC  =        56.48509874
  PAW double counting   =      3861.58538201    -3590.45106868
  entropy T*S    EENTRO =         0.00000000
  eigenvalues    EBANDS =      -875.18501102
  atomic energy  EATOM  =      7287.06411261
  Solvation  Ediel_sol  =         0.00000000
  ---------------------------------------------------
  free energy    TOTEN  =      -122.00647934 eV

  energy without entropy =     -122.00647934  energy(sigma->0) =     -122.00647934


--------------------------------------------------------------------------------------------------------




--------------------------------------- Iteration      1(  14)  ---------------------------------------


    POTLOK:  cpu time    0.0169: real time    0.0175
    SETDIJ:  cpu time    0.0038: real time    0.0038
     EDDAV:  cpu time    2.4874: real time    2.4933
 BZINTS: Fermi energy:  3.286887;144.000000 electrons
         Band energy:-875.175616;  BLOECHL correction:  0.000000
       DOS:  cpu time    0.0080: real time    0.0080
    CHARGE:  cpu time    0.0848: real time    0.0850
    MIXING:  cpu time    0.0030: real time    0.0030
    --------------------------------------------
      LOOP:  cpu time    2.6040: real time    2.6108

 eigenvalue-minimisations  :  6064
 total energy-change (2. order) :-0.5076217E-06  (-0.2385572E-05)
 number of electron     144.0000000 magnetization 
 augmentation part      -17.0163333 magnetization 

 Broyden mixing:
  rms(total) = 0.14743E-03    rms(broyden)= 0.14743E-03
  rms(prec ) = 0.20069E-03
  weight for this iteration     100.00

 eigenvalues of (default mixing * dielectric matrix)
  average eigenvalue GAMMA=   1.6795
  3.1488  2.4602  2.4602  1.8488  1.1105  1.1105  1.0525  0.9619  0.9619

 Free energy of the ion-electron system (eV)
  ---------------------------------------------------
  alpha Z        PSCENC =       443.28406406
  Ewald energy   TEWEN  =     -6374.53395873
  -Hartree energ DENC   =      -930.25743193
  -exchange      EXHF   =         0.00000000
  -V(xc)+E(xc)   XCENC  =        56.48675885
  PAW double counting   =      3861.56043290    -3590.43484112
  entropy T*S    EENTRO =         0.00000000
  eigenvalues    EBANDS =      -875.17561649
  atomic energy  EATOM  =      7287.06411261
  Solvation  Ediel_sol  =         0.00000000
  ---------------------------------------------------
  free energy    TOTEN  =      -122.00647985 eV

  energy without entropy =     -122.00647985  energy(sigma->0) =     -122.00647985


--------------------------------------------------------------------------------------------------------




--------------------------------------- Iteration      1(  15)  ---------------------------------------


    POTLOK:  cpu time    0.0165: real time    0.0171
    SETDIJ:  cpu time    0.0035: real time    0.0035
     EDDAV:  cpu time    2.2486: real time    2.2539
 BZINTS: Fermi energy:  3.383327;144.000000 electrons
         Band energy:-875.179830;  BLOECHL correction:  0.000000
       DOS:  cpu time    0.0095: real time    0.0095
    --------------------------------------------
      LOOP:  cpu time    2.2780: real time    2.2839

 eigenvalue-minimisations  :  5376
 total energy-change (2. order) :-0.2274473E-06  (-0.2749995E-06)
 number of electron     144.0000000 magnetization 
 augmentation part      -17.0163333 magnetization 

 Free energy of the ion-electron system (eV)
  ---------------------------------------------------
  alpha Z        PSCENC =       443.28406406
  Ewald energy   TEWEN  =     -6374.53395873
  -Hartree energ DENC   =      -930.25338718
  -exchange      EXHF   =         0.00000000
  -V(xc)+E(xc)   XCENC  =        56.48636700
  PAW double counting   =      3861.53518942    -3590.40903761
  entropy T*S    EENTRO =         0.00000000
  eigenvalues    EBANDS =      -875.17982966
  atomic energy  EATOM  =      7287.06411261
  Solvation  Ediel_sol  =         0.00000000
  ---------------------------------------------------
  free energy    TOTEN  =      -122.00648008 eV

  energy without entropy =     -122.00648008  energy(sigma->0) =     -122.00648008


--------------------------------------------------------------------------------------------------------




 average (electrostatic) potential at core
  the test charge radii are     1.2192  0.9892
  (the norm of the test charge is              1.0000)
       1 -35.6533       2 -35.6533       3 -35.6533       4 -35.6533       5 -35.7395
       6 -35.7395       7 -35.7395       8 -35.7395       9 -86.9514      10 -86.9514
      11 -86.9514      12 -86.9514      13 -86.9514      14 -86.9514      15 -86.9514
      16 -86.9514      17 -87.0135      18 -87.0135      19 -87.0135      20 -87.0135
      21 -86.9140      22 -86.9140      23 -86.9139      24 -86.9139
 
 
 
 E-fermi :   3.3833     XC(G=0):  -9.0350     alpha+bet :-10.1856


 k-point     1 :       0.0000    0.0000    0.0000
  band No.  band energies     occupation 
      1     -24.3234      2.00000
      2     -24.3179      2.00000
      3     -24.3147      2.00000
      4     -24.3146      2.00000
      5     -24.2580      2.00000
      6     -24.2548      2.00000
      7     -24.2514      2.00000
      8     -24.2493      2.00000
      9      -9.8211      2.00000
     10      -9.8050      2.00000
     11      -9.7638      2.00000
     12      -9.7557      2.00000
     13      -9.7201      2.00000
     14      -9.6794      2.00000
     15      -9.6751      2.00000
     16      -9.6560      2.00000
     17      -9.6521      2.00000
     18      -9.6250      2.00000
     19      -9.6247      2.00000
     20      -9.6175      2.00000
     21      -9.5800      2.00000
     22      -9.5450      2.00000
     23      -9.5183      2.00000
     24      -9.5167      2.00000
     25      -9.5148      2.00000
     26      -9.4912      2.00000
     27      -9.4773      2.00000
     28      -9.4758      2.00000
     29      -9.4705      2.00000
     30      -9.4569      2.00000
     31      -9.4485      2.00000
     32      -9.4446      2.00000
     33      -7.4682      2.00000
     34      -7.2300      2.00000
     35      -7.1948      2.00000
     36      -7.1763      2.00000
     37      -2.8032      2.00000
     38      -2.7513      2.00000
     39      -2.4795      2.00000
     40      -2.4701      2.00000
     41      -2.3848      2.00000
     42      -2.3824      2.00000
     43      -2.3824      2.00000
     44      -2.3265      2.00000
     45      -2.2769      2.00000
     46      -2.2274      2.00000
     47      -2.1869      2.00000
     48      -2.0268      2.00000
     49      -0.2468      2.00000
     50       0.8085      2.00000
     51       0.9711      2.00000
     52       1.0161      2.00000
     53       1.0501      2.00000
     54       1.3212      2.00000
     55       1.5231      2.00000
     56       1.6048      2.00000
     57       1.6096      2.00000
     58       1.6523      2.00000
     59       1.6980      2.00000
     60       1.8963      2.00000
     61       1.9066      2.00000
     62       1.9146      2.00000
     63       2.0525      2.00000
     64       2.1705      2.00000
     65       2.2393      2.00000
     66       2.3124      2.00000
     67       2.3326      2.00000
     68       2.3525      2.00000
     69       2.6739      2.00000
     70       2.9122      2.00000
     71       2.9497      2.00000
     72       3.0946      2.00000
     73       4.2566      0.00000
     74       4.2857      0.00000
     75       4.5835      0.00000
     76       4.7310      0.00000
     77       4.7679      0.00000
     78       5.1072      0.00000
     79       5.1712      0.00000
     80       5.4475      0.00000
     81       5.5237      0.00000
     82       5.7597      0.00000
     83       5.8195      0.00000
     84       5.8233      0.00000
     85       5.8251      0.00000
     86       5.8421      0.00000
     87       5.9575      0.00000
     88       6.2351      0.00000

 k-point     2 :       0.2000    0.0000    0.0000
  band No.  band energies     occupation 
      1     -24.3227      2.00000
      2     -24.3182      2.00000
      3     -24.3149      2.00000
      4     -24.3148      2.00000
      5     -24.2574      2.00000
      6     -24.2543      2.00000
      7     -24.2519      2.00000
      8     -24.2499      2.00000
      9      -9.8294      2.00000
     10      -9.7849      2.00000
     11      -9.7730      2.00000
     12      -9.7543      2.00000
     13      -9.6948      2.00000
     14      -9.6704      2.00000
     15      -9.6677      2.00000
     16      -9.6630      2.00000
     17      -9.6574      2.00000
     18      -9.6320      2.00000
     19      -9.6267      2.00000
     20      -9.6259      2.00000
     21      -9.5965      2.00000
     22      -9.5313      2.00000
     23      -9.5273      2.00000
     24      -9.5123      2.00000
     25      -9.5092      2.00000
     26      -9.4910      2.00000
     27      -9.4828      2.00000
     28      -9.4770      2.00000
     29      -9.4709      2.00000
     30      -9.4665      2.00000
     31      -9.4583      2.00000
     32      -9.4454      2.00000
     33      -7.4304      2.00000
     34      -7.2175      2.00000
     35      -7.2097      2.00000
     36      -7.1737      2.00000
     37      -2.8028      2.00000
     38      -2.7485      2.00000
     39      -2.5631      2.00000
     40      -2.4707      2.00000
     41      -2.4622      2.00000
     42      -2.3629      2.00000
     43      -2.3321      2.00000
     44      -2.2986      2.00000
     45      -2.2711      2.00000
     46      -2.2539      2.00000
     47      -2.2047      2.00000
     48      -2.1660      2.00000
     49      -0.0895      2.00000
     50       0.9041      2.00000
     51       0.9079      2.00000
     52       0.9398      2.00000
     53       1.0426      2.00000
     54       1.4837      2.00000
     55       1.4991      2.00000
     56       1.6304      2.00000
     57       1.7140      2.00000
     58       1.7445      2.00000
     59       1.7998      2.00000
     60       1.8131      2.00000
     61       2.0114      2.00000
     62       2.0283      2.00000
     63       2.0442      2.00000
     64       2.2432      2.00000
     65       2.2524      2.00000
     66       2.2637      2.00000
     67       2.3219      2.00000
     68       2.3937      2.00000
     69       2.6564      2.00000
     70       2.8779      2.00000
     71       2.9495      2.00000
     72       3.0046      2.00000
     73       4.2246      0.00000
     74       4.3117      0.00000
     75       4.5422      0.00000
     76       4.7165      0.00000
     77       4.7357      0.00000
     78       5.0644      0.00000
     79       5.1380      0.00000
     80       5.1581      0.00000
     81       5.2110      0.00000
     82       5.5952      0.00000
     83       5.6205      0.00000
     84       5.8453      0.00000
     85       6.0775      0.00000
     86       6.1837      0.00000
     87       6.2499      0.00000
     88       6.2892      0.00000

 k-point     3 :       0.4000    0.0000    0.0000
  band No.  band energies     occupation 
      1     -24.3211      2.00000
      2     -24.3193      2.00000
      3     -24.3151      2.00000
      4     -24.3150      2.00000
      5     -24.2556      2.00000
      6     -24.2535      2.00000
      7     -24.2530      2.00000
      8     -24.2514      2.00000
      9      -9.8303      2.00000
     10      -9.8159      2.00000
     11      -9.7282      2.00000
     12      -9.7090      2.00000
     13      -9.6932      2.00000
     14      -9.6783      2.00000
     15      -9.6582      2.00000
     16      -9.6575      2.00000
     17      -9.6426      2.00000
     18      -9.6425      2.00000
     19      -9.6314      2.00000
     20      -9.6260      2.00000
     21      -9.6260      2.00000
     22      -9.5806      2.00000
     23      -9.5269      2.00000
     24      -9.5130      2.00000
     25      -9.4972      2.00000
     26      -9.4930      2.00000
     27      -9.4927      2.00000
     28      -9.4821      2.00000
     29      -9.4750      2.00000
     30      -9.4632      2.00000
     31      -9.4577      2.00000
     32      -9.4477      2.00000
     33      -7.3435      2.00000
     34      -7.2594      2.00000
     35      -7.1920      2.00000
     36      -7.1752      2.00000
     37      -2.7932      2.00000
     38      -2.7341      2.00000
     39      -2.6771      2.00000
     40      -2.5394      2.00000
     41      -2.4150      2.00000
     42      -2.3527      2.00000
     43      -2.3466      2.00000
     44      -2.3451      2.00000
     45      -2.3127      2.00000
     46      -2.2643      2.00000
     47      -2.2551      2.00000
     48      -2.2523      2.00000
     49       0.2443      2.00000
     50       0.6237      2.00000
     51       0.8704      2.00000
     52       0.8963      2.00000
     53       1.2895      2.00000
     54       1.4576      2.00000
     55       1.6979      2.00000
     56       1.7531      2.00000
     57       1.7670      2.00000
     58       1.7853      2.00000
     59       1.8504      2.00000
     60       1.9850      2.00000
     61       2.1132      2.00000
     62       2.1301      2.00000
     63       2.1332      2.00000
     64       2.2149      2.00000
     65       2.2908      2.00000
     66       2.3742      2.00000
     67       2.3820      2.00000
     68       2.5851      2.00000
     69       2.6721      2.00000
     70       2.6858      2.00000
     71       2.7809      2.00000
     72       2.8769      2.00000
     73       4.3795      0.00000
     74       4.4076      0.00000
     75       4.5029      0.00000
     76       4.5791      0.00000
     77       4.6448      0.00000
     78       4.6477      0.00000
     79       4.8797      0.00000
     80       4.9394      0.00000
     81       5.3461      0.00000
     82       5.6468      0.00000
     83       5.6477      0.00000
     84       5.7767      0.00000
     85       5.7860      0.00000
     86       5.9911      0.00000
     87       6.1255      0.00000
     88       6.2459      0.00000

 k-point     4 :       0.0000    0.1667    0.0000
  band No.  band energies     occupation 
      1     -24.3223      2.00000
      2     -24.3175      2.00000
      3     -24.3147      2.00000
      4     -24.3146      2.00000
      5     -24.2584      2.00000
      6     -24.2555      2.00000
      7     -24.2513      2.00000
      8     -24.2496      2.00000
      9      -9.8102      2.00000
     10      -9.8098      2.00000
     11      -9.8003      2.00000
     12      -9.7224      2.00000
     13      -9.7199      2.00000
     14      -9.7089      2.00000
     15      -9.7028      2.00000
     16      -9.7008      2.00000
     17      -9.6723      2.00000
     18      -9.6182      2.00000
     19      -9.5971      2.00000
     20      -9.5921      2.00000
     21      -9.5596      2.00000
     22      -9.5532      2.00000
     23      -9.5201      2.00000
     24      -9.5138      2.00000
     25      -9.5078      2.00000
     26      -9.5009      2.00000
     27      -9.4726      2.00000
     28      -9.4683      2.00000
     29      -9.4677      2.00000
     30      -9.4622      2.00000
     31      -9.4534      2.00000
     32      -9.4389      2.00000
     33      -7.4185      2.00000
     34      -7.2194      2.00000
     35      -7.1928      2.00000
     36      -7.1776      2.00000
     37      -2.7451      2.00000
     38      -2.6996      2.00000
     39      -2.4697      2.00000
     40      -2.4645      2.00000
     41      -2.4435      2.00000
     42      -2.4075      2.00000
     43      -2.3610      2.00000
     44      -2.3103      2.00000
     45      -2.3044      2.00000
     46      -2.2604      2.00000
     47      -2.2228      2.00000
     48      -2.0351      2.00000
     49       0.0011      2.00000
     50       0.8814      2.00000
     51       1.0183      2.00000
     52       1.0756      2.00000
     53       1.0770      2.00000
     54       1.2214      2.00000
     55       1.2953      2.00000
     56       1.5879      2.00000
     57       1.6316      2.00000
     58       1.7408      2.00000
     59       1.8179      2.00000
     60       1.8502      2.00000
     61       1.9478      2.00000
     62       1.9633      2.00000
     63       2.0552      2.00000
     64       2.0752      2.00000
     65       2.2157      2.00000
     66       2.2517      2.00000
     67       2.3494      2.00000
     68       2.4022      2.00000
     69       2.5874      2.00000
     70       2.6603      2.00000
     71       3.1023      2.00000
     72       3.1964      2.00000
     73       4.0992      0.00000
     74       4.2246      0.00000
     75       4.6833      0.00000
     76       4.8534      0.00000
     77       4.8932      0.00000
     78       5.0226      0.00000
     79       5.1602      0.00000
     80       5.2725      0.00000
     81       5.4435      0.00000
     82       5.4817      0.00000
     83       5.6263      0.00000
     84       5.8035      0.00000
     85       5.8185      0.00000
     86       5.8382      0.00000
     87       5.9821      0.00000
     88       6.0791      0.00000

 k-point     5 :       0.2000    0.1667    0.0000
  band No.  band energies     occupation 
      1     -24.3217      2.00000
      2     -24.3177      2.00000
      3     -24.3149      2.00000
      4     -24.3147      2.00000
      5     -24.2577      2.00000
      6     -24.2550      2.00000
      7     -24.2520      2.00000
      8     -24.2502      2.00000
      9      -9.8260      2.00000
     10      -9.8145      2.00000
     11      -9.7821      2.00000
     12      -9.7266      2.00000
     13      -9.7165      2.00000
     14      -9.7018      2.00000
     15      -9.6979      2.00000
     16      -9.6816      2.00000
     17      -9.6701      2.00000
     18      -9.6190      2.00000
     19      -9.6118      2.00000
     20      -9.5955      2.00000
     21      -9.5679      2.00000
     22      -9.5478      2.00000
     23      -9.5330      2.00000
     24      -9.5111      2.00000
     25      -9.4998      2.00000
     26      -9.4940      2.00000
     27      -9.4913      2.00000
     28      -9.4758      2.00000
     29      -9.4699      2.00000
     30      -9.4568      2.00000
     31      -9.4515      2.00000
     32      -9.4417      2.00000
     33      -7.3864      2.00000
     34      -7.2084      2.00000
     35      -7.2042      2.00000
     36      -7.1743      2.00000
     37      -2.7400      2.00000
     38      -2.7144      2.00000
     39      -2.5594      2.00000
     40      -2.4749      2.00000
     41      -2.4288      2.00000
     42      -2.4169      2.00000
     43      -2.3678      2.00000
     44      -2.3209      2.00000
     45      -2.3142      2.00000
     46      -2.2447      2.00000
     47      -2.2412      2.00000
     48      -2.1230      2.00000
     49       0.1269      2.00000
     50       0.9689      2.00000
     51       0.9942      2.00000
     52       1.0156      2.00000
     53       1.0662      2.00000
[...]
     29      -8.6902      2.00000
     30      -8.6902      2.00000
     31      -8.6837      2.00000
     32      -8.6837      2.00000
     33      -6.7844      2.00000
     34      -6.7844      2.00000
     35      -6.7838      2.00000
     36      -6.7838      2.00000
     37      -2.4020      2.00000
     38      -2.4020      2.00000
     39      -2.0516      2.00000
     40      -2.0516      2.00000
     41      -1.9106      2.00000
     42      -1.9106      2.00000
     43      -1.8230      2.00000
     44      -1.8230      2.00000
     45      -1.7780      2.00000
     46      -1.7780      2.00000
     47      -1.6075      2.00000
     48      -1.6074      2.00000
     49       1.2341      2.00000
     50       1.2341      2.00000
     51       1.3469      2.00000
     52       1.3469      2.00000
     53       1.6928      2.00000
     54       1.6928      2.00000
     55       1.8013      2.00000
     56       1.8013      2.00000
     57       2.2085      2.00000
     58       2.2085      2.00000
     59       2.2634      2.00000
     60       2.2634      2.00000
     61       2.5416      2.00000
     62       2.5416      2.00000
     63       2.5555      2.00000
     64       2.5555      2.00000
     65       2.8354      2.00000
     66       2.8354      2.00000
     67       2.8358      2.00000
     68       2.8358      2.00000
     69       3.2129      2.00000
     70       3.2129      2.00000
     71       3.4654      2.00000
     72       3.4654      2.00000
     73       4.5308      0.00000
     74       4.5308      0.00000
     75       4.6898      0.00000
     76       4.6898      0.00000
     77       5.1350      0.00000
     78       5.1350      0.00000
     79       5.4474      0.00000
     80       5.4474      0.00000
     81       5.8353      0.00000
     82       5.8353      0.00000
     83       5.8774      0.00000
     84       5.8774      0.00000
     85       6.3722      0.00000
     86       6.3722      0.00000
     87       6.7164      0.00000
     88       6.7164      0.00000

 k-point    36 :       0.4000    0.5000    0.5000
  band No.  band energies     occupation 
      1     -23.5435      2.00000
      2     -23.5435      2.00000
      3     -23.5434      2.00000
      4     -23.5434      2.00000
      5     -23.4723      2.00000
      6     -23.4722      2.00000
      7     -23.4686      2.00000
      8     -23.4686      2.00000
      9      -9.2362      2.00000
     10      -9.2362      2.00000
     11      -9.2098      2.00000
     12      -9.2098      2.00000
     13      -9.1093      2.00000
     14      -9.1093      2.00000
     15      -9.0871      2.00000
     16      -9.0871      2.00000
     17      -8.9449      2.00000
     18      -8.9449      2.00000
     19      -8.8844      2.00000
     20      -8.8844      2.00000
     21      -8.8068      2.00000
     22      -8.8068      2.00000
     23      -8.8002      2.00000
     24      -8.8002      2.00000
     25      -8.7476      2.00000
     26      -8.7476      2.00000
     27      -8.7327      2.00000
     28      -8.7327      2.00000
     29      -8.6984      2.00000
     30      -8.6984      2.00000
     31      -8.6974      2.00000
     32      -8.6974      2.00000
     33      -6.7703      2.00000
     34      -6.7703      2.00000
     35      -6.7701      2.00000
     36      -6.7701      2.00000
     37      -2.3590      2.00000
     38      -2.3590      2.00000
     39      -2.2470      2.00000
     40      -2.2470      2.00000
     41      -1.9162      2.00000
     42      -1.9162      2.00000
     43      -1.8734      2.00000
     44      -1.8734      2.00000
     45      -1.7325      2.00000
     46      -1.7325      2.00000
     47      -1.6557      2.00000
     48      -1.6557      2.00000
     49       1.3367      2.00000
     50       1.3367      2.00000
     51       1.4224      2.00000
     52       1.4224      2.00000
     53       1.8592      2.00000
     54       1.8592      2.00000
     55       2.0014      2.00000
     56       2.0014      2.00000
     57       2.2237      2.00000
     58       2.2237      2.00000
     59       2.2908      2.00000
     60       2.2908      2.00000
     61       2.4177      2.00000
     62       2.4177      2.00000
     63       2.4836      2.00000
     64       2.4836      2.00000
     65       2.9057      2.00000
     66       2.9057      2.00000
     67       2.9359      2.00000
     68       2.9359      2.00000
     69       3.3723      2.00000
     70       3.3723      2.00000
     71       3.3844      2.00000
     72       3.3844      2.00000
     73       4.6019      0.00000
     74       4.6019      0.00000
     75       4.7834      0.00000
     76       4.7834      0.00000
     77       5.0075      0.00000
     78       5.0075      0.00000
     79       5.2901      0.00000
     80       5.2901      0.00000
     81       5.7689      0.00000
     82       5.7689      0.00000
     83       5.9194      0.00000
     84       5.9194      0.00000
     85       6.2818      0.00000
     86       6.2818      0.00000
     87       6.3691      0.00000
     88       6.3691      0.00000


--------------------------------------------------------------------------------------------------------


 soft charge-density along one line, spin component           1
         0         1         2         3         4         5         6         7         8         9
 total charge-density along one line
 
 pseudopotential strength for first ion, spin component:           1
  0.979  -4.532  -0.000   0.004   0.002  -0.000   0.002   0.001
 -4.532  -3.037   0.000  -0.001  -0.000  -0.000   0.001   0.000
 -0.000   0.000  -7.761  -0.000  -0.000   1.050  -0.000  -0.000
  0.004  -0.001  -0.000  -7.761  -0.001  -0.000   1.052  -0.002
  0.002  -0.000  -0.000  -0.001  -7.761  -0.000  -0.002   1.051
 -0.000  -0.000   1.050  -0.000  -0.000   7.354  -0.000  -0.000
  0.002   0.001  -0.000   1.052  -0.002  -0.000   7.354  -0.000
  0.001   0.000  -0.000  -0.002   1.051  -0.000  -0.000   7.354
 -0.000   0.000   0.000  -0.000  -0.000   0.000  -0.000  -0.000
 -0.000   0.000   0.001  -0.000  -0.000   0.001  -0.000  -0.000
  0.000  -0.000   0.000   0.001  -0.000   0.000   0.001  -0.000
 -0.001   0.000  -0.000   0.001   0.001  -0.000   0.001   0.000
  0.000  -0.000   0.000  -0.000   0.001   0.000  -0.000   0.001
  0.000   0.000  -0.000   0.000   0.000   0.000   0.000   0.000
  0.000   0.000  -0.000   0.000   0.000  -0.000   0.000   0.000
 -0.000  -0.000  -0.000  -0.000   0.000  -0.000  -0.000  -0.000
  0.000   0.000   0.000  -0.000  -0.000   0.000  -0.000  -0.000
 -0.000  -0.000  -0.000   0.000  -0.000  -0.000   0.000  -0.000
 total augmentation occupancy for first ion, spin component:           1
  2.114  -0.275  -0.000  -0.005  -0.004   0.000   0.002   0.001   0.000   0.000   0.005  -0.012  -0.001  -0.000   0.000  -0.004
 -0.275   0.642  -0.000   0.012   0.009   0.000  -0.006  -0.002  -0.000   0.000  -0.008   0.023   0.004  -0.000   0.000   0.014
  0.000   0.000   2.010  -0.000  -0.000  -0.010   0.000   0.000  -0.015  -0.004   0.000   0.000   0.000   0.021   0.009   0.000
 -0.005   0.012  -0.000   2.006   0.003  -0.000  -0.008  -0.002   0.000  -0.000   0.003   0.027   0.004   0.000   0.000   0.008
 -0.004   0.009  -0.000   0.003   2.009   0.000  -0.002  -0.009   0.000  -0.000   0.014   0.008   0.014  -0.000   0.000  -0.021
  0.000   0.000  -0.010   0.000   0.000   0.012   0.000  -0.000   0.007   0.004  -0.000   0.000   0.000  -0.012  -0.007   0.000
  0.002  -0.006  -0.000  -0.008  -0.002   0.000   0.011   0.001  -0.000  -0.000  -0.001  -0.010  -0.003   0.000  -0.000   0.003
  0.001  -0.002   0.000  -0.002  -0.009  -0.000   0.001   0.012  -0.000   0.000  -0.006  -0.004  -0.005   0.000  -0.000   0.012
 -0.000   0.000  -0.015  -0.000   0.000   0.007   0.000  -0.000   0.137  -0.042   0.000   0.000  -0.000  -0.270   0.085  -0.000
  0.000   0.000  -0.004  -0.000  -0.000   0.004  -0.000   0.000  -0.042   0.090  -0.000  -0.000  -0.000   0.086  -0.176   0.000
  0.005  -0.008   0.000   0.003   0.014  -0.000  -0.001  -0.006   0.000  -0.000   0.121   0.029   0.012  -0.000   0.000  -0.238
 -0.012   0.023   0.000   0.027   0.008   0.000  -0.010  -0.004   0.000   0.000   0.029   0.128   0.030   0.000   0.000  -0.063
 -0.001   0.004   0.000   0.004   0.014   0.000  -0.003  -0.005  -0.000  -0.000   0.012   0.030   0.101   0.000   0.000  -0.019
  0.000   0.000   0.021   0.000  -0.000  -0.012   0.000   0.000  -0.270   0.086  -0.000   0.000   0.000   0.567  -0.191   0.000
  0.000   0.000   0.009   0.000   0.000  -0.007   0.000  -0.000   0.085  -0.176  -0.000   0.000  -0.000  -0.191   0.363  -0.000
 -0.004   0.014   0.000   0.008  -0.021  -0.000   0.003   0.012  -0.000  -0.000  -0.238  -0.063  -0.019   0.000  -0.000   0.497
  0.011  -0.033   0.000  -0.039  -0.001   0.000   0.020   0.006  -0.000   0.000  -0.063  -0.249  -0.059   0.000  -0.000   0.148
  0.005  -0.015  -0.000  -0.002  -0.020   0.000   0.005   0.009   0.000   0.000  -0.020  -0.060  -0.194   0.000   0.000   0.040


------------------------ aborting loop because EDIFF is reached ----------------------------------------


    CHARGE:  cpu time    0.0889: real time    0.0891
    FORLOC:  cpu time    0.0038: real time    0.0038
    FORNL :  cpu time    0.4550: real time    0.4561
    STRESS:  cpu time    1.4220: real time    1.4293
    FORCOR:  cpu time    0.0094: real time    0.0095
    FORHAR:  cpu time    0.0084: real time    0.0084
    MIXING:  cpu time    0.0045: real time    0.0046
    OFIELD:  cpu time    0.0000: real time    0.0000

  FORCE on cell =-STRESS in cart. coord.  units (eV):
  Direction    XX          YY          ZZ          XY          YZ          ZX
  --------------------------------------------------------------------------------------
  Alpha Z   481.14193   481.14193   481.14193
  Ewald   -2203.95791 -2186.28023 -2176.56436    -0.00000    -0.00000    -0.00014
  Hartree   278.35081   290.69431   292.10676     0.00000    -0.00000     0.00001
  E(xc)    -464.71977  -464.62458  -464.58448    -0.00000     0.00000    -0.00000
  Local     173.90816   149.69559   139.30175     0.00000     0.00000     0.00009
  n-local   351.92434   350.01936   350.31500    -0.11038    -0.02280    -0.15768
  augment  -172.12208  -171.18351  -171.38487    -0.00000     0.00000    -0.00000
  Kinetic  1555.45224  1550.58622  1549.65249     0.68973    -0.84600     0.04420
  Fock        0.00000     0.00000     0.00000     0.00000     0.00000     0.00000
  -------------------------------------------------------------------------------------
  Total      -0.02227     0.04909    -0.01578     0.00000     0.00000     0.00000
  in kB      -0.05467     0.12050    -0.03873     0.00000     0.00000     0.00000
  external pressure =        0.01 kB  Pullay stress =        0.00 kB


 VOLUME and BASIS-vectors are now :
 -----------------------------------------------------------------------------
  energy-cutoff  :      500.00
  volume of cell :      652.74
      direct lattice vectors                 reciprocal lattice vectors
     8.759011692 -0.000000000  0.000000000     0.114168132  0.000000000  0.000000000
    -0.000000000  6.604187150  0.000000000     0.000000000  0.151419089  0.000000000
     0.000000000  0.000000000 11.284017339     0.000000000  0.000000000  0.088620920

  length of vectors
     8.759011692  6.604187150 11.284017339     0.114168132  0.151419089  0.088620920


 FORCES acting on ions
    electron-ion (+dipol)            ewald-force                    non-local-force                 convergence-correction
 -----------------------------------------------------------------------------------------------
   0.333E+01 0.762E-04 0.229E+01   -.365E+01 0.147E-04 -.254E+01   0.320E+00 -.383E-18 0.238E+00   0.157E-03 -.474E-09 0.162E-03
   -.333E+01 0.792E-05 -.229E+01   0.365E+01 -.209E-04 0.254E+01   -.320E+00 0.270E-18 -.238E+00   -.157E-03 -.417E-09 -.162E-03
   -.333E+01 0.391E-05 0.229E+01   0.365E+01 -.209E-04 -.254E+01   -.320E+00 -.915E-18 0.238E+00   -.157E-03 -.118E-08 0.162E-03
   0.333E+01 0.722E-04 -.229E+01   -.365E+01 0.147E-04 0.254E+01   0.320E+00 0.114E-17 -.238E+00   0.157E-03 -.123E-08 -.162E-03
   -.225E+02 0.679E-05 -.641E+01   0.217E+02 -.185E-04 0.643E+01   0.789E+00 -.773E-18 -.244E-01   -.323E-03 0.512E-09 0.132E-03
   0.225E+02 0.750E-04 0.641E+01   -.217E+02 0.178E-04 -.643E+01   -.789E+00 0.214E-17 0.244E-01   0.323E-03 0.265E-09 -.132E-03
   0.225E+02 0.730E-04 -.641E+01   -.217E+02 0.178E-04 0.643E+01   -.789E+00 -.433E-18 -.244E-01   0.323E-03 0.117E-09 0.132E-03
   -.225E+02 0.477E-05 0.641E+01   0.217E+02 -.185E-04 -.643E+01   0.789E+00 -.808E-18 0.244E-01   -.323E-03 0.363E-09 -.132E-03
   0.109E+02 0.316E+02 -.171E+02   -.110E+02 -.321E+02 0.174E+02   0.664E-01 0.546E+00 -.353E+00   -.838E-04 -.158E-03 0.118E-03
   -.109E+02 -.316E+02 0.171E+02   0.110E+02 0.321E+02 -.174E+02   -.664E-01 -.546E+00 0.353E+00   0.838E-04 0.158E-03 -.118E-03
   -.109E+02 -.316E+02 -.171E+02   0.110E+02 0.321E+02 0.174E+02   -.664E-01 -.546E+00 -.353E+00   0.838E-04 0.158E-03 0.118E-03
   0.109E+02 0.316E+02 0.171E+02   -.110E+02 -.321E+02 -.174E+02   0.664E-01 0.546E+00 0.353E+00   -.838E-04 -.158E-03 -.118E-03
   -.109E+02 0.316E+02 0.171E+02   0.110E+02 -.321E+02 -.174E+02   -.664E-01 0.546E+00 0.353E+00   0.838E-04 -.158E-03 -.118E-03
   0.109E+02 -.316E+02 -.171E+02   -.110E+02 0.321E+02 0.174E+02   0.664E-01 -.546E+00 -.353E+00   -.838E-04 0.158E-03 0.118E-03
   0.109E+02 -.316E+02 0.171E+02   -.110E+02 0.321E+02 -.174E+02   0.664E-01 -.546E+00 0.353E+00   -.838E-04 0.158E-03 -.118E-03
   -.109E+02 0.316E+02 -.171E+02   0.110E+02 -.321E+02 0.174E+02   -.664E-01 0.546E+00 -.353E+00   0.838E-04 -.158E-03 0.118E-03
   0.442E+02 -.123E-04 0.116E+01   -.451E+02 -.824E-05 -.202E+01   0.946E+00 -.406E-17 0.854E+00   -.164E-03 0.275E-09 0.135E-03
   -.442E+02 -.496E-06 -.116E+01   0.451E+02 0.853E-05 0.202E+01   -.946E+00 0.344E-17 -.854E+00   0.164E-03 0.468E-09 -.135E-03
   -.442E+02 0.721E-05 0.116E+01   0.451E+02 0.853E-05 -.202E+01   -.946E+00 -.859E-17 0.854E+00   0.164E-03 0.320E-09 0.135E-03
   0.442E+02 -.458E-05 -.116E+01   -.451E+02 -.824E-05 0.202E+01   0.946E+00 -.674E-17 -.854E+00   -.164E-03 0.126E-09 -.135E-03
   0.776E+01 -.443E-05 0.358E+02   -.744E+01 0.910E-05 -.366E+02   -.325E+00 -.423E-18 0.763E+00   -.170E-03 -.326E-10 -.282E-03
   -.776E+01 -.155E-04 -.358E+02   0.744E+01 -.953E-05 0.366E+02   0.325E+00 -.644E-18 -.763E+00   0.170E-03 -.271E-09 0.282E-03
   -.776E+01 -.134E-05 0.358E+02   0.744E+01 -.953E-05 -.366E+02   0.325E+00 -.460E-17 0.763E+00   0.170E-03 -.226E-09 -.282E-03
   0.776E+01 0.974E-05 -.358E+02   -.744E+01 0.910E-05 0.366E+02   -.325E+00 -.364E-17 -.763E+00   -.170E-03 0.118E-10 0.282E-03
 -----------------------------------------------------------------------------------------------
   -.263E-03 0.379E-03 0.659E-04   0.142E-13 0.230E-13 -.426E-13   0.000E+00 -.253E-16 -.222E-15   -.474E-08 -.109E-09 0.274E-08
 
 
 POSITION                                       TOTAL-FORCE (eV/Angst)
 -----------------------------------------------------------------------------------
      0.14697      1.65105      7.79102         0.002902     -0.000000     -0.005235
      8.61205      4.95314      3.49300        -0.002902      0.000000      0.005235
      4.23254      4.95314      2.14901        -0.002902     -0.000000     -0.005235
      4.52647      1.65105      9.13500         0.002902      0.000000      0.005235
      1.41669      4.95314     10.22626        -0.000630      0.000000     -0.003493
      7.34232      1.65105      1.05776         0.000630     -0.000000      0.003493
      2.96282      1.65105      4.58425         0.000630     -0.000000     -0.003493
      5.79619      4.95314      6.69976        -0.000630     -0.000000      0.003493
      1.67042      0.46115      1.65894         0.001486      0.002647     -0.005276
      7.08859      6.14304      9.62508        -0.001486     -0.002647      0.005276
      2.70909      6.14304      7.30095        -0.001486     -0.002647     -0.005276
      6.04992      0.46115      3.98307         0.001486      0.002647      0.005276
      7.08859      3.76324      9.62508        -0.001486      0.002647      0.005276
      1.67042      2.84095      1.65894         0.001486     -0.002647     -0.005276
      6.04992      2.84095      3.98307         0.001486     -0.002647      0.005276
      2.70909      3.76324      7.30095        -0.001486      0.002647     -0.005276
      0.72148      4.95314      6.69348         0.002134      0.000000     -0.003571
      8.03753      1.65105      4.59054        -0.002134     -0.000000      0.003571
      3.65803      1.65105      1.05147        -0.002134     -0.000000     -0.003571
      5.10098      4.95314     10.23255         0.002134      0.000000      0.003571
      1.71099      1.65105     10.88198        -0.004335      0.000000      0.002467
      7.04802      4.95314      0.40203         0.004335      0.000000     -0.002467
      2.66851      4.95314      5.23997         0.004335     -0.000000      0.002467
      6.09050      1.65105      6.04404        -0.004335      0.000000     -0.002467
 -----------------------------------------------------------------------------------
    total drift:                               -0.000263      0.000379      0.000066


--------------------------------------------------------------------------------------------------------



  FREE ENERGIE OF THE ION-ELECTRON SYSTEM (eV)
  ---------------------------------------------------
  free  energy   TOTEN  =      -122.51716037 eV

  energy  without entropy=     -122.51716037  energy(sigma->0) =     -122.51716037
 
 d Force = 0.6912208E-04[ 0.333E-04, 0.105E-03]  d Energy = 0.7598792E-04-0.687E-05
 d Force = 0.1009714E+00[ 0.101E+00, 0.101E+00]  d Ewald  = 0.3115756E+00-0.211E+00


--------------------------------------------------------------------------------------------------------


    POTLOK:  cpu time    0.0109: real time    0.0109


--------------------------------------------------------------------------------------------------------


 Conjugate gradient step on ions:
 trial-energy change:   -0.000076  1 .order   -0.000074   -0.000117   -0.000030
  (g-gl).g = 0.400E-04      g.g   = 0.779E-04  gl.gl    = 0.140E-03
 g(Force)  = 0.655E-04   g(Stress)= 0.124E-04 ortho     = 0.717E-05
 gamma     =   0.28468
 trial     =   1.46170
 opt step  =   1.97193  (harmonic =   1.97193) maximal distance =0.00140727
 next E    =  -122.517163   (d E  =  -0.00008)


--------------------------------------------------------------------------------------------------------


  
 reached required accuracy - stopping structural energy minimisation
 writing wavefunctions
     LOOP+:  cpu time   16.0724: real time   16.4990
    4ORBIT:  cpu time    0.0001: real time    0.0003
 BZINTS: Fermi energy:  3.846292;144.000000 electrons
         Band energy:-793.178839;  BLOECHL correction:  0.000000

 total amount of memory used by VASP MPI-rank0    67772. kBytes
=======================================================================

   base      :      30000. kBytes
   nonlr-proj:       2580. kBytes
   fftplans  :       2347. kBytes
   grid      :       3658. kBytes
   one-center:         93. kBytes
   wavefun   :      29094. kBytes
 
  
  
 General timing and accounting informations for this job:
 ========================================================
  
                  Total CPU time used (sec):      479.599
                            User time (sec):      476.085
                          System time (sec):        3.514
                         Elapsed time (sec):      484.138
  
                   Maximum memory used (kb):      155492.
                   Average memory used (kb):           0.
  
                          Minor page faults:        22259
                          Major page faults:          441
                 Voluntary context switches:        20673
