<?xml version="1.0" encoding="ISO-8859-1"?>
<modeling>
 <generator>
  <i name="program" type="string">vasp </i>
  <i name="version" type="string">5.4.4.18Apr17-6-g9f103f2a35  </i>
  <i name="subversion" type="string">(build Nov 21 2017 15:30:27) complex            parallel </i>
  <i name="platform" type="string">LinuxIFC </i>
  <i name="date" type="string">2020 11 20 </i>
  <i name="time" type="string">15:44:09 </i>
 </generator>
 <incar>
  <i type="string" name="PREC">normal</i>
  <i type="int" name="ICHARG">    11</i>
  <i type="int" name="NELM">   100</i>
  <i name="EDIFF">      0.00000100</i>
  <i name="EDIFFG">     -0.01000000</i>
  <i name="ENCUT">    500.00000000</i>
  <i name="POTIM">      0.30000000</i>
  <i type="string" name="LREAL"> Auto       ! Projection in reciprocal s</i>
  <i type="int" name="ISMEAR">     0</i>
  <i name="SIGMA">      0.01000000</i>
  <i type="logical" name="LWAVE"> T  </i>
  <i type="logical" name="LCHARG"> T  </i>
  <i type="logical" name="LASPH"> T  </i>
  <v type="int" name="KPOINT_BSE">    -1     0     0     0</v>
  <i type="int" name="NELM">   100</i>
  <i type="string" name="GGA"> MK</i>
  <i name="PARAM1">      0.12340000</i>
  <i name="PARAM2">      0.71135700</i>
  <i type="logical" name="LUSE_VDW"> T  </i>
  <i name="Zab_VDW">     -1.88670000</i>
  <i name="AGGAC">      0.00000000</i>
  <i type="logical" name="LASPH"> T  </i>
 </incar>
 <structure name="primitive_cell" >
  <crystal>
   <varray name="basis" >
    <v>      46.26335657       0.00000000       0.00000000 </v>
    <v>       0.00000000       6.67872769       0.00000000 </v>
    <v>       0.00000000       0.00000000      11.43536653 </v>
   </varray>
   <i name="volume">   3533.30366965 </i>
   <varray name="rec_basis" >
    <v>       0.02161538       0.00000000       0.00000000 </v>
    <v>       0.00000000       0.14972912       0.00000000 </v>
    <v>       0.00000000       0.00000000       0.08744801 </v>
   </varray>
  </crystal>
  <varray name="positions" >
   <v>       0.00706729       0.25000000      -0.29929789 </v>
   <v>       0.03525162       0.25000000      -0.03681345 </v>
   <v>       0.06013669      -0.42907350      -0.35772075 </v>
   <v>       0.06013669      -0.07092650      -0.35772075 </v>
   <v>       0.01449375      -0.24999998      -0.38322116 </v>
   <v>       0.04155959      -0.24999998      -0.08744847 </v>
   <v>       0.06706941       0.25000000       0.39592579 </v>
   <v>       0.10028184       0.25000000      -0.19126926 </v>
   <v>       0.05059439      -0.24999998       0.46144665 </v>
   <v>       0.03498877       0.42908597       0.14636563 </v>
   <v>       0.03498877       0.07091402       0.14636563 </v>
   <v>       0.07918718       0.25000000       0.08292845 </v>
   <v>       0.13461368       0.25000000      -0.46450569 </v>
   <v>       0.11426897      -0.24999998      -0.09116693 </v>
   <v>       0.12824041      -0.24999998      -0.40493066 </v>
   <v>       0.13382718       0.43080662       0.35290049 </v>
   <v>       0.13382718       0.06919337       0.35290049 </v>
   <v>       0.15733136      -0.43052442      -0.14633250 </v>
   <v>       0.15733136      -0.06947558      -0.14633250 </v>
   <v>       0.09154300      -0.24999998       0.19276931 </v>
   <v>       0.16180145       0.25000000       0.09301897 </v>
   <v>       0.17711606       0.25000000       0.40778978 </v>
   <v>       0.15591201      -0.24999998       0.03680898 </v>
   <v>       0.19696364       0.25000000      -0.30980337 </v>
   <v>       0.20998555      -0.24999998      -0.40856216 </v>
   <v>       0.19046912      -0.24999998       0.30856316 </v>
   <v>       0.23140197       0.25000000      -0.03606517 </v>
   <v>       0.22493046      -0.24999998      -0.09403992 </v>
   <v>       0.23047172       0.43015450       0.14617739 </v>
   <v>       0.23047172       0.06984549       0.14617739 </v>
   <v>       0.25341319      -0.43022278      -0.35431388 </v>
   <v>       0.25341319      -0.06977722      -0.35431388 </v>
   <v>       0.25255301      -0.24999998       0.46337444 </v>
   <v>       0.25952859       0.25000000       0.40514915 </v>
   <v>       0.27396768       0.25000000       0.09205983 </v>
   <v>       0.29345883       0.25000000      -0.19098418 </v>
   <v>       0.30665676      -0.24999998      -0.09186945 </v>
   <v>       0.28722673      -0.24999998       0.19068811 </v>
   <v>       0.32152450      -0.24999998      -0.40630210 </v>
   <v>       0.32832595       0.25000000      -0.46439702 </v>
   <v>       0.32762022       0.43025447       0.35319515 </v>
   <v>       0.32762022       0.06974553       0.35319515 </v>
   <v>       0.35002888      -0.43025447      -0.14680485 </v>
   <v>       0.35002888      -0.06974553      -0.14680485 </v>
   <v>      -0.33684470       0.25000000       0.11677878 </v>
   <v>       0.34932313      -0.24999998       0.03560300 </v>
   <v>       0.35612457       0.25000000       0.09369792 </v>
   <v>      -0.32941819      -0.24999998       0.20070205 </v>
   <v>      -0.35733973      -0.42908597      -0.35363435 </v>
   <v>      -0.35733973      -0.07091403      -0.35363435 </v>
   <v>       0.37099230       0.25000000       0.40813051 </v>
   <v>      -0.35760256      -0.24999998       0.46318646 </v>
   <v>      -0.36391051       0.25000000       0.41255161 </v>
   <v>       0.39042233       0.25000000      -0.30931183 </v>
   <v>      -0.37294530       0.25000000      -0.03855327 </v>
   <v>       0.38419027      -0.24999998       0.30901578 </v>
   <v>       0.40368142      -0.24999998      -0.40794011 </v>
   <v>      -0.38248763       0.42907350       0.14227923 </v>
   <v>      -0.38248763       0.07092649       0.14227923 </v>
   <v>      -0.38942033      -0.24999998      -0.10407430 </v>
   <v>      -0.40153808      -0.24999998      -0.41707148 </v>
   <v>       0.41812049      -0.24999998      -0.09485093 </v>
   <v>      -0.41389394       0.25000000      -0.30723063 </v>
   <v>       0.42509607       0.25000000      -0.03662547 </v>
   <v>       0.42423587       0.43022278       0.14568610 </v>
   <v>       0.42423587       0.06977721       0.14568610 </v>
   <v>       0.44717734      -0.43015450      -0.35382259 </v>
   <v>       0.44717734      -0.06984550      -0.35382259 </v>
   <v>      -0.42263274      -0.24999998       0.30873070 </v>
   <v>       0.44624711      -0.24999998       0.46393475 </v>
   <v>      -0.43661991       0.25000000       0.40883302 </v>
   <v>       0.45271862       0.25000000       0.40596016 </v>
   <v>      -0.45617814      -0.43080662      -0.14709951 </v>
   <v>      -0.45617814      -0.06919338      -0.14709951 </v>
   <v>      -0.45059133       0.25000000       0.09506936 </v>
   <v>       0.46766351       0.25000000       0.09143778 </v>
   <v>      -0.45696461      -0.24999998       0.03549432 </v>
   <v>       0.48717994       0.25000000      -0.19143679 </v>
   <v>      -0.47826292       0.25000000      -0.46319103 </v>
   <v>       0.48068546      -0.24999998       0.19019657 </v>
   <v>      -0.47968225       0.43052442       0.35366750 </v>
   <v>      -0.47968225       0.06947557       0.35366750 </v>
   <v>      -0.48415237      -0.24999998      -0.40698105 </v>
   <v>      -0.49946696      -0.24999998      -0.09221018 </v>
  </varray>
 </structure>
 <varray name="primitive_index" >
  <v type="int" >        1 </v>
  <v type="int" >       71 </v>
  <v type="int" >       53 </v>
  <v type="int" >       36 </v>
  <v type="int" >       57 </v>
  <v type="int" >       15 </v>
  <v type="int" >       22 </v>
  <v type="int" >       12 </v>
  <v type="int" >       78 </v>
  <v type="int" >       46 </v>
  <v type="int" >       29 </v>
  <v type="int" >       64 </v>
  <v type="int" >       82 </v>
  <v type="int" >       68 </v>
  <v type="int" >       26 </v>
  <v type="int" >       50 </v>
  <v type="int" >       40 </v>
  <v type="int" >       43 </v>
  <v type="int" >       33 </v>
  <v type="int" >        8 </v>
  <v type="int" >       19 </v>
  <v type="int" >       61 </v>
  <v type="int" >       75 </v>
  <v type="int" >        2 </v>
  <v type="int" >       58 </v>
  <v type="int" >        5 </v>
  <v type="int" >       72 </v>
  <v type="int" >       16 </v>
  <v type="int" >       47 </v>
  <v type="int" >       30 </v>
  <v type="int" >       54 </v>
  <v type="int" >       37 </v>
  <v type="int" >       79 </v>
  <v type="int" >       23 </v>
  <v type="int" >       65 </v>
  <v type="int" >       13 </v>
  <v type="int" >       69 </v>
  <v type="int" >        9 </v>
  <v type="int" >       27 </v>
  <v type="int" >       83 </v>
  <v type="int" >       51 </v>
  <v type="int" >       41 </v>
  <v type="int" >       44 </v>
  <v type="int" >       34 </v>
  <v type="int" >       67 </v>
  <v type="int" >       76 </v>
  <v type="int" >       20 </v>
  <v type="int" >       11 </v>
  <v type="int" >       56 </v>
  <v type="int" >       39 </v>
  <v type="int" >       62 </v>
  <v type="int" >       81 </v>
  <v type="int" >       25 </v>
  <v type="int" >        3 </v>
  <v type="int" >       74 </v>
  <v type="int" >        6 </v>
  <v type="int" >       59 </v>
  <v type="int" >       49 </v>
  <v type="int" >       32 </v>
  <v type="int" >       18 </v>
  <v type="int" >       60 </v>
  <v type="int" >       17 </v>
  <v type="int" >        4 </v>
  <v type="int" >       73 </v>
  <v type="int" >       48 </v>
  <v type="int" >       31 </v>
  <v type="int" >       55 </v>
  <v type="int" >       38 </v>
  <v type="int" >        7 </v>
  <v type="int" >       80 </v>
  <v type="int" >       63 </v>
  <v type="int" >       24 </v>
  <v type="int" >       45 </v>
  <v type="int" >       35 </v>
  <v type="int" >       21 </v>
  <v type="int" >       66 </v>
  <v type="int" >       77 </v>
  <v type="int" >       14 </v>
  <v type="int" >       84 </v>
  <v type="int" >       10 </v>
  <v type="int" >       52 </v>
  <v type="int" >       42 </v>
  <v type="int" >       28 </v>
  <v type="int" >       70 </v>
 </varray>
 <kpoints>
  <generation param="listgenerated">
   <i name="divisions" type="int">      20 </i>
   <v>       0.00000000       0.00000000       0.00000000 </v>
   <v>       0.00000000       0.50000000       0.00000000 </v>
   <v>       0.00000000       0.50000000       0.50000000 </v>
   <v>       0.00000000       0.00000000       0.50000000 </v>
   <v>       0.00000000       0.00000000       0.00000000 </v>
  </generation>
  <varray name="kpointlist" >
   <v>       0.00000000       0.00000000       0.00000000 </v>
   <v>       0.00000000       0.02631579       0.00000000 </v>
   <v>       0.00000000       0.05263158       0.00000000 </v>
   <v>       0.00000000       0.07894737       0.00000000 </v>
   <v>       0.00000000       0.10526316       0.00000000 </v>
   <v>       0.00000000       0.13157895       0.00000000 </v>
   <v>       0.00000000       0.15789474       0.00000000 </v>
   <v>       0.00000000       0.18421053       0.00000000 </v>
   <v>       0.00000000       0.21052632       0.00000000 </v>
   <v>       0.00000000       0.23684211       0.00000000 </v>
   <v>       0.00000000       0.26315789       0.00000000 </v>
   <v>       0.00000000       0.28947368       0.00000000 </v>
   <v>       0.00000000       0.31578947       0.00000000 </v>
   <v>       0.00000000       0.34210526       0.00000000 </v>
   <v>       0.00000000       0.36842105       0.00000000 </v>
   <v>       0.00000000       0.39473684       0.00000000 </v>
   <v>       0.00000000       0.42105263       0.00000000 </v>
   <v>       0.00000000       0.44736842       0.00000000 </v>
   <v>       0.00000000       0.47368421       0.00000000 </v>
   <v>       0.00000000       0.50000000       0.00000000 </v>
   <v>       0.00000000       0.50000000       0.00000000 </v>
   <v>       0.00000000       0.50000000       0.02631579 </v>
   <v>       0.00000000       0.50000000       0.05263158 </v>
   <v>       0.00000000       0.50000000       0.07894737 </v>
   <v>       0.00000000       0.50000000       0.10526316 </v>
   <v>       0.00000000       0.50000000       0.13157895 </v>
   <v>       0.00000000       0.50000000       0.15789474 </v>
   <v>       0.00000000       0.50000000       0.18421053 </v>
   <v>       0.00000000       0.50000000       0.21052632 </v>
   <v>       0.00000000       0.50000000       0.23684211 </v>
   <v>       0.00000000       0.50000000       0.26315789 </v>
   <v>       0.00000000       0.50000000       0.28947368 </v>
   <v>       0.00000000       0.50000000       0.31578947 </v>
   <v>       0.00000000       0.50000000       0.34210526 </v>
   <v>       0.00000000       0.50000000       0.36842105 </v>
   <v>       0.00000000       0.50000000       0.39473684 </v>
   <v>       0.00000000       0.50000000       0.42105263 </v>
   <v>       0.00000000       0.50000000       0.44736842 </v>
   <v>       0.00000000       0.50000000       0.47368421 </v>
   <v>       0.00000000       0.50000000       0.50000000 </v>
   <v>       0.00000000       0.50000000       0.50000000 </v>
   <v>       0.00000000       0.47368421       0.50000000 </v>
   <v>       0.00000000       0.44736842       0.50000000 </v>
   <v>       0.00000000       0.42105263       0.50000000 </v>
   <v>       0.00000000       0.39473684       0.50000000 </v>
   <v>       0.00000000       0.36842105       0.50000000 </v>
   <v>       0.00000000       0.34210526       0.50000000 </v>
   <v>       0.00000000       0.31578947       0.50000000 </v>
   <v>       0.00000000       0.28947368       0.50000000 </v>
   <v>       0.00000000       0.26315789       0.50000000 </v>
   <v>       0.00000000       0.23684211       0.50000000 </v>
   <v>       0.00000000       0.21052632       0.50000000 </v>
   <v>       0.00000000       0.18421053       0.50000000 </v>
   <v>       0.00000000       0.15789474       0.50000000 </v>
   <v>       0.00000000       0.13157895       0.50000000 </v>
   <v>       0.00000000       0.10526316       0.50000000 </v>
   <v>       0.00000000       0.07894737       0.50000000 </v>
   <v>       0.00000000       0.05263158       0.50000000 </v>
   <v>       0.00000000       0.02631579       0.50000000 </v>
   <v>       0.00000000       0.00000000       0.50000000 </v>
   <v>       0.00000000       0.00000000       0.50000000 </v>
   <v>       0.00000000       0.00000000       0.47368421 </v>
   <v>       0.00000000       0.00000000       0.44736842 </v>
   <v>       0.00000000       0.00000000       0.42105263 </v>
   <v>       0.00000000       0.00000000       0.39473684 </v>
   <v>       0.00000000       0.00000000       0.36842105 </v>
   <v>       0.00000000       0.00000000       0.34210526 </v>
   <v>       0.00000000       0.00000000       0.31578947 </v>
   <v>       0.00000000       0.00000000       0.28947368 </v>
   <v>       0.00000000       0.00000000       0.26315789 </v>
   <v>       0.00000000       0.00000000       0.23684211 </v>
   <v>       0.00000000       0.00000000       0.21052632 </v>
   <v>       0.00000000       0.00000000       0.18421053 </v>
   <v>       0.00000000       0.00000000       0.15789474 </v>
   <v>       0.00000000       0.00000000       0.13157895 </v>
   <v>       0.00000000       0.00000000       0.10526316 </v>
   <v>       0.00000000       0.00000000       0.07894737 </v>
   <v>       0.00000000       0.00000000       0.05263158 </v>
   <v>       0.00000000       0.00000000       0.02631579 </v>
   <v>       0.00000000       0.00000000       0.00000000 </v>
  </varray>
  <varray name="weights" >
   <v>       0.01250000 </v>
   <v>       0.01250000 </v>
   <v>       0.01250000 </v>
   <v>       0.01250000 </v>
   <v>       0.01250000 </v>
   <v>       0.01250000 </v>
   <v>       0.01250000 </v>
   <v>       0.01250000 </v>
   <v>       0.01250000 </v>
   <v>       0.01250000 </v>
   <v>       0.01250000 </v>
   <v>       0.01250000 </v>
   <v>       0.01250000 </v>
   <v>       0.01250000 </v>
   <v>       0.01250000 </v>
   <v>       0.01250000 </v>
   <v>       0.01250000 </v>
   <v>       0.01250000 </v>
   <v>       0.01250000 </v>
   <v>       0.01250000 </v>
   <v>       0.01250000 </v>
   <v>       0.01250000 </v>
   <v>       0.01250000 </v>
   <v>       0.01250000 </v>
   <v>       0.01250000 </v>
   <v>       0.01250000 </v>
   <v>       0.01250000 </v>
   <v>       0.01250000 </v>
   <v>       0.01250000 </v>
   <v>       0.01250000 </v>
   <v>       0.01250000 </v>
   <v>       0.01250000 </v>
   <v>       0.01250000 </v>
   <v>       0.01250000 </v>
   <v>       0.01250000 </v>
   <v>       0.01250000 </v>
   <v>       0.01250000 </v>
   <v>       0.01250000 </v>
   <v>       0.01250000 </v>
   <v>       0.01250000 </v>
   <v>       0.01250000 </v>
   <v>       0.01250000 </v>
   <v>       0.01250000 </v>
   <v>       0.01250000 </v>
   <v>       0.01250000 </v>
   <v>       0.01250000 </v>
   <v>       0.01250000 </v>
   <v>       0.01250000 </v>
   <v>       0.01250000 </v>
   <v>       0.01250000 </v>
   <v>       0.01250000 </v>
   <v>       0.01250000 </v>
   <v>       0.01250000 </v>
   <v>       0.01250000 </v>
   <v>       0.01250000 </v>
   <v>       0.01250000 </v>
   <v>       0.01250000 </v>
   <v>       0.01250000 </v>
   <v>       0.01250000 </v>
   <v>       0.01250000 </v>
   <v>       0.01250000 </v>
   <v>       0.01250000 </v>
   <v>       0.01250000 </v>
   <v>       0.01250000 </v>
   <v>       0.01250000 </v>
   <v>       0.01250000 </v>
   <v>       0.01250000 </v>
   <v>       0.01250000 </v>
   <v>       0.01250000 </v>
   <v>       0.01250000 </v>
   <v>       0.01250000 </v>
   <v>       0.01250000 </v>
   <v>       0.01250000 </v>
   <v>       0.01250000 </v>
   <v>       0.01250000 </v>
   <v>       0.01250000 </v>
   <v>       0.01250000 </v>
   <v>       0.01250000 </v>
   <v>       0.01250000 </v>
   <v>       0.01250000 </v>
  </varray>
 </kpoints>
 <parameters>
  <separator name="general" >
   <i type="string" name="SYSTEM">unknown system</i>
   <i type="logical" name="LCOMPAT"> F  </i>
  </separator>
  <separator name="electronic" >
   <i type="string" name="PREC">normal</i>
   <i name="ENMAX">    500.00000000</i>
   <i name="ENAUG">    351.16500000</i>
   <i name="EDIFF">      0.00000100</i>
   <i type="int" name="IALGO">    38</i>
   <i type="int" name="IWAVPR">    10</i>
   <i type="int" name="NBANDS">   304</i>
   <i name="NELECT">    504.00000000</i>
   <i type="int" name="TURBO">     0</i>
   <i type="int" name="IRESTART">     0</i>
   <i type="int" name="NREBOOT">     0</i>
   <i type="int" name="NMIN">     0</i>
   <i name="EREF">      0.00000000</i>
   <separator name="electronic smearing" >
    <i type="int" name="ISMEAR">     0</i>
    <i name="SIGMA">      0.01000000</i>
    <i name="KSPACING">      0.50000000</i>
    <i type="logical" name="KGAMMA"> T  </i>
   </separator>
   <separator name="electronic projectors" >
    <i type="logical" name="LREAL"> T  </i>
    <v name="ROPT">     -0.00050000     -0.00050000</v>
    <i type="int" name="LMAXPAW">  -100</i>
    <i type="int" name="LMAXMIX">     2</i>
    <i type="logical" name="NLSPLINE"> F  </i>
   </separator>
   <separator name="electronic startup" >
    <i type="int" name="ISTART">     0</i>
    <i type="int" name="ICHARG">    11</i>
    <i type="int" name="INIWAV">     1</i>
   </separator>
   <separator name="electronic spin" >
    <i type="int" name="ISPIN">     1</i>
    <i type="logical" name="LNONCOLLINEAR"> F  </i>
    <v name="MAGMOM">      1.00000000      1.00000000      1.00000000      1.00000000      1.00000000      1.00000000      1.00000000      1.00000000      1.00000000      1.00000000      1.00000000      1.00000000      1.00000000      1.00000000      1.00000000      1.00000000      1.00000000      1.00000000      1.00000000      1.00000000
      1.00000000      1.00000000      1.00000000      1.00000000      1.00000000      1.00000000      1.00000000      1.00000000      1.00000000      1.00000000      1.00000000      1.00000000      1.00000000      1.00000000      1.00000000      1.00000000      1.00000000      1.00000000      1.00000000      1.00000000
      1.00000000      1.00000000      1.00000000      1.00000000      1.00000000      1.00000000      1.00000000      1.00000000      1.00000000      1.00000000      1.00000000      1.00000000      1.00000000      1.00000000      1.00000000      1.00000000      1.00000000      1.00000000      1.00000000      1.00000000
      1.00000000      1.00000000      1.00000000      1.00000000      1.00000000      1.00000000      1.00000000      1.00000000      1.00000000      1.00000000      1.00000000      1.00000000      1.00000000      1.00000000      1.00000000      1.00000000      1.00000000      1.00000000      1.00000000      1.00000000
      1.00000000      1.00000000      1.00000000      1.00000000</v>
    <i name="NUPDOWN">     -1.00000000</i>
    <i type="logical" name="LSORBIT"> F  </i>
    <v name="SAXIS">      0.00000000      0.00000000      1.00000000</v>
    <i type="logical" name="LSPIRAL"> F  </i>
    <v name="QSPIRAL">      0.00000000      0.00000000      0.00000000</v>
    <i type="logical" name="LZEROZ"> F  </i>
   </separator>
   <separator name="electronic exchange-correlation" >
    <i type="logical" name="LASPH"> T  </i>
    <i type="logical" name="LMETAGGA"> F  </i>
   </separator>
   <separator name="electronic convergence" >
    <i type="int" name="NELM">   100</i>
    <i type="int" name="NELMDL">    -5</i>
    <i type="int" name="NELMIN">     2</i>
    <i name="ENINI">    500.00000000</i>
    <separator name="electronic convergence detail" >
     <i type="logical" name="LDIAG"> T  </i>
     <i type="logical" name="LSUBROT"> F  </i>
     <i name="WEIMIN">      0.00000000</i>
     <i name="EBREAK">      0.00000000</i>
     <i name="DEPER">      0.30000000</i>
     <i type="int" name="NRMM">     4</i>
     <i name="TIME">      0.40000000</i>
    </separator>
   </separator>
   <separator name="electronic mixer" >
    <i name="AMIX">      0.40000000</i>
    <i name="BMIX">      1.00000000</i>
    <i name="AMIN">      0.10000000</i>
    <i name="AMIX_MAG">      1.60000000</i>
    <i name="BMIX_MAG">      1.00000000</i>
    <separator name="electronic mixer details" >
     <i type="int" name="IMIX">     4</i>
     <i type="logical" name="MIXFIRST"> F  </i>
     <i type="int" name="MAXMIX">   -45</i>
     <i name="WC">    100.00000000</i>
     <i type="int" name="INIMIX">     1</i>
     <i type="int" name="MIXPRE">     1</i>
     <i type="int" name="MREMOVE">     5</i>
    </separator>
   </separator>
   <separator name="electronic dipolcorrection" >
    <i type="logical" name="LDIPOL"> F  </i>
    <i type="logical" name="LMONO"> F  </i>
    <i type="int" name="IDIPOL">     0</i>
    <i name="EPSILON">      1.00000000</i>
    <v name="DIPOL">   -100.00000000   -100.00000000   -100.00000000</v>
    <i name="EFIELD">      0.00000000</i>
   </separator>
  </separator>
  <separator name="grids" >
   <i type="int" name="NGX">   256</i>
   <i type="int" name="NGY">    40</i>
   <i type="int" name="NGZ">    64</i>
   <i type="int" name="NGXF">   512</i>
   <i type="int" name="NGYF">    80</i>
   <i type="int" name="NGZF">   128</i>
   <i type="logical" name="ADDGRID"> F  </i>
  </separator>
  <separator name="ionic" >
   <i type="int" name="NSW">     0</i>
   <i type="int" name="IBRION">    -1</i>
   <i type="int" name="MDALGO">     0</i>
   <i type="int" name="ISIF">     2</i>
   <i name="PSTRESS">      0.00000000</i>
   <i name="EDIFFG">     -0.01000000</i>
   <i type="int" name="NFREE">     0</i>
   <i name="POTIM">      0.30000000</i>
   <i name="SMASS">     -3.00000000</i>
   <i name="SCALEE">      1.00000000</i>
  </separator>
  <separator name="ionic md" >
   <i name="TEBEG">      0.00010000</i>
   <i name="TEEND">      0.00010000</i>
   <i type="int" name="NBLOCK">     1</i>
   <i type="int" name="KBLOCK">     1</i>
   <i type="int" name="NPACO">   256</i>
   <i name="APACO">     16.00000000</i>
  </separator>
  <separator name="symmetry" >
   <i type="int" name="ISYM">     2</i>
   <i name="SYMPREC">      0.00001000</i>
  </separator>
  <separator name="dos" >
   <i type="int" name="LORBIT">     0</i>
   <v name="RWIGS">     -1.00000000     -1.00000000</v>
   <i type="int" name="NEDOS">   301</i>
   <i name="EMIN">     10.00000000</i>
   <i name="EMAX">    -10.00000000</i>
   <i name="EFERMI">      0.00000000</i>
  </separator>
  <separator name="writing" >
   <i type="int" name="NWRITE">     2</i>
   <i type="logical" name="LWAVE"> T  </i>
   <i type="logical" name="LDOWNSAMPLE"> F  </i>
   <i type="logical" name="LCHARG"> T  </i>
   <i type="logical" name="LPARD"> F  </i>
   <i type="logical" name="LVTOT"> F  </i>
   <i type="logical" name="LVHAR"> F  </i>
   <i type="logical" name="LELF"> F  </i>
   <i type="logical" name="LOPTICS"> F  </i>
   <v name="STM">      0.00000000      0.00000000      0.00000000      0.00000000      0.00000000      0.00000000      0.00000000</v>
  </separator>
  <separator name="performance" >
   <i type="int" name="NPAR">     8</i>
   <i type="int" name="NSIM">     4</i>
   <i type="int" name="NBLK">    -1</i>
   <i type="logical" name="LPLANE"> T  </i>
   <i type="logical" name="LSCALAPACK"> T  </i>
   <i type="logical" name="LSCAAWARE"> F  </i>
   <i type="logical" name="LSCALU"> F  </i>
   <i type="logical" name="LASYNC"> F  </i>
   <i type="logical" name="LORBITALREAL"> F  </i>
  </separator>
  <separator name="miscellaneous" >
   <i type="int" name="IDIOT">     3</i>
   <i type="int" name="ISPECIAL">     0</i>
   <i type="logical" name="LMUSIC"> F  </i>
   <v name="POMASS">    137.32700000     28.08500000</v>
   <v name="DARWINR">      0.00000000      0.00000000</v>
   <v name="DARWINV">      1.00000000      1.00000000</v>
   <i type="logical" name="LCORR"> T  </i>
  </separator>
  <i type="logical" name="GGA_COMPAT"> T  </i>
  <i type="logical" name="LBERRY"> F  </i>
  <i type="int" name="ICORELEVEL">     0</i>
  <i type="logical" name="LDAU"> F  </i>
  <i type="int" name="I_CONSTRAINED_M">     0</i>
  <separator name="electronic exchange-correlation" >
   <i type="string" name="GGA">MK</i>
   <i type="int" name="VOSKOWN">     0</i>
   <i type="logical" name="LHFCALC"> F  </i>
   <i type="string" name="PRECFOCK"></i>
   <i type="logical" name="LSYMGRAD"> F  </i>
   <i type="logical" name="LHFONE"> F  </i>
   <i type="logical" name="LRHFCALC"> F  </i>
   <i type="logical" name="LTHOMAS"> F  </i>
   <i type="logical" name="LMODELHF"> F  </i>
   <i name="ENCUT4O">     -1.00000000</i>
   <i type="int" name="EXXOEP">     0</i>
   <i type="int" name="FOURORBIT">     0</i>
   <i name="AEXX">      0.00000000</i>
   <i name="HFALPHA">      0.00000000</i>
   <i name="MCALPHA">      0.00000000</i>
   <i name="ALDAX">      1.00000000</i>
   <i name="AGGAX">      1.00000000</i>
   <i name="ALDAC">      1.00000000</i>
   <i name="AGGAC">      0.00000000</i>
   <i type="int" name="NKREDX">     1</i>
   <i type="int" name="NKREDY">     1</i>
   <i type="int" name="NKREDZ">     1</i>
   <i type="logical" name="SHIFTRED"> F  </i>
   <i type="logical" name="ODDONLY"> F  </i>
   <i type="logical" name="EVENONLY"> F  </i>
   <i type="int" name="LMAXFOCK">     0</i>
   <i type="int" name="NMAXFOCKAE">     0</i>
   <i type="logical" name="LFOCKAEDFT"> F  </i>
   <i name="HFSCREEN">      0.00000000</i>
   <i name="HFSCREENC">      0.00000000</i>
   <i type="int" name="NBANDSGWLOW">     0</i>
  </separator>
  <separator name="vdW DFT" >
   <i type="logical" name="LUSE_VDW"> T  </i>
   <i name="Zab_VDW">     -1.88670000</i>
   <i name="PARAM1">      0.12340000</i>
   <i name="PARAM2">      0.71135700</i>
   <i name="PARAM3">      0.00000000</i>
  </separator>
  <separator name="model GW" >
   <i type="int" name="MODEL_GW">     0</i>
   <i name="MODEL_EPS0">     25.23788335</i>
   <i name="MODEL_ALPHA">      1.00000000</i>
  </separator>
  <separator name="linear response parameters" >
   <i type="logical" name="LEPSILON"> F  </i>
   <i type="logical" name="LRPA"> F  </i>
   <i type="logical" name="LNABLA"> F  </i>
   <i type="logical" name="LVEL"> F  </i>
   <i type="int" name="KINTER">     0</i>
   <i name="CSHIFT">      0.10000000</i>
   <i name="OMEGAMAX">     -1.00000000</i>
   <i name="DEG_THRESHOLD">      0.00200000</i>
   <i name="RTIME">     -0.10000000</i>
   <i name="WPLASMAI">      0.00000000</i>
   <v name="DFIELD">      0.00000000      0.00000000      0.00000000</v>
   <v name="WPLASMA">      0.00000000      0.00000000      0.00000000      0.00000000      0.00000000      0.00000000      0.00000000      0.00000000      0.00000000</v>
  </separator>
  <separator name="orbital magnetization" >
   <i type="logical" name="NUCIND"> F  </i>
   <v name="MAGPOS">      0.00000000      0.00000000      0.00000000</v>
   <i type="logical" name="LNICSALL"> T  </i>
   <i type="logical" name="ORBITALMAG"> F  </i>
   <i type="logical" name="LMAGBLOCH"> F  </i>
   <i type="logical" name="LCHIMAG"> F  </i>
   <i type="logical" name="LGAUGE"> T  </i>
   <i type="int" name="MAGATOM">     0</i>
   <v name="MAGDIPOL">      0.00000000      0.00000000      0.00000000</v>
   <v name="AVECCONST">      0.00000000      0.00000000      0.00000000</v>
  </separator>
  <separator name="response functions" >
   <i type="logical" name="LADDER"> F  </i>
   <i type="logical" name="LRPAFORCE"> F  </i>
   <i type="logical" name="LFXC"> F  </i>
   <i type="logical" name="LHARTREE"> T  </i>
   <i type="int" name="IBSE">     0</i>
   <v type="int" name="KPOINT">    -1     0     0     0</v>
   <i type="logical" name="LTCTE"> F  </i>
   <i type="logical" name="LTETE"> F  </i>
   <i type="logical" name="LTRIPLET"> F  </i>
   <i type="logical" name="LFXCEPS"> F  </i>
   <i type="logical" name="LFXHEG"> F  </i>
   <i type="int" name="NATURALO">     2</i>
   <i type="logical" name="L2ORDER"> F  </i>
   <i type="logical" name="LMP2LT"> F  </i>
   <i type="logical" name="LUSEW"> F  </i>
   <i name="ENCUTGW">     -2.00000000</i>
   <i name="ENCUTGWSOFT">     -2.00000000</i>
   <i name="ENCUTLF">     -1.00000000</i>
   <i type="int" name="LMAXMP2">    -1</i>
   <i name="SCISSOR">      0.00000000</i>
   <i type="int" name="NOMEGA">     0</i>
   <i type="int" name="NOMEGAR">     0</i>
   <i type="int" name="NBANDSGW">    -1</i>
   <i type="int" name="NBANDSO">    -1</i>
   <i type="int" name="NBANDSV">    -1</i>
   <i type="int" name="NELM">   100</i>
   <i type="int" name="NELMHF">     1</i>
   <i type="int" name="DIM">     3</i>
   <i type="int" name="ANTIRES">     0</i>
   <i name="OMEGAMAX">    -30.00000000</i>
   <i name="OMEGAMIN">    -30.00000000</i>
   <i name="OMEGATL">   -200.00000000</i>
   <i type="int" name="OMEGAGRID">   140</i>
   <i name="CSHIFT">     -0.10000000</i>
   <i type="logical" name="SELFENERGY"> F  </i>
   <i type="logical" name="LSPECTRAL"> F  </i>
   <i type="logical" name="LSPECTRALGW"> F  </i>
   <i type="logical" name="LSINGLES"> F  </i>
   <i type="logical" name="LFERMIGW"> F  </i>
   <i type="logical" name="ODDONLYGW"> F  </i>
   <i type="logical" name="EVENONLYGW"> F  </i>
   <i type="int" name="NKREDLFX">     1</i>
   <i type="int" name="NKREDLFY">     1</i>
   <i type="int" name="NKREDLFZ">     1</i>
   <i type="int" name="MAXMEM">  2800</i>
   <i type="int" name="TELESCOPE">     0</i>
   <i type="int" name="TAUPAR">     1</i>
   <i type="int" name="OMEGAPAR">    -1</i>
   <i name="LAMBDA">      1.00000000</i>
  </separator>
  <separator name="External order field" >
   <i name="OFIELD_KAPPA">      0.00000000</i>
   <v name="OFIELD_K">      0.00000000      0.00000000      0.00000000</v>
   <i name="OFIELD_Q6_NEAR">      0.00000000</i>
   <i name="OFIELD_Q6_FAR">      0.00000000</i>
   <i name="OFIELD_A">      0.00000000</i>
  </separator>
 </parameters>
 <atominfo>
  <atoms>      84 </atoms>
  <types>       2 </types>
  <array name="atoms" >
   <dimension dim="1">ion</dimension>
   <field type="string">element</field>
   <field type="int">atomtype</field>
   <set>
    <rc><c>Ba</c><c>   1</c></rc>
    <rc><c>Ba</c><c>   1</c></rc>
    <rc><c>Ba</c><c>   1</c></rc>
    <rc><c>Ba</c><c>   1</c></rc>
    <rc><c>Ba</c><c>   1</c></rc>
    <rc><c>Ba</c><c>   1</c></rc>
    <rc><c>Ba</c><c>   1</c></rc>
    <rc><c>Ba</c><c>   1</c></rc>
    <rc><c>Ba</c><c>   1</c></rc>
    <rc><c>Ba</c><c>   1</c></rc>
    <rc><c>Ba</c><c>   1</c></rc>
    <rc><c>Ba</c><c>   1</c></rc>
    <rc><c>Ba</c><c>   1</c></rc>
    <rc><c>Ba</c><c>   1</c></rc>
    <rc><c>Ba</c><c>   1</c></rc>
    <rc><c>Ba</c><c>   1</c></rc>
    <rc><c>Ba</c><c>   1</c></rc>
    <rc><c>Ba</c><c>   1</c></rc>
    <rc><c>Ba</c><c>   1</c></rc>
    <rc><c>Ba</c><c>   1</c></rc>
    <rc><c>Ba</c><c>   1</c></rc>
    <rc><c>Ba</c><c>   1</c></rc>
    <rc><c>Ba</c><c>   1</c></rc>
    <rc><c>Ba</c><c>   1</c></rc>
    <rc><c>Ba</c><c>   1</c></rc>
    <rc><c>Ba</c><c>   1</c></rc>
    <rc><c>Ba</c><c>   1</c></rc>
    <rc><c>Ba</c><c>   1</c></rc>
    <rc><c>Si</c><c>   2</c></rc>
    <rc><c>Si</c><c>   2</c></rc>
    <rc><c>Si</c><c>   2</c></rc>
    <rc><c>Si</c><c>   2</c></rc>
    <rc><c>Si</c><c>   2</c></rc>
    <rc><c>Si</c><c>   2</c></rc>
    <rc><c>Si</c><c>   2</c></rc>
    <rc><c>Si</c><c>   2</c></rc>
    <rc><c>Si</c><c>   2</c></rc>
    <rc><c>Si</c><c>   2</c></rc>
    <rc><c>Si</c><c>   2</c></rc>
    <rc><c>Si</c><c>   2</c></rc>
    <rc><c>Si</c><c>   2</c></rc>
    <rc><c>Si</c><c>   2</c></rc>
    <rc><c>Si</c><c>   2</c></rc>
    <rc><c>Si</c><c>   2</c></rc>
    <rc><c>Si</c><c>   2</c></rc>
    <rc><c>Si</c><c>   2</c></rc>
    <rc><c>Si</c><c>   2</c></rc>
    <rc><c>Si</c><c>   2</c></rc>
    <rc><c>Si</c><c>   2</c></rc>
    <rc><c>Si</c><c>   2</c></rc>
    <rc><c>Si</c><c>   2</c></rc>
    <rc><c>Si</c><c>   2</c></rc>
    <rc><c>Si</c><c>   2</c></rc>
    <rc><c>Si</c><c>   2</c></rc>
    <rc><c>Si</c><c>   2</c></rc>
    <rc><c>Si</c><c>   2</c></rc>
    <rc><c>Si</c><c>   2</c></rc>
    <rc><c>Si</c><c>   2</c></rc>
    <rc><c>Si</c><c>   2</c></rc>
    <rc><c>Si</c><c>   2</c></rc>
    <rc><c>Si</c><c>   2</c></rc>
    <rc><c>Si</c><c>   2</c></rc>
    <rc><c>Si</c><c>   2</c></rc>
    <rc><c>Si</c><c>   2</c></rc>
    <rc><c>Si</c><c>   2</c></rc>
    <rc><c>Si</c><c>   2</c></rc>
    <rc><c>Si</c><c>   2</c></rc>
    <rc><c>Si</c><c>   2</c></rc>
    <rc><c>Si</c><c>   2</c></rc>
    <rc><c>Si</c><c>   2</c></rc>
    <rc><c>Si</c><c>   2</c></rc>
    <rc><c>Si</c><c>   2</c></rc>
    <rc><c>Si</c><c>   2</c></rc>
    <rc><c>Si</c><c>   2</c></rc>
    <rc><c>Si</c><c>   2</c></rc>
    <rc><c>Si</c><c>   2</c></rc>
    <rc><c>Si</c><c>   2</c></rc>
    <rc><c>Si</c><c>   2</c></rc>
    <rc><c>Si</c><c>   2</c></rc>
    <rc><c>Si</c><c>   2</c></rc>
    <rc><c>Si</c><c>   2</c></rc>
    <rc><c>Si</c><c>   2</c></rc>
    <rc><c>Si</c><c>   2</c></rc>
    <rc><c>Si</c><c>   2</c></rc>
   </set>
  </array>
  <array name="atomtypes" >
   <dimension dim="1">type</dimension>
   <field type="int">atomspertype</field>
   <field type="string">element</field>
   <field>mass</field>
   <field>valence</field>
   <field type="string">pseudopotential</field>
   <set>
    <rc><c>  28</c><c>Ba</c><c>    137.32700000</c><c>     10.00000000</c><c> PAW_PBE Ba_sv 06Sep2000                </c></rc>
    <rc><c>  56</c><c>Si</c><c>     28.08500000</c><c>      4.00000000</c><c> PAW_PBE Si 05Jan2001                   </c></rc>
   </set>
  </array>
 </atominfo>
 <structure name="initialpos" >
  <crystal>
   <varray name="basis" >
    <v>      46.26335657       0.00000000       0.00000000 </v>
    <v>       0.00000000       6.67872769       0.00000000 </v>
    <v>       0.00000000       0.00000000      11.43536653 </v>
   </varray>
   <i name="volume">   3533.30366965 </i>
   <varray name="rec_basis" >
    <v>       0.02161538       0.00000000       0.00000000 </v>
    <v>       0.00000000       0.14972912       0.00000000 </v>
    <v>       0.00000000       0.00000000       0.08744801 </v>
   </varray>
  </crystal>
  <varray name="positions" >
   <v>       0.00706729       0.25000000       0.70070211 </v>
   <v>       0.19696364       0.25000000       0.69019663 </v>
   <v>       0.39042233       0.25000000       0.69068817 </v>
   <v>       0.58610606       0.25000000       0.69276937 </v>
   <v>       0.19046912       0.75000002       0.30856316 </v>
   <v>       0.38419027       0.75000002       0.30901578 </v>
   <v>       0.57736726       0.75000002       0.30873070 </v>
   <v>       0.09154300       0.75000002       0.19276931 </v>
   <v>       0.28722673       0.75000002       0.19068811 </v>
   <v>       0.48068546       0.75000002       0.19019657 </v>
   <v>       0.67058181       0.75000002       0.20070205 </v>
   <v>       0.10028184       0.25000000       0.80873074 </v>
   <v>       0.29345883       0.25000000       0.80901582 </v>
   <v>       0.48717994       0.25000000       0.80856321 </v>
   <v>       0.04155959       0.75000002       0.91255153 </v>
   <v>       0.22493046       0.75000002       0.90596008 </v>
   <v>       0.41812049       0.75000002       0.90514907 </v>
   <v>       0.61057967       0.75000002       0.89592570 </v>
   <v>       0.16180145       0.25000000       0.09301897 </v>
   <v>       0.35612457       0.25000000       0.09369792 </v>
   <v>       0.54940867       0.25000000       0.09506936 </v>
   <v>       0.06706941       0.25000000       0.39592579 </v>
   <v>       0.25952859       0.25000000       0.40514915 </v>
   <v>       0.45271862       0.25000000       0.40596016 </v>
   <v>       0.63608949       0.25000000       0.41255161 </v>
   <v>       0.12824041       0.75000002       0.59506934 </v>
   <v>       0.32152450       0.75000002       0.59369790 </v>
   <v>       0.51584763       0.75000002       0.59301895 </v>
   <v>       0.03498877       0.07091402       0.14636563 </v>
   <v>       0.23047172       0.06984549       0.14617739 </v>
   <v>       0.42423587       0.06977721       0.14568610 </v>
   <v>       0.61751237       0.07092649       0.14227923 </v>
   <v>       0.15733136       0.93052442       0.85366750 </v>
   <v>       0.35002888       0.93025447       0.85319515 </v>
   <v>       0.54382186       0.93080662       0.85290049 </v>
   <v>       0.06013669       0.92907350       0.64227925 </v>
   <v>       0.25341319       0.93022278       0.64568612 </v>
   <v>       0.44717734       0.93015450       0.64617741 </v>
   <v>       0.64266027       0.92908597       0.64636565 </v>
   <v>       0.13382718       0.06919337       0.35290049 </v>
   <v>       0.32762022       0.06974553       0.35319515 </v>
   <v>       0.52031775       0.06947557       0.35366750 </v>
   <v>       0.15733136       0.56947558       0.85366750 </v>
   <v>       0.35002888       0.56974553       0.85319515 </v>
   <v>       0.54382186       0.56919338       0.85290049 </v>
   <v>       0.03498877       0.42908597       0.14636563 </v>
   <v>       0.23047172       0.43015450       0.14617739 </v>
   <v>       0.42423587       0.43022278       0.14568610 </v>
   <v>       0.61751237       0.42907350       0.14227923 </v>
   <v>       0.13382718       0.43080662       0.35290049 </v>
   <v>       0.32762022       0.43025447       0.35319515 </v>
   <v>       0.52031775       0.43052442       0.35366750 </v>
   <v>       0.06013669       0.57092650       0.64227925 </v>
   <v>       0.25341319       0.56977722       0.64568612 </v>
   <v>       0.44717734       0.56984550       0.64617741 </v>
   <v>       0.64266027       0.57091403       0.64636565 </v>
   <v>       0.01449375       0.75000002       0.61677884 </v>
   <v>       0.20998555       0.75000002       0.59143784 </v>
   <v>       0.40368142       0.75000002       0.59205989 </v>
   <v>       0.59846192       0.75000002       0.58292852 </v>
   <v>       0.17711606       0.25000000       0.40778978 </v>
   <v>       0.37099230       0.25000000       0.40813051 </v>
   <v>       0.56338009       0.25000000       0.40883302 </v>
   <v>       0.07918718       0.25000000       0.08292845 </v>
   <v>       0.27396768       0.25000000       0.09205983 </v>
   <v>       0.46766351       0.25000000       0.09143778 </v>
   <v>       0.66315530       0.25000000       0.11677878 </v>
   <v>       0.11426897       0.75000002       0.90883307 </v>
   <v>       0.30665676       0.75000002       0.90813055 </v>
   <v>       0.50053304       0.75000002       0.90778982 </v>
   <v>       0.03525162       0.25000000       0.96318655 </v>
   <v>       0.23140197       0.25000000       0.96393483 </v>
   <v>       0.42509607       0.25000000       0.96337453 </v>
   <v>       0.62705470       0.25000000       0.96144673 </v>
   <v>       0.15591201       0.75000002       0.03680898 </v>
   <v>       0.34932313       0.75000002       0.03560300 </v>
   <v>       0.54303539       0.75000002       0.03549432 </v>
   <v>       0.05059439       0.75000002       0.46144665 </v>
   <v>       0.25255301       0.75000002       0.46337444 </v>
   <v>       0.44624711       0.75000002       0.46393475 </v>
   <v>       0.64239744       0.75000002       0.46318646 </v>
   <v>       0.13461368       0.25000000       0.53549431 </v>
   <v>       0.32832595       0.25000000       0.53560298 </v>
   <v>       0.52173708       0.25000000       0.53680897 </v>
  </varray>
 </structure>
 <calculation>
  <scstep>
   <time name="dav">   79.84   80.04</time>
   <time name="total">   82.98   83.28</time>
   <energy>
    <i name="alphaZ">   1115.79381534 </i>
    <i name="ewald">  99506.69891722 </i>
    <i name="hartreedc">-123544.29335155 </i>
    <i name="XCdc">    170.68246774 </i>
    <i name="pawpsdc">  13533.63183729 </i>
    <i name="pawaedc"> -12503.22404065 </i>
    <i name="eentropy">     -0.00125612 </i>
    <i name="bandstr">   -193.58658869 </i>
    <i name="atom">  25442.03008949 </i>
    <i name="e_fr_energy">   3527.73189008 </i>
    <i name="e_wo_entrp">   3527.73314620 </i>
    <i name="e_0_energy">   3527.73251814 </i>
   </energy>
  </scstep>
  <scstep>
   <time name="dav">   97.51   97.76</time>
   <time name="total">   97.53   97.78</time>
   <energy>
    <i name="e_fr_energy">    125.66790073 </i>
    <i name="e_wo_entrp">    125.66812992 </i>
    <i name="e_0_energy">    125.66801532 </i>
   </energy>
  </scstep>
  <scstep>
   <time name="dav">   93.34   93.57</time>
   <time name="total">   93.35   93.58</time>
   <energy>
    <i name="e_fr_energy">   -313.62327033 </i>
    <i name="e_wo_entrp">   -313.62327033 </i>
    <i name="e_0_energy">   -313.62327033 </i>
   </energy>
  </scstep>
  <scstep>
   <time name="dav">  104.77  105.03</time>
   <time name="total">  104.78  105.05</time>
   <energy>
    <i name="e_fr_energy">   -333.75191751 </i>
    <i name="e_wo_entrp">   -333.75191751 </i>
    <i name="e_0_energy">   -333.75191751 </i>
   </energy>
  </scstep>
  <scstep>
   <time name="dav">  112.12  112.40</time>
   <time name="total">  112.14  112.42</time>
   <energy>
    <i name="e_fr_energy">   -334.64603238 </i>
    <i name="e_wo_entrp">   -334.64603238 </i>
    <i name="e_0_energy">   -334.64603238 </i>
   </energy>
  </scstep>
  <scstep>
   <time name="dav">  101.92  102.18</time>
   <time name="total">  101.93  102.19</time>
   <energy>
    <i name="e_fr_energy">   -334.66776603 </i>
    <i name="e_wo_entrp">   -334.66776603 </i>
    <i name="e_0_energy">   -334.66776603 </i>
   </energy>
  </scstep>
  <scstep>
   <time name="dav">  109.90  110.18</time>
   <time name="total">  109.92  110.19</time>
   <energy>
    <i name="e_fr_energy">   -334.66875232 </i>
    <i name="e_wo_entrp">   -334.66875232 </i>
    <i name="e_0_energy">   -334.66875232 </i>
   </energy>
  </scstep>
  <scstep>
   <time name="dav">  101.90  102.15</time>
   <time name="total">  101.91  102.16</time>
   <energy>
    <i name="e_fr_energy">   -334.66879014 </i>
    <i name="e_wo_entrp">   -334.66879014 </i>
    <i name="e_0_energy">   -334.66879014 </i>
   </energy>
  </scstep>
  <scstep>
   <time name="dav">   92.54   92.77</time>
   <time name="total">   92.55   92.79</time>
   <energy>
    <i name="e_fr_energy">   -334.66879209 </i>
    <i name="e_wo_entrp">   -334.66879209 </i>
    <i name="e_0_energy">   -334.66879209 </i>
   </energy>
  </scstep>
  <scstep>
   <time name="dav">   66.54   66.71</time>
   <time name="total">   66.55   66.73</time>
   <energy>
    <i name="alphaZ">   1115.79381534 </i>
    <i name="ewald">  99506.69891722 </i>
    <i name="hartreedc">-123544.29335155 </i>
    <i name="XCdc">    170.68246774 </i>
    <i name="pawpsdc">  13533.63183729 </i>
    <i name="pawaedc"> -12503.22404065 </i>
    <i name="eentropy">     -0.00000000 </i>
    <i name="bandstr">  -4055.98852706 </i>
    <i name="atom">  25442.03008949 </i>
    <i name="e_fr_energy">   -334.66879217 </i>
    <i name="e_wo_entrp">   -334.66879217 </i>
    <i name="e_0_energy">   -334.66879217 </i>
   </energy>
  </scstep>
  <structure>
   <crystal>
    <varray name="basis" >
     <v>      46.26335657       0.00000000       0.00000000 </v>
     <v>       0.00000000       6.67872769       0.00000000 </v>
     <v>       0.00000000       0.00000000      11.43536653 </v>
    </varray>
    <i name="volume">   3533.30366965 </i>
    <varray name="rec_basis" >
     <v>       0.02161538       0.00000000       0.00000000 </v>
     <v>       0.00000000       0.14972912       0.00000000 </v>
     <v>       0.00000000       0.00000000       0.08744801 </v>
    </varray>
   </crystal>
   <varray name="positions" >
    <v>       0.00706729       0.25000000       0.70070211 </v>
    <v>       0.19696364       0.25000000       0.69019663 </v>
    <v>       0.39042233       0.25000000       0.69068817 </v>
    <v>       0.58610606       0.25000000       0.69276937 </v>
    <v>       0.19046912       0.75000002       0.30856316 </v>
    <v>       0.38419027       0.75000002       0.30901578 </v>
    <v>       0.57736726       0.75000002       0.30873070 </v>
    <v>       0.09154300       0.75000002       0.19276931 </v>
    <v>       0.28722673       0.75000002       0.19068811 </v>
    <v>       0.48068546       0.75000002       0.19019657 </v>
    <v>       0.67058181       0.75000002       0.20070205 </v>
    <v>       0.10028184       0.25000000       0.80873074 </v>
    <v>       0.29345883       0.25000000       0.80901582 </v>
    <v>       0.48717994       0.25000000       0.80856321 </v>
    <v>       0.04155959       0.75000002       0.91255153 </v>
    <v>       0.22493046       0.75000002       0.90596008 </v>
    <v>       0.41812049       0.75000002       0.90514907 </v>
    <v>       0.61057967       0.75000002       0.89592570 </v>
    <v>       0.16180145       0.25000000       0.09301897 </v>
    <v>       0.35612457       0.25000000       0.09369792 </v>
    <v>       0.54940867       0.25000000       0.09506936 </v>
    <v>       0.06706941       0.25000000       0.39592579 </v>
    <v>       0.25952859       0.25000000       0.40514915 </v>
    <v>       0.45271862       0.25000000       0.40596016 </v>
    <v>       0.63608949       0.25000000       0.41255161 </v>
    <v>       0.12824041       0.75000002       0.59506934 </v>
    <v>       0.32152450       0.75000002       0.59369790 </v>
    <v>       0.51584763       0.75000002       0.59301895 </v>
    <v>       0.03498877       0.07091402       0.14636563 </v>
    <v>       0.23047172       0.06984549       0.14617739 </v>
    <v>       0.42423587       0.06977721       0.14568610 </v>
    <v>       0.61751237       0.07092649       0.14227923 </v>
    <v>       0.15733136       0.93052442       0.85366750 </v>
    <v>       0.35002888       0.93025447       0.85319515 </v>
    <v>       0.54382186       0.93080662       0.85290049 </v>
    <v>       0.06013669       0.92907350       0.64227925 </v>
    <v>       0.25341319       0.93022278       0.64568612 </v>
    <v>       0.44717734       0.93015450       0.64617741 </v>
    <v>       0.64266027       0.92908597       0.64636565 </v>
    <v>       0.13382718       0.06919337       0.35290049 </v>
    <v>       0.32762022       0.06974553       0.35319515 </v>
    <v>       0.52031775       0.06947557       0.35366750 </v>
    <v>       0.15733136       0.56947558       0.85366750 </v>
    <v>       0.35002888       0.56974553       0.85319515 </v>
    <v>       0.54382186       0.56919338       0.85290049 </v>
    <v>       0.03498877       0.42908597       0.14636563 </v>
    <v>       0.23047172       0.43015450       0.14617739 </v>
    <v>       0.42423587       0.43022278       0.14568610 </v>
    <v>       0.61751237       0.42907350       0.14227923 </v>
    <v>       0.13382718       0.43080662       0.35290049 </v>
    <v>       0.32762022       0.43025447       0.35319515 </v>
    <v>       0.52031775       0.43052442       0.35366750 </v>
    <v>       0.06013669       0.57092650       0.64227925 </v>
    <v>       0.25341319       0.56977722       0.64568612 </v>
    <v>       0.44717734       0.56984550       0.64617741 </v>
    <v>       0.64266027       0.57091403       0.64636565 </v>
    <v>       0.01449375       0.75000002       0.61677884 </v>
    <v>       0.20998555       0.75000002       0.59143784 </v>
    <v>       0.40368142       0.75000002       0.59205989 </v>
    <v>       0.59846192       0.75000002       0.58292852 </v>
    <v>       0.17711606       0.25000000       0.40778978 </v>
    <v>       0.37099230       0.25000000       0.40813051 </v>
    <v>       0.56338009       0.25000000       0.40883302 </v>
    <v>       0.07918718       0.25000000       0.08292845 </v>
    <v>       0.27396768       0.25000000       0.09205983 </v>
    <v>       0.46766351       0.25000000       0.09143778 </v>
    <v>       0.66315530       0.25000000       0.11677878 </v>
    <v>       0.11426897       0.75000002       0.90883307 </v>
    <v>       0.30665676       0.75000002       0.90813055 </v>
    <v>       0.50053304       0.75000002       0.90778982 </v>
    <v>       0.03525162       0.25000000       0.96318655 </v>
    <v>       0.23140197       0.25000000       0.96393483 </v>
    <v>       0.42509607       0.25000000       0.96337453 </v>
    <v>       0.62705470       0.25000000       0.96144673 </v>
    <v>       0.15591201       0.75000002       0.03680898 </v>
    <v>       0.34932313       0.75000002       0.03560300 </v>
    <v>       0.54303539       0.75000002       0.03549432 </v>
    <v>       0.05059439       0.75000002       0.46144665 </v>
    <v>       0.25255301       0.75000002       0.46337444 </v>
    <v>       0.44624711       0.75000002       0.46393475 </v>
    <v>       0.64239744       0.75000002       0.46318646 </v>
    <v>       0.13461368       0.25000000       0.53549431 </v>
    <v>       0.32832595       0.25000000       0.53560298 </v>
    <v>       0.52173708       0.25000000       0.53680897 </v>
   </varray>
  </structure>
  <varray name="forces" >
   <v>       0.01586766      -0.00000000      -0.03594887 </v>
   <v>       0.03250819       0.00000000      -0.02109900 </v>
   <v>       0.03530447      -0.00000000      -0.02414926 </v>
   <v>       0.05623052      -0.00000000      -0.02460691 </v>
   <v>      -0.04144212      -0.00000000       0.02214794 </v>
   <v>      -0.03791233       0.00000000       0.02164355 </v>
   <v>      -0.04208892       0.00000000       0.01841610 </v>
   <v>      -0.05623052       0.00000000      -0.02460691 </v>
   <v>      -0.03530447       0.00000000      -0.02414926 </v>
   <v>      -0.03250819       0.00000000      -0.02109900 </v>
   <v>      -0.01586766       0.00000000      -0.03594887 </v>
   <v>       0.04208892       0.00000000       0.01841610 </v>
   <v>       0.03791233       0.00000000       0.02164355 </v>
   <v>       0.04144212      -0.00000000       0.02214794 </v>
   <v>       0.00290008       0.00000000      -0.00966240 </v>
   <v>       0.01658575       0.00000000       0.02586381 </v>
   <v>       0.01726177      -0.00000000       0.02637343 </v>
   <v>       0.02464233       0.00000000       0.02941819 </v>
   <v>      -0.00985213      -0.00000000      -0.02670745 </v>
   <v>      -0.01518984       0.00000000      -0.02941503 </v>
   <v>      -0.01208478      -0.00000000      -0.02463671 </v>
   <v>      -0.02464233       0.00000000       0.02941819 </v>
   <v>      -0.01726177      -0.00000000       0.02637343 </v>
   <v>      -0.01658575       0.00000000       0.02586381 </v>
   <v>      -0.00290008      -0.00000000      -0.00966240 </v>
   <v>       0.01208478      -0.00000000      -0.02463671 </v>
   <v>       0.01518984      -0.00000000      -0.02941503 </v>
   <v>       0.00985213      -0.00000000      -0.02670745 </v>
   <v>       0.02275362       0.01206364       0.00335450 </v>
   <v>       0.02469249       0.02533951      -0.01054737 </v>
   <v>       0.02553527       0.02286109      -0.00872824 </v>
   <v>       0.01422151       0.03196282      -0.00380748 </v>
   <v>      -0.02054392      -0.01735951       0.01262588 </v>
   <v>      -0.02479052      -0.02182709       0.00926284 </v>
   <v>      -0.02799155      -0.02362602       0.01267112 </v>
   <v>      -0.01422151      -0.03196282      -0.00380748 </v>
   <v>      -0.02553527      -0.02286109      -0.00872824 </v>
   <v>      -0.02469249      -0.02533951      -0.01054737 </v>
   <v>      -0.02275362      -0.01206364       0.00335450 </v>
   <v>       0.02799155       0.02362602       0.01267112 </v>
   <v>       0.02479052       0.02182709       0.00926284 </v>
   <v>       0.02054392       0.01735951       0.01262588 </v>
   <v>      -0.02054392       0.01735951       0.01262588 </v>
   <v>      -0.02479052       0.02182709       0.00926284 </v>
   <v>      -0.02799155       0.02362602       0.01267112 </v>
   <v>       0.02275362      -0.01206364       0.00335450 </v>
   <v>       0.02469249      -0.02533951      -0.01054737 </v>
   <v>       0.02553527      -0.02286109      -0.00872824 </v>
   <v>       0.01422151      -0.03196282      -0.00380748 </v>
   <v>       0.02799155      -0.02362602       0.01267112 </v>
   <v>       0.02479052      -0.02182709       0.00926284 </v>
   <v>       0.02054392      -0.01735951       0.01262588 </v>
   <v>      -0.01422151       0.03196282      -0.00380748 </v>
   <v>      -0.02553527       0.02286109      -0.00872824 </v>
   <v>      -0.02469249       0.02533951      -0.01054737 </v>
   <v>      -0.02275362       0.01206364       0.00335450 </v>
   <v>       0.02585329       0.00000000       0.02641867 </v>
   <v>      -0.00223312       0.00000000       0.01485733 </v>
   <v>      -0.00050865       0.00000000       0.01395734 </v>
   <v>      -0.02144312       0.00000000       0.00802800 </v>
   <v>       0.00170886       0.00000000      -0.01477218 </v>
   <v>       0.00048406       0.00000000      -0.01697993 </v>
   <v>       0.01116864       0.00000000      -0.01496562 </v>
   <v>       0.02144312      -0.00000000       0.00802800 </v>
   <v>       0.00050865       0.00000000       0.01395734 </v>
   <v>       0.00223312      -0.00000000       0.01485733 </v>
   <v>      -0.02585329       0.00000000       0.02641867 </v>
   <v>      -0.01116864      -0.00000000      -0.01496562 </v>
   <v>      -0.00048406      -0.00000000      -0.01697993 </v>
   <v>      -0.00170886       0.00000000      -0.01477218 </v>
   <v>      -0.00155221       0.00000000       0.01089623 </v>
   <v>      -0.01423946       0.00000000      -0.00418900 </v>
   <v>      -0.01522229       0.00000000      -0.00266708 </v>
   <v>       0.00046993      -0.00000000      -0.00964115 </v>
   <v>       0.01752183      -0.00000000       0.00332517 </v>
   <v>       0.01224696       0.00000000       0.00173178 </v>
   <v>       0.01545689      -0.00000000       0.00670050 </v>
   <v>      -0.00046993       0.00000000      -0.00964115 </v>
   <v>       0.01522229      -0.00000000      -0.00266708 </v>
   <v>       0.01423946      -0.00000000      -0.00418900 </v>
   <v>       0.00155221      -0.00000000       0.01089623 </v>
   <v>      -0.01545689      -0.00000000       0.00670050 </v>
   <v>      -0.01224696      -0.00000000       0.00173178 </v>
   <v>      -0.01752183       0.00000000       0.00332517 </v>
  </varray>
  <varray name="stress" >
   <v>      -0.30881088       0.00000000       0.00000000 </v>
   <v>       0.00000000      -0.52588720       0.00000000 </v>
   <v>       0.00000000       0.00000000      -0.61587608 </v>
  </varray>
  <energy>
   <i name="e_fr_energy">   -334.66879217 </i>
   <i name="e_wo_entrp">   -334.66879217 </i>
   <i name="e_0_energy">     -0.00000000 </i>
  </energy>
  <time name="totalsc"> 1411.13 1434.91</time>
  <eigenvalues>
   <array>
    <dimension dim="1">band</dimension>
    <dimension dim="2">kpoint</dimension>
    <dimension dim="3">spin</dimension>
    <field>eigene</field>
    <field>occ</field>
    <set>
     <set comment="spin 1">
      <set comment="kpoint 1">
       <r>  -27.2502    1.0000 </r>
       <r>  -27.2501    1.0000 </r>
       <r>  -26.2837    1.0000 </r>
       <r>  -26.2835    1.0000 </r>
       <r>  -26.2603    1.0000 </r>
       <r>  -26.2599    1.0000 </r>
       <r>  -26.2483    1.0000 </r>
       <r>  -26.2482    1.0000 </r>
       <r>  -26.1968    1.0000 </r>
       <r>  -26.1936    1.0000 </r>
       <r>  -26.1892    1.0000 </r>
       <r>  -26.1888    1.0000 </r>
       <r>  -26.1832    1.0000 </r>
       <r>  -26.1827    1.0000 </r>
       <r>  -26.1725    1.0000 </r>
       <r>  -26.1719    1.0000 </r>
       <r>  -26.1177    1.0000 </r>
       <r>  -26.1172    1.0000 </r>
       <r>  -26.1138    1.0000 </r>
       <r>  -26.1136    1.0000 </r>
       <r>  -26.1108    1.0000 </r>
       <r>  -26.1084    1.0000 </r>
       <r>  -26.1062    1.0000 </r>
       <r>  -26.1060    1.0000 </r>
       <r>  -26.0961    1.0000 </r>
       <r>  -26.0954    1.0000 </r>
       <r>  -26.0558    1.0000 </r>
       <r>  -26.0556    1.0000 </r>
       <r>  -12.6248    1.0000 </r>
       <r>  -12.6246    1.0000 </r>
       <r>  -12.5518    1.0000 </r>
       <r>  -12.5516    1.0000 </r>
       <r>  -12.4599    1.0000 </r>
       <r>  -12.4598    1.0000 </r>
       <r>  -11.8680    1.0000 </r>
       <r>  -11.8679    1.0000 </r>
       <r>  -11.8002    1.0000 </r>
       <r>  -11.7977    1.0000 </r>
       <r>  -11.7901    1.0000 </r>
       <r>  -11.7654    1.0000 </r>
       <r>  -11.7560    1.0000 </r>
       <r>  -11.7352    1.0000 </r>
       <r>  -11.7298    1.0000 </r>
       <r>  -11.7277    1.0000 </r>
       <r>  -11.7234    1.0000 </r>
       <r>  -11.7016    1.0000 </r>
       <r>  -11.6980    1.0000 </r>
       <r>  -11.6804    1.0000 </r>
       <r>  -11.6778    1.0000 </r>
       <r>  -11.6670    1.0000 </r>
       <r>  -11.6621    1.0000 </r>
       <r>  -11.6461    1.0000 </r>
       <r>  -11.6408    1.0000 </r>
       <r>  -11.6387    1.0000 </r>
       <r>  -11.6358    1.0000 </r>
       <r>  -11.6285    1.0000 </r>
       <r>  -11.6250    1.0000 </r>
       <r>  -11.6182    1.0000 </r>
       <r>  -11.6152    1.0000 </r>
       <r>  -11.6095    1.0000 </r>
       <r>  -11.6063    1.0000 </r>
       <r>  -11.6046    1.0000 </r>
       <r>  -11.6004    1.0000 </r>
       <r>  -11.5996    1.0000 </r>
       <r>  -11.5983    1.0000 </r>
       <r>  -11.5960    1.0000 </r>
       <r>  -11.5943    1.0000 </r>
       <r>  -11.5907    1.0000 </r>
       <r>  -11.5852    1.0000 </r>
       <r>  -11.5757    1.0000 </r>
       <r>  -11.5741    1.0000 </r>
       <r>  -11.5712    1.0000 </r>
       <r>  -11.5681    1.0000 </r>
       <r>  -11.5647    1.0000 </r>
       <r>  -11.5629    1.0000 </r>
       <r>  -11.5539    1.0000 </r>
       <r>  -11.5336    1.0000 </r>
       <r>  -11.5256    1.0000 </r>
       <r>  -11.5113    1.0000 </r>
       <r>  -11.4893    1.0000 </r>
       <r>  -11.4564    1.0000 </r>
       <r>  -11.4529    1.0000 </r>
       <r>  -11.4412    1.0000 </r>
       <r>  -11.4408    1.0000 </r>
       <r>  -11.4367    1.0000 </r>
       <r>  -11.4304    1.0000 </r>
       <r>  -11.4270    1.0000 </r>
       <r>  -11.4222    1.0000 </r>
       <r>  -11.4193    1.0000 </r>
       <r>  -11.4131    1.0000 </r>
       <r>  -11.4114    1.0000 </r>
       <r>  -11.4114    1.0000 </r>
       <r>  -11.4062    1.0000 </r>
       <r>  -11.4056    1.0000 </r>
       <r>  -11.3963    1.0000 </r>
       <r>  -11.3950    1.0000 </r>
       <r>  -11.3899    1.0000 </r>
       <r>  -11.3857    1.0000 </r>
       <r>  -11.3823    1.0000 </r>
       <r>  -11.3803    1.0000 </r>
       <r>  -11.3803    1.0000 </r>
       <r>  -11.3765    1.0000 </r>
       <r>  -11.3691    1.0000 </r>
       <r>  -11.3682    1.0000 </r>
       <r>  -11.3678    1.0000 </r>
       <r>  -11.3628    1.0000 </r>
       <r>  -11.3553    1.0000 </r>
       <r>  -11.3550    1.0000 </r>
       <r>  -11.3549    1.0000 </r>
       <r>  -11.3491    1.0000 </r>
       <r>  -11.3432    1.0000 </r>
       <r>  -11.3430    1.0000 </r>
       <r>   -9.4697    1.0000 </r>
       <r>   -9.4131    1.0000 </r>
       <r>   -9.3331    1.0000 </r>
       <r>   -9.2557    1.0000 </r>
       <r>   -9.2103    1.0000 </r>
       <r>   -9.2022    1.0000 </r>
       <r>   -9.1975    1.0000 </r>
       <r>   -9.1784    1.0000 </r>
       <r>   -9.1742    1.0000 </r>
       <r>   -9.1732    1.0000 </r>
       <r>   -9.1520    1.0000 </r>
       <r>   -9.1440    1.0000 </r>
       <r>   -8.8002    1.0000 </r>
       <r>   -8.8002    1.0000 </r>
       <r>   -4.8568    1.0000 </r>
       <r>   -4.8473    1.0000 </r>
       <r>   -4.8084    1.0000 </r>
       <r>   -4.7989    1.0000 </r>
       <r>   -4.7756    1.0000 </r>
       <r>   -4.6945    1.0000 </r>
       <r>   -4.6588    1.0000 </r>
       <r>   -4.6041    1.0000 </r>
       <r>   -4.5436    1.0000 </r>
       <r>   -4.5137    1.0000 </r>
       <r>   -4.5086    1.0000 </r>
       <r>   -4.4870    1.0000 </r>
       <r>   -4.4823    1.0000 </r>
       <r>   -4.4740    1.0000 </r>
       <r>   -4.4369    1.0000 </r>
       <r>   -4.4356    1.0000 </r>
       <r>   -4.4073    1.0000 </r>
       <r>   -4.4046    1.0000 </r>
       <r>   -4.3843    1.0000 </r>
       <r>   -4.3823    1.0000 </r>
       <r>   -4.3754    1.0000 </r>
       <r>   -4.3622    1.0000 </r>
       <r>   -4.3469    1.0000 </r>
       <r>   -4.3440    1.0000 </r>
       <r>   -4.3374    1.0000 </r>
       <r>   -4.3270    1.0000 </r>
       <r>   -4.2924    1.0000 </r>
       <r>   -4.2875    1.0000 </r>
       <r>   -4.2874    1.0000 </r>
       <r>   -4.2778    1.0000 </r>
       <r>   -4.2753    1.0000 </r>
       <r>   -4.2743    1.0000 </r>
       <r>   -4.2463    1.0000 </r>
       <r>   -4.2339    1.0000 </r>
       <r>   -4.1945    1.0000 </r>
       <r>   -4.1720    1.0000 </r>
       <r>   -4.0962    1.0000 </r>
       <r>   -4.0860    1.0000 </r>
       <r>   -4.0011    1.0000 </r>
       <r>   -3.9791    1.0000 </r>
       <r>   -3.7669    1.0000 </r>
       <r>   -3.7668    1.0000 </r>
       <r>   -2.1876    1.0000 </r>
       <r>   -1.9966    1.0000 </r>
       <r>   -1.7511    1.0000 </r>
       <r>   -1.5105    1.0000 </r>
       <r>   -1.3170    1.0000 </r>
       <r>   -1.1899    1.0000 </r>
       <r>   -1.1452    1.0000 </r>
       <r>   -1.1376    1.0000 </r>
       <r>   -1.1301    1.0000 </r>
       <r>   -1.1256    1.0000 </r>
       <r>   -1.0719    1.0000 </r>
       <r>   -1.0120    1.0000 </r>
       <r>   -1.0073    1.0000 </r>
       <r>   -0.9234    1.0000 </r>
       <r>   -0.7911    1.0000 </r>
       <r>   -0.7544    1.0000 </r>
       <r>   -0.6802    1.0000 </r>
       <r>   -0.6673    1.0000 </r>
       <r>   -0.5756    1.0000 </r>
       <r>   -0.5131    1.0000 </r>
       <r>   -0.4649    1.0000 </r>
       <r>   -0.4551    1.0000 </r>
       <r>   -0.3936    1.0000 </r>
       <r>   -0.3680    1.0000 </r>
       <r>   -0.3626    1.0000 </r>
       <r>   -0.3541    1.0000 </r>
       <r>   -0.3131    1.0000 </r>
       <r>   -0.3022    1.0000 </r>
       <r>   -0.2728    1.0000 </r>
       <r>   -0.2553    1.0000 </r>
       <r>   -0.2459    1.0000 </r>
       <r>   -0.2125    1.0000 </r>
       <r>   -0.1874    1.0000 </r>
       <r>   -0.1860    1.0000 </r>
       <r>   -0.1765    1.0000 </r>
       <r>   -0.1457    1.0000 </r>
       <r>   -0.1055    1.0000 </r>
       <r>   -0.0886    1.0000 </r>
       <r>   -0.0819    1.0000 </r>
       <r>   -0.0816    1.0000 </r>
       <r>   -0.0455    1.0000 </r>
       <r>   -0.0218    1.0000 </r>
       <r>    0.0011    1.0000 </r>
       <r>    0.0061    1.0000 </r>
       <r>    0.0393    1.0000 </r>
       <r>    0.0871    1.0000 </r>
       <r>    0.0967    1.0000 </r>
       <r>    0.1015    1.0000 </r>
       <r>    0.1785    1.0000 </r>
       <r>    0.1952    1.0000 </r>
       <r>    0.2011    1.0000 </r>
       <r>    0.2215    1.0000 </r>
       <r>    0.2344    1.0000 </r>
       <r>    0.2588    1.0000 </r>
       <r>    0.2663    1.0000 </r>
       <r>    0.2714    1.0000 </r>
       <r>    0.2959    1.0000 </r>
       <r>    0.3195    1.0000 </r>
       <r>    0.3216    1.0000 </r>
       <r>    0.3306    1.0000 </r>
       <r>    0.3541    1.0000 </r>
       <r>    0.3601    1.0000 </r>
       <r>    0.3662    1.0000 </r>
       <r>    0.3933    1.0000 </r>
       <r>    0.5413    1.0000 </r>
       <r>    0.5474    1.0000 </r>
       <r>    0.6544    1.0000 </r>
       <r>    0.6630    1.0000 </r>
       <r>    0.6751    1.0000 </r>
       <r>    0.6855    1.0000 </r>
       <r>    0.6859    1.0000 </r>
       <r>    0.6982    1.0000 </r>
       <r>    0.7177    1.0000 </r>
       <r>    0.7557    1.0000 </r>
       <r>    0.8370    1.0000 </r>
       <r>    0.8744    1.0000 </r>
       <r>    0.8855    1.0000 </r>
       <r>    0.9001    1.0000 </r>
       <r>    0.9620    1.0000 </r>
       <r>    0.9752    1.0000 </r>
       <r>    1.0607    1.0000 </r>
       <r>    1.0612    1.0000 </r>
       <r>    1.0771    1.0000 </r>
       <r>    1.1121    1.0000 </r>
       <r>    2.2796    0.0000 </r>
       <r>    2.3135    0.0000 </r>
       <r>    2.3509    0.0000 </r>
       <r>    2.3943    0.0000 </r>
       <r>    2.4546    0.0000 </r>
       <r>    2.4873    0.0000 </r>
       <r>    2.5374    0.0000 </r>
       <r>    2.5506    0.0000 </r>
       <r>    2.5642    0.0000 </r>
       <r>    2.5653    0.0000 </r>
       <r>    2.5654    0.0000 </r>
       <r>    2.6100    0.0000 </r>
       <r>    2.6369    0.0000 </r>
       <r>    2.7069    0.0000 </r>
       <r>    2.7304    0.0000 </r>
       <r>    2.7535    0.0000 </r>
       <r>    2.8056    0.0000 </r>
       <r>    2.8170    0.0000 </r>
       <r>    2.8425    0.0000 </r>
       <r>    2.8678    0.0000 </r>
       <r>    2.9324    0.0000 </r>
       <r>    2.9347    0.0000 </r>
       <r>    3.0047    0.0000 </r>
       <r>    3.0928    0.0000 </r>
       <r>    3.1095    0.0000 </r>
       <r>    3.1664    0.0000 </r>
       <r>    3.1673    0.0000 </r>
       <r>    3.1801    0.0000 </r>
       <r>    3.1875    0.0000 </r>
       <r>    3.2575    0.0000 </r>
       <r>    3.2583    0.0000 </r>
       <r>    3.3406    0.0000 </r>
       <r>    3.4474    0.0000 </r>
       <r>    3.4690    0.0000 </r>
       <r>    3.5555    0.0000 </r>
       <r>    3.5778    0.0000 </r>
       <r>    3.5831    0.0000 </r>
       <r>    3.6784    0.0000 </r>
       <r>    3.7245    0.0000 </r>
       <r>    3.7285    0.0000 </r>
       <r>    3.7467    0.0000 </r>
       <r>    3.7489    0.0000 </r>
       <r>    3.7512    0.0000 </r>
       <r>    3.8448    0.0000 </r>
       <r>    3.8480    0.0000 </r>
       <r>    3.9063    0.0000 </r>
       <r>    3.9648    0.0000 </r>
       <r>    3.9745    0.0000 </r>
       <r>    3.9845    0.0000 </r>
       <r>    4.0605    0.0000 </r>
       <r>    4.0666    0.0000 </r>
       <r>    4.1052    0.0000 </r>
      </set>
      <set comment="kpoint 2">
       <r>  -27.2502    1.0000 </r>
       <r>  -27.2501    1.0000 </r>
       <r>  -26.2836    1.0000 </r>
       <r>  -26.2835    1.0000 </r>
       <r>  -26.2603    1.0000 </r>
       <r>  -26.2599    1.0000 </r>
       <r>  -26.2483    1.0000 </r>
       <r>  -26.2482    1.0000 </r>
       <r>  -26.1967    1.0000 </r>
       <r>  -26.1936    1.0000 </r>
       <r>  -26.1892    1.0000 </r>
       <r>  -26.1888    1.0000 </r>
       <r>  -26.1832    1.0000 </r>
       <r>  -26.1827    1.0000 </r>
       <r>  -26.1725    1.0000 </r>
       <r>  -26.1719    1.0000 </r>
       <r>  -26.1178    1.0000 </r>
       <r>  -26.1172    1.0000 </r>
       <r>  -26.1138    1.0000 </r>
       <r>  -26.1136    1.0000 </r>
       <r>  -26.1108    1.0000 </r>
       <r>  -26.1084    1.0000 </r>
       <r>  -26.1062    1.0000 </r>
       <r>  -26.1060    1.0000 </r>
       <r>  -26.0961    1.0000 </r>
       <r>  -26.0954    1.0000 </r>
       <r>  -26.0558    1.0000 </r>
       <r>  -26.0556    1.0000 </r>
       <r>  -12.6248    1.0000 </r>
       <r>  -12.6246    1.0000 </r>
       <r>  -12.5518    1.0000 </r>
       <r>  -12.5517    1.0000 </r>
       <r>  -12.4602    1.0000 </r>
       <r>  -12.4600    1.0000 </r>
       <r>  -11.8679    1.0000 </r>
       <r>  -11.8678    1.0000 </r>
       <r>  -11.8004    1.0000 </r>
       <r>  -11.7976    1.0000 </r>
       <r>  -11.7907    1.0000 </r>
       <r>  -11.7667    1.0000 </r>
       <r>  -11.7563    1.0000 </r>
       <r>  -11.7404    1.0000 </r>
       <r>  -11.7301    1.0000 </r>
       <r>  -11.7227    1.0000 </r>
       <r>  -11.7222    1.0000 </r>
       <r>  -11.7009    1.0000 </r>
       <r>  -11.6980    1.0000 </r>
       <r>  -11.6810    1.0000 </r>
       <r>  -11.6784    1.0000 </r>
       <r>  -11.6668    1.0000 </r>
       <r>  -11.6624    1.0000 </r>
       <r>  -11.6469    1.0000 </r>
       <r>  -11.6416    1.0000 </r>
       <r>  -11.6391    1.0000 </r>
       <r>  -11.6361    1.0000 </r>
       <r>  -11.6296    1.0000 </r>
       <r>  -11.6256    1.0000 </r>
       <r>  -11.6220    1.0000 </r>
       <r>  -11.6161    1.0000 </r>
       <r>  -11.6105    1.0000 </r>
       <r>  -11.6079    1.0000 </r>
       <r>  -11.6027    1.0000 </r>
       <r>  -11.6023    1.0000 </r>
       <r>  -11.6004    1.0000 </r>
       <r>  -11.5978    1.0000 </r>
       <r>  -11.5974    1.0000 </r>
       <r>  -11.5914    1.0000 </r>
       <r>  -11.5881    1.0000 </r>
       <r>  -11.5842    1.0000 </r>
       <r>  -11.5776    1.0000 </r>
       <r>  -11.5770    1.0000 </r>
       <r>  -11.5727    1.0000 </r>
       <r>  -11.5696    1.0000 </r>
       <r>  -11.5667    1.0000 </r>
       <r>  -11.5521    1.0000 </r>
       <r>  -11.5512    1.0000 </r>
       <r>  -11.5336    1.0000 </r>
       <r>  -11.5253    1.0000 </r>
       <r>  -11.5112    1.0000 </r>
       <r>  -11.4893    1.0000 </r>
       <r>  -11.4565    1.0000 </r>
       <r>  -11.4536    1.0000 </r>
       <r>  -11.4413    1.0000 </r>
       <r>  -11.4409    1.0000 </r>
       <r>  -11.4368    1.0000 </r>
       <r>  -11.4302    1.0000 </r>
       <r>  -11.4265    1.0000 </r>
       <r>  -11.4226    1.0000 </r>
       <r>  -11.4191    1.0000 </r>
       <r>  -11.4128    1.0000 </r>
       <r>  -11.4122    1.0000 </r>
       <r>  -11.4105    1.0000 </r>
       <r>  -11.4061    1.0000 </r>
       <r>  -11.4054    1.0000 </r>
       <r>  -11.3964    1.0000 </r>
       <r>  -11.3949    1.0000 </r>
       <r>  -11.3900    1.0000 </r>
       <r>  -11.3854    1.0000 </r>
       <r>  -11.3832    1.0000 </r>
       <r>  -11.3817    1.0000 </r>
       <r>  -11.3777    1.0000 </r>
       <r>  -11.3763    1.0000 </r>
       <r>  -11.3690    1.0000 </r>
       <r>  -11.3680    1.0000 </r>
       <r>  -11.3679    1.0000 </r>
       <r>  -11.3626    1.0000 </r>
       <r>  -11.3556    1.0000 </r>
       <r>  -11.3553    1.0000 </r>
       <r>  -11.3546    1.0000 </r>
       <r>  -11.3487    1.0000 </r>
       <r>  -11.3432    1.0000 </r>
       <r>  -11.3430    1.0000 </r>
       <r>   -9.4682    1.0000 </r>
       <r>   -9.4118    1.0000 </r>
       <r>   -9.3321    1.0000 </r>
       <r>   -9.2552    1.0000 </r>
       <r>   -9.2100    1.0000 </r>
       <r>   -9.2018    1.0000 </r>
       <r>   -9.1973    1.0000 </r>
       <r>   -9.1782    1.0000 </r>
       <r>   -9.1740    1.0000 </r>
       <r>   -9.1731    1.0000 </r>
       <r>   -9.1519    1.0000 </r>
       <r>   -9.1441    1.0000 </r>
       <r>   -8.7998    1.0000 </r>
       <r>   -8.7998    1.0000 </r>
       <r>   -4.8549    1.0000 </r>
       <r>   -4.8454    1.0000 </r>
       <r>   -4.8068    1.0000 </r>
       <r>   -4.7976    1.0000 </r>
       <r>   -4.7748    1.0000 </r>
       <r>   -4.6939    1.0000 </r>
       <r>   -4.6595    1.0000 </r>
       <r>   -4.6034    1.0000 </r>
       <r>   -4.5444    1.0000 </r>
       <r>   -4.5167    1.0000 </r>
       <r>   -4.5049    1.0000 </r>
       <r>   -4.4883    1.0000 </r>
       <r>   -4.4817    1.0000 </r>
       <r>   -4.4715    1.0000 </r>
       <r>   -4.4389    1.0000 </r>
       <r>   -4.4350    1.0000 </r>
       <r>   -4.4059    1.0000 </r>
       <r>   -4.4056    1.0000 </r>
       <r>   -4.3834    1.0000 </r>
       <r>   -4.3828    1.0000 </r>
       <r>   -4.3771    1.0000 </r>
       <r>   -4.3615    1.0000 </r>
       <r>   -4.3489    1.0000 </r>
       <r>   -4.3466    1.0000 </r>
       <r>   -4.3363    1.0000 </r>
       <r>   -4.3245    1.0000 </r>
       <r>   -4.2971    1.0000 </r>
       <r>   -4.2870    1.0000 </r>
       <r>   -4.2863    1.0000 </r>
       <r>   -4.2828    1.0000 </r>
       <r>   -4.2764    1.0000 </r>
       <r>   -4.2688    1.0000 </r>
       <r>   -4.2464    1.0000 </r>
       <r>   -4.2356    1.0000 </r>
       <r>   -4.1989    1.0000 </r>
       <r>   -4.1694    1.0000 </r>
       <r>   -4.0953    1.0000 </r>
       <r>   -4.0853    1.0000 </r>
       <r>   -4.0006    1.0000 </r>
       <r>   -3.9791    1.0000 </r>
       <r>   -3.7687    1.0000 </r>
       <r>   -3.7686    1.0000 </r>
       <r>   -2.1805    1.0000 </r>
       <r>   -1.9906    1.0000 </r>
       <r>   -1.7463    1.0000 </r>
       <r>   -1.5066    1.0000 </r>
       <r>   -1.3138    1.0000 </r>
       <r>   -1.1870    1.0000 </r>
       <r>   -1.1420    1.0000 </r>
       <r>   -1.1352    1.0000 </r>
       <r>   -1.1276    1.0000 </r>
       <r>   -1.1217    1.0000 </r>
       <r>   -1.0702    1.0000 </r>
       <r>   -1.0107    1.0000 </r>
       <r>   -1.0062    1.0000 </r>
       <r>   -0.9233    1.0000 </r>
       <r>   -0.7898    1.0000 </r>
       <r>   -0.7534    1.0000 </r>
       <r>   -0.6800    1.0000 </r>
       <r>   -0.6683    1.0000 </r>
       <r>   -0.5775    1.0000 </r>
       <r>   -0.5145    1.0000 </r>
       <r>   -0.4802    1.0000 </r>
       <r>   -0.4573    1.0000 </r>
       <r>   -0.3864    1.0000 </r>
       <r>   -0.3746    1.0000 </r>
       <r>   -0.3588    1.0000 </r>
       <r>   -0.3508    1.0000 </r>
       <r>   -0.3124    1.0000 </r>
       <r>   -0.3051    1.0000 </r>
       <r>   -0.2691    1.0000 </r>
       <r>   -0.2534    1.0000 </r>
       <r>   -0.2455    1.0000 </r>
       <r>   -0.2135    1.0000 </r>
       <r>   -0.1957    1.0000 </r>
       <r>   -0.1773    1.0000 </r>
       <r>   -0.1767    1.0000 </r>
       <r>   -0.1455    1.0000 </r>
       <r>   -0.1096    1.0000 </r>
       <r>   -0.0900    1.0000 </r>
       <r>   -0.0836    1.0000 </r>
       <r>   -0.0833    1.0000 </r>
       <r>   -0.0433    1.0000 </r>
       <r>   -0.0221    1.0000 </r>
       <r>   -0.0003    1.0000 </r>
       <r>    0.0055    1.0000 </r>
       <r>    0.0412    1.0000 </r>
       <r>    0.0852    1.0000 </r>
       <r>    0.0955    1.0000 </r>
       <r>    0.1025    1.0000 </r>
       <r>    0.1743    1.0000 </r>
       <r>    0.1946    1.0000 </r>
       <r>    0.1993    1.0000 </r>
       <r>    0.2209    1.0000 </r>
       <r>    0.2327    1.0000 </r>
       <r>    0.2531    1.0000 </r>
       <r>    0.2577    1.0000 </r>
       <r>    0.2736    1.0000 </r>
       <r>    0.2955    1.0000 </r>
       <r>    0.3161    1.0000 </r>
       <r>    0.3290    1.0000 </r>
       <r>    0.3358    1.0000 </r>
       <r>    0.3579    1.0000 </r>
       <r>    0.3601    1.0000 </r>
       <r>    0.3729    1.0000 </r>
       <r>    0.3974    1.0000 </r>
       <r>    0.5402    1.0000 </r>
       <r>    0.5496    1.0000 </r>
       <r>    0.6540    1.0000 </r>
       <r>    0.6638    1.0000 </r>
       <r>    0.6759    1.0000 </r>
       <r>    0.6763    1.0000 </r>
       <r>    0.6843    1.0000 </r>
       <r>    0.6970    1.0000 </r>
       <r>    0.7243    1.0000 </r>
       <r>    0.7520    1.0000 </r>
       <r>    0.8279    1.0000 </r>
       <r>    0.8734    1.0000 </r>
       <r>    0.8754    1.0000 </r>
       <r>    0.8869    1.0000 </r>
       <r>    0.9755    1.0000 </r>
       <r>    0.9794    1.0000 </r>
       <r>    1.0630    1.0000 </r>
       <r>    1.0643    1.0000 </r>
       <r>    1.0785    1.0000 </r>
       <r>    1.1133    1.0000 </r>
       <r>    2.2794    0.0000 </r>
       <r>    2.3149    0.0000 </r>
       <r>    2.3423    0.0000 </r>
       <r>    2.3865    0.0000 </r>
       <r>    2.4445    0.0000 </r>
       <r>    2.4925    0.0000 </r>
       <r>    2.5301    0.0000 </r>
       <r>    2.5512    0.0000 </r>
       <r>    2.5565    0.0000 </r>
       <r>    2.5635    0.0000 </r>
       <r>    2.5753    0.0000 </r>
       <r>    2.6118    0.0000 </r>
       <r>    2.6276    0.0000 </r>
       <r>    2.7086    0.0000 </r>
       <r>    2.7286    0.0000 </r>
       <r>    2.7606    0.0000 </r>
       <r>    2.8002    0.0000 </r>
       <r>    2.8229    0.0000 </r>
       <r>    2.8489    0.0000 </r>
       <r>    2.8683    0.0000 </r>
       <r>    2.9259    0.0000 </r>
       <r>    2.9405    0.0000 </r>
       <r>    3.0096    0.0000 </r>
       <r>    3.0915    0.0000 </r>
       <r>    3.1135    0.0000 </r>
       <r>    3.1543    0.0000 </r>
       <r>    3.1591    0.0000 </r>
       <r>    3.1759    0.0000 </r>
       <r>    3.1812    0.0000 </r>
       <r>    3.2661    0.0000 </r>
       <r>    3.2686    0.0000 </r>
       <r>    3.3468    0.0000 </r>
       <r>    3.4558    0.0000 </r>
       <r>    3.4689    0.0000 </r>
       <r>    3.5372    0.0000 </r>
       <r>    3.5745    0.0000 </r>
       <r>    3.6012    0.0000 </r>
       <r>    3.6774    0.0000 </r>
       <r>    3.7157    0.0000 </r>
       <r>    3.7290    0.0000 </r>
       <r>    3.7365    0.0000 </r>
       <r>    3.7412    0.0000 </r>
       <r>    3.7610    0.0000 </r>
       <r>    3.8478    0.0000 </r>
       <r>    3.8523    0.0000 </r>
       <r>    3.9054    0.0000 </r>
       <r>    3.9460    0.0000 </r>
       <r>    3.9866    0.0000 </r>
       <r>    3.9948    0.0000 </r>
       <r>    4.0429    0.0000 </r>
       <r>    4.0683    0.0000 </r>
       <r>    4.0973    0.0000 </r>
      </set>
      <set comment="kpoint 3">
       <r>  -27.2502    1.0000 </r>
       <r>  -27.2501    1.0000 </r>
       <r>  -26.2836    1.0000 </r>
       <r>  -26.2835    1.0000 </r>
       <r>  -26.2603    1.0000 </r>
       <r>  -26.2598    1.0000 </r>
       <r>  -26.2482    1.0000 </r>
       <r>  -26.2481    1.0000 </r>
       <r>  -26.1967    1.0000 </r>
       <r>  -26.1935    1.0000 </r>
       <r>  -26.1892    1.0000 </r>
       <r>  -26.1888    1.0000 </r>
       <r>  -26.1831    1.0000 </r>
       <r>  -26.1826    1.0000 </r>
       <r>  -26.1725    1.0000 </r>
       <r>  -26.1719    1.0000 </r>
       <r>  -26.1178    1.0000 </r>
       <r>  -26.1173    1.0000 </r>
       <r>  -26.1138    1.0000 </r>
       <r>  -26.1136    1.0000 </r>
       <r>  -26.1109    1.0000 </r>
       <r>  -26.1084    1.0000 </r>
       <r>  -26.1063    1.0000 </r>
       <r>  -26.1061    1.0000 </r>
       <r>  -26.0961    1.0000 </r>
       <r>  -26.0955    1.0000 </r>
       <r>  -26.0559    1.0000 </r>
[...]
       <r>   -26.9779     0.0000     4.0000 </r>
       <r>   -26.8626     0.0000     4.0000 </r>
       <r>   -26.7474     0.0000     4.0000 </r>
       <r>   -26.6322     0.0000     4.0000 </r>
       <r>   -26.5169     0.0000     4.0000 </r>
       <r>   -26.4017     0.0000     4.0000 </r>
       <r>   -26.2865    11.4798     5.3228 </r>
       <r>   -26.1713   154.5342    29.8070 </r>
       <r>   -26.0560   191.1049    54.0211 </r>
       <r>   -25.9408     0.0000    56.0000 </r>
       <r>   -25.8256     0.0000    56.0000 </r>
       <r>   -25.7103     0.0000    56.0000 </r>
       <r>   -25.5951     0.0000    56.0000 </r>
       <r>   -25.4799     0.0000    56.0000 </r>
       <r>   -25.3646     0.0000    56.0000 </r>
       <r>   -25.2494     0.0000    56.0000 </r>
       <r>   -25.1342     0.0000    56.0000 </r>
       <r>   -25.0190     0.0000    56.0000 </r>
       <r>   -24.9037     0.0000    56.0000 </r>
       <r>   -24.7885     0.0000    56.0000 </r>
       <r>   -24.6733     0.0000    56.0000 </r>
       <r>   -24.5580     0.0000    56.0000 </r>
       <r>   -24.4428     0.0000    56.0000 </r>
       <r>   -24.3276     0.0000    56.0000 </r>
       <r>   -24.2123     0.0000    56.0000 </r>
       <r>   -24.0971     0.0000    56.0000 </r>
       <r>   -23.9819     0.0000    56.0000 </r>
       <r>   -23.8667     0.0000    56.0000 </r>
       <r>   -23.7514     0.0000    56.0000 </r>
       <r>   -23.6362     0.0000    56.0000 </r>
       <r>   -23.5210     0.0000    56.0000 </r>
       <r>   -23.4057     0.0000    56.0000 </r>
       <r>   -23.2905     0.0000    56.0000 </r>
       <r>   -23.1753     0.0000    56.0000 </r>
       <r>   -23.0600     0.0000    56.0000 </r>
       <r>   -22.9448     0.0000    56.0000 </r>
       <r>   -22.8296     0.0000    56.0000 </r>
       <r>   -22.7144     0.0000    56.0000 </r>
       <r>   -22.5991     0.0000    56.0000 </r>
       <r>   -22.4839     0.0000    56.0000 </r>
       <r>   -22.3687     0.0000    56.0000 </r>
       <r>   -22.2534     0.0000    56.0000 </r>
       <r>   -22.1382     0.0000    56.0000 </r>
       <r>   -22.0230     0.0000    56.0000 </r>
       <r>   -21.9077     0.0000    56.0000 </r>
       <r>   -21.7925     0.0000    56.0000 </r>
       <r>   -21.6773     0.0000    56.0000 </r>
       <r>   -21.5620     0.0000    56.0000 </r>
       <r>   -21.4468     0.0000    56.0000 </r>
       <r>   -21.3316     0.0000    56.0000 </r>
       <r>   -21.2164     0.0000    56.0000 </r>
       <r>   -21.1011     0.0000    56.0000 </r>
       <r>   -20.9859     0.0000    56.0000 </r>
       <r>   -20.8707     0.0000    56.0000 </r>
       <r>   -20.7554     0.0000    56.0000 </r>
       <r>   -20.6402     0.0000    56.0000 </r>
       <r>   -20.5250     0.0000    56.0000 </r>
       <r>   -20.4097     0.0000    56.0000 </r>
       <r>   -20.2945     0.0000    56.0000 </r>
       <r>   -20.1793     0.0000    56.0000 </r>
       <r>   -20.0641     0.0000    56.0000 </r>
       <r>   -19.9488     0.0000    56.0000 </r>
       <r>   -19.8336     0.0000    56.0000 </r>
       <r>   -19.7184     0.0000    56.0000 </r>
       <r>   -19.6031     0.0000    56.0000 </r>
       <r>   -19.4879     0.0000    56.0000 </r>
       <r>   -19.3727     0.0000    56.0000 </r>
       <r>   -19.2574     0.0000    56.0000 </r>
       <r>   -19.1422     0.0000    56.0000 </r>
       <r>   -19.0270     0.0000    56.0000 </r>
       <r>   -18.9118     0.0000    56.0000 </r>
       <r>   -18.7965     0.0000    56.0000 </r>
       <r>   -18.6813     0.0000    56.0000 </r>
       <r>   -18.5661     0.0000    56.0000 </r>
       <r>   -18.4508     0.0000    56.0000 </r>
       <r>   -18.3356     0.0000    56.0000 </r>
       <r>   -18.2204     0.0000    56.0000 </r>
       <r>   -18.1051     0.0000    56.0000 </r>
       <r>   -17.9899     0.0000    56.0000 </r>
       <r>   -17.8747     0.0000    56.0000 </r>
       <r>   -17.7595     0.0000    56.0000 </r>
       <r>   -17.6442     0.0000    56.0000 </r>
       <r>   -17.5290     0.0000    56.0000 </r>
       <r>   -17.4138     0.0000    56.0000 </r>
       <r>   -17.2985     0.0000    56.0000 </r>
       <r>   -17.1833     0.0000    56.0000 </r>
       <r>   -17.0681     0.0000    56.0000 </r>
       <r>   -16.9528     0.0000    56.0000 </r>
       <r>   -16.8376     0.0000    56.0000 </r>
       <r>   -16.7224     0.0000    56.0000 </r>
       <r>   -16.6071     0.0000    56.0000 </r>
       <r>   -16.4919     0.0000    56.0000 </r>
       <r>   -16.3767     0.0000    56.0000 </r>
       <r>   -16.2615     0.0000    56.0000 </r>
       <r>   -16.1462     0.0000    56.0000 </r>
       <r>   -16.0310     0.0000    56.0000 </r>
       <r>   -15.9158     0.0000    56.0000 </r>
       <r>   -15.8005     0.0000    56.0000 </r>
       <r>   -15.6853     0.0000    56.0000 </r>
       <r>   -15.5701     0.0000    56.0000 </r>
       <r>   -15.4548     0.0000    56.0000 </r>
       <r>   -15.3396     0.0000    56.0000 </r>
       <r>   -15.2244     0.0000    56.0000 </r>
       <r>   -15.1092     0.0000    56.0000 </r>
       <r>   -14.9939     0.0000    56.0000 </r>
       <r>   -14.8787     0.0000    56.0000 </r>
       <r>   -14.7635     0.0000    56.0000 </r>
       <r>   -14.6482     0.0000    56.0000 </r>
       <r>   -14.5330     0.0000    56.0000 </r>
       <r>   -14.4178     0.0000    56.0000 </r>
       <r>   -14.3025     0.0000    56.0000 </r>
       <r>   -14.1873     0.0000    56.0000 </r>
       <r>   -14.0721     0.0000    56.0000 </r>
       <r>   -13.9569     0.0000    56.0000 </r>
       <r>   -13.8416     0.0000    56.0000 </r>
       <r>   -13.7264     0.0000    56.0000 </r>
       <r>   -13.6112     0.0000    56.0000 </r>
       <r>   -13.4959     0.0000    56.0000 </r>
       <r>   -13.3807     0.0000    56.0000 </r>
       <r>   -13.2655     0.0000    56.0000 </r>
       <r>   -13.1502     0.0000    56.0000 </r>
       <r>   -13.0350     0.0000    56.0000 </r>
       <r>   -12.9198     0.0000    56.0000 </r>
       <r>   -12.8046     0.0000    56.0000 </r>
       <r>   -12.6893     0.0000    56.0000 </r>
       <r>   -12.5741    34.9144    60.0232 </r>
       <r>   -12.4589    28.8239    67.3214 </r>
       <r>   -12.3436     0.0000    68.0000 </r>
       <r>   -12.2284     0.0000    68.0000 </r>
       <r>   -12.1132     0.0000    68.0000 </r>
       <r>   -11.9979     0.0000    68.0000 </r>
       <r>   -11.8827     0.1418    68.0163 </r>
       <r>   -11.7675   110.6283    83.6477 </r>
       <r>   -11.6523   202.3721   113.3444 </r>
       <r>   -11.5370   184.1517   147.0448 </r>
       <r>   -11.4218   171.1926   174.3766 </r>
       <r>   -11.3066   295.9224   223.9992 </r>
       <r>   -11.1913     0.0000   224.0000 </r>
       <r>   -11.0761     0.0000   224.0000 </r>
       <r>   -10.9609     0.0000   224.0000 </r>
       <r>   -10.8456     0.0000   224.0000 </r>
       <r>   -10.7304     0.0000   224.0000 </r>
       <r>   -10.6152     0.0000   224.0000 </r>
       <r>   -10.4999     0.0000   224.0000 </r>
       <r>   -10.3847     0.0000   224.0000 </r>
       <r>   -10.2695     0.0000   224.0000 </r>
       <r>   -10.1543     0.0000   224.0000 </r>
       <r>   -10.0390     0.0000   224.0000 </r>
       <r>    -9.9238     0.0000   224.0000 </r>
       <r>    -9.8086     0.0000   224.0000 </r>
       <r>    -9.6933     0.0000   224.0000 </r>
       <r>    -9.5781     0.0000   224.0000 </r>
       <r>    -9.4629     1.2934   224.1490 </r>
       <r>    -9.3476     7.2589   225.2364 </r>
       <r>    -9.2324    27.1024   229.2230 </r>
       <r>    -9.1172   126.9984   247.9591 </r>
       <r>    -9.0020     0.0000   248.0000 </r>
       <r>    -8.8867     0.0000   248.0000 </r>
       <r>    -8.7715    17.2612   249.9890 </r>
       <r>    -8.6563    10.8478   252.0000 </r>
       <r>    -8.5410     0.0000   252.0000 </r>
       <r>    -8.4258     0.0000   252.0000 </r>
       <r>    -8.3106     0.0000   252.0000 </r>
       <r>    -8.1953     0.0000   252.0000 </r>
       <r>    -8.0801     0.0000   252.0000 </r>
       <r>    -7.9649     0.0000   252.0000 </r>
       <r>    -7.8497     0.0000   252.0000 </r>
       <r>    -7.7344     0.0000   252.0000 </r>
       <r>    -7.6192     0.0000   252.0000 </r>
       <r>    -7.5040     0.0000   252.0000 </r>
       <r>    -7.3887     0.0000   252.0000 </r>
       <r>    -7.2735     0.0000   252.0000 </r>
       <r>    -7.1583     0.0000   252.0000 </r>
       <r>    -7.0430     0.0000   252.0000 </r>
       <r>    -6.9278     0.0000   252.0000 </r>
       <r>    -6.8126     0.0000   252.0000 </r>
       <r>    -6.6974     0.0000   252.0000 </r>
       <r>    -6.5821     0.0000   252.0000 </r>
       <r>    -6.4669     0.0000   252.0000 </r>
       <r>    -6.3517     0.0000   252.0000 </r>
       <r>    -6.2364     0.0000   252.0000 </r>
       <r>    -6.1212     0.0000   252.0000 </r>
       <r>    -6.0060     0.0000   252.0000 </r>
       <r>    -5.8907     0.0000   252.0000 </r>
       <r>    -5.7755     0.0000   252.0000 </r>
       <r>    -5.6603     0.0000   252.0000 </r>
       <r>    -5.5450     0.0000   252.0000 </r>
       <r>    -5.4298     0.0000   252.0000 </r>
       <r>    -5.3146     0.0000   252.0000 </r>
       <r>    -5.1994     0.0000   252.0000 </r>
       <r>    -5.0841     0.0000   252.0000 </r>
       <r>    -4.9689     0.0000   252.0000 </r>
       <r>    -4.8537     3.4550   252.3981 </r>
       <r>    -4.7384    59.2872   260.8817 </r>
       <r>    -4.6232    44.9850   268.2586 </r>
       <r>    -4.5080    31.4891   274.5785 </r>
       <r>    -4.3927    96.4178   288.3602 </r>
       <r>    -4.2775   105.8998   307.3029 </r>
       <r>    -4.1623    60.1751   321.4090 </r>
       <r>    -4.0471    19.8647   325.9390 </r>
       <r>    -3.9318    47.2984   331.7502 </r>
       <r>    -3.8166     6.1632   334.3602 </r>
       <r>    -3.7014    11.2818   336.0000 </r>
       <r>    -3.5861     0.0000   336.0000 </r>
       <r>    -3.4709     0.0000   336.0000 </r>
       <r>    -3.3557     0.0000   336.0000 </r>
       <r>    -3.2404     0.0000   336.0000 </r>
       <r>    -3.1252     0.0000   336.0000 </r>
       <r>    -3.0100     0.0000   336.0000 </r>
       <r>    -2.8948     0.0000   336.0000 </r>
       <r>    -2.7795     0.0000   336.0000 </r>
       <r>    -2.6643     0.0000   336.0000 </r>
       <r>    -2.5491     0.0000   336.0000 </r>
       <r>    -2.4338     0.0000   336.0000 </r>
       <r>    -2.3186     0.0000   336.0000 </r>
       <r>    -2.2034     0.0069   336.0008 </r>
       <r>    -2.0881     1.2613   336.2953 </r>
       <r>    -1.9729     2.1674   336.5998 </r>
       <r>    -1.8577     1.6529   336.9405 </r>
       <r>    -1.7425     2.7441   337.3162 </r>
       <r>    -1.6272     3.2015   337.9189 </r>
       <r>    -1.5120     5.9756   338.8636 </r>
       <r>    -1.3968     8.8848   340.2988 </r>
       <r>    -1.2815     8.3292   341.5848 </r>
       <r>    -1.1663    28.2230   345.3271 </r>
       <r>    -1.0511    39.7043   351.3501 </r>
       <r>    -0.9358    29.8199   356.3862 </r>
       <r>    -0.8206    35.0607   362.6401 </r>
       <r>    -0.7054    47.4063   369.8126 </r>
       <r>    -0.5901    31.4755   375.2519 </r>
       <r>    -0.4749    38.3890   381.7736 </r>
       <r>    -0.3597    51.0928   390.0124 </r>
       <r>    -0.2445    65.0841   400.1997 </r>
       <r>    -0.1292    81.0421   411.9885 </r>
       <r>    -0.0140    71.9016   424.1102 </r>
       <r>     0.1012    56.6726   434.1304 </r>
       <r>     0.2165    46.0357   441.8047 </r>
       <r>     0.3317    63.9610   451.9202 </r>
       <r>     0.4469    73.7135   463.8190 </r>
       <r>     0.5622    34.6543   469.1432 </r>
       <r>     0.6774    36.4023   476.2696 </r>
       <r>     0.7926    44.6994   484.1757 </r>
       <r>     0.9078    44.6477   491.1948 </r>
       <r>     1.0231    33.8629   497.2270 </r>
       <r>     1.1383    34.2099   503.6170 </r>
       <r>     1.2535     2.3858   503.9999 </r>
       <r>     1.3688     0.0000   504.0000 </r>
       <r>     1.4840     0.0000   504.0000 </r>
       <r>     1.5992     0.0000   504.0000 </r>
       <r>     1.7145     0.0000   504.0000 </r>
       <r>     1.8297     0.0000   504.0000 </r>
       <r>     1.9449     0.0000   504.0000 </r>
       <r>     2.0601     7.4695   504.8607 </r>
       <r>     2.1754    23.2300   508.1018 </r>
       <r>     2.2906    26.5446   512.1087 </r>
       <r>     2.4058    24.3413   516.6799 </r>
       <r>     2.5211    36.2245   522.3992 </r>
       <r>     2.6363    44.8330   529.7411 </r>
       <r>     2.7515    44.1301   536.9101 </r>
       <r>     2.8668    33.5357   543.0393 </r>
       <r>     2.9820    39.8838   549.7458 </r>
       <r>     3.0972    35.9507   556.1176 </r>
       <r>     3.2124    39.4174   562.9171 </r>
       <r>     3.3277    45.9271   570.5172 </r>
       <r>     3.4429    35.6614   576.4343 </r>
       <r>     3.5581    32.4185   583.0606 </r>
       <r>     3.6734    40.6831   589.5879 </r>
       <r>     3.7886    45.2613   597.2155 </r>
       <r>     3.9038    34.5363   602.6796 </r>
       <r>     4.0191    20.7339   606.4142 </r>
       <r>     4.1343     8.0720   607.9051 </r>
       <r>     4.2495     0.2170   608.0000 </r>
       <r>     4.3648     0.0000   608.0000 </r>
       <r>     4.4800     0.0000   608.0000 </r>
       <r>     4.5952     0.0000   608.0000 </r>
       <r>     4.7104     0.0000   608.0000 </r>
       <r>     4.8257     0.0000   608.0000 </r>
       <r>     4.9409     0.0000   608.0000 </r>
       <r>     5.0561     0.0000   608.0000 </r>
       <r>     5.1714     0.0000   608.0000 </r>
       <r>     5.2866     0.0000   608.0000 </r>
       <r>     5.4018     0.0000   608.0000 </r>
       <r>     5.5171     0.0000   608.0000 </r>
       <r>     5.6323     0.0000   608.0000 </r>
       <r>     5.7475     0.0000   608.0000 </r>
      </set>
     </set>
    </array>
   </total>
  </dos>
 </calculation>
 <structure name="finalpos" >
  <crystal>
   <varray name="basis" >
    <v>      46.26335657       0.00000000       0.00000000 </v>
    <v>       0.00000000       6.67872769       0.00000000 </v>
    <v>       0.00000000       0.00000000      11.43536653 </v>
   </varray>
   <i name="volume">   3533.30366965 </i>
   <varray name="rec_basis" >
    <v>       0.02161538       0.00000000       0.00000000 </v>
    <v>       0.00000000       0.14972912       0.00000000 </v>
    <v>       0.00000000       0.00000000       0.08744801 </v>
   </varray>
  </crystal>
  <varray name="positions" >
   <v>       0.00706729       0.25000000       0.70070211 </v>
   <v>       0.19696364       0.25000000       0.69019663 </v>
   <v>       0.39042233       0.25000000       0.69068817 </v>
   <v>       0.58610606       0.25000000       0.69276937 </v>
   <v>       0.19046912       0.75000002       0.30856316 </v>
   <v>       0.38419027       0.75000002       0.30901578 </v>
   <v>       0.57736726       0.75000002       0.30873070 </v>
   <v>       0.09154300       0.75000002       0.19276931 </v>
   <v>       0.28722673       0.75000002       0.19068811 </v>
   <v>       0.48068546       0.75000002       0.19019657 </v>
   <v>       0.67058181       0.75000002       0.20070205 </v>
   <v>       0.10028184       0.25000000       0.80873074 </v>
   <v>       0.29345883       0.25000000       0.80901582 </v>
   <v>       0.48717994       0.25000000       0.80856321 </v>
   <v>       0.04155959       0.75000002       0.91255153 </v>
   <v>       0.22493046       0.75000002       0.90596008 </v>
   <v>       0.41812049       0.75000002       0.90514907 </v>
   <v>       0.61057967       0.75000002       0.89592570 </v>
   <v>       0.16180145       0.25000000       0.09301897 </v>
   <v>       0.35612457       0.25000000       0.09369792 </v>
   <v>       0.54940867       0.25000000       0.09506936 </v>
   <v>       0.06706941       0.25000000       0.39592579 </v>
   <v>       0.25952859       0.25000000       0.40514915 </v>
   <v>       0.45271862       0.25000000       0.40596016 </v>
   <v>       0.63608949       0.25000000       0.41255161 </v>
   <v>       0.12824041       0.75000002       0.59506934 </v>
   <v>       0.32152450       0.75000002       0.59369790 </v>
   <v>       0.51584763       0.75000002       0.59301895 </v>
   <v>       0.03498877       0.07091402       0.14636563 </v>
   <v>       0.23047172       0.06984549       0.14617739 </v>
   <v>       0.42423587       0.06977721       0.14568610 </v>
   <v>       0.61751237       0.07092649       0.14227923 </v>
   <v>       0.15733136       0.93052442       0.85366750 </v>
   <v>       0.35002888       0.93025447       0.85319515 </v>
   <v>       0.54382186       0.93080662       0.85290049 </v>
   <v>       0.06013669       0.92907350       0.64227925 </v>
   <v>       0.25341319       0.93022278       0.64568612 </v>
   <v>       0.44717734       0.93015450       0.64617741 </v>
   <v>       0.64266027       0.92908597       0.64636565 </v>
   <v>       0.13382718       0.06919337       0.35290049 </v>
   <v>       0.32762022       0.06974553       0.35319515 </v>
   <v>       0.52031775       0.06947557       0.35366750 </v>
   <v>       0.15733136       0.56947558       0.85366750 </v>
   <v>       0.35002888       0.56974553       0.85319515 </v>
   <v>       0.54382186       0.56919338       0.85290049 </v>
   <v>       0.03498877       0.42908597       0.14636563 </v>
   <v>       0.23047172       0.43015450       0.14617739 </v>
   <v>       0.42423587       0.43022278       0.14568610 </v>
   <v>       0.61751237       0.42907350       0.14227923 </v>
   <v>       0.13382718       0.43080662       0.35290049 </v>
   <v>       0.32762022       0.43025447       0.35319515 </v>
   <v>       0.52031775       0.43052442       0.35366750 </v>
   <v>       0.06013669       0.57092650       0.64227925 </v>
   <v>       0.25341319       0.56977722       0.64568612 </v>
   <v>       0.44717734       0.56984550       0.64617741 </v>
   <v>       0.64266027       0.57091403       0.64636565 </v>
   <v>       0.01449375       0.75000002       0.61677884 </v>
   <v>       0.20998555       0.75000002       0.59143784 </v>
   <v>       0.40368142       0.75000002       0.59205989 </v>
   <v>       0.59846192       0.75000002       0.58292852 </v>
   <v>       0.17711606       0.25000000       0.40778978 </v>
   <v>       0.37099230       0.25000000       0.40813051 </v>
   <v>       0.56338009       0.25000000       0.40883302 </v>
   <v>       0.07918718       0.25000000       0.08292845 </v>
   <v>       0.27396768       0.25000000       0.09205983 </v>
   <v>       0.46766351       0.25000000       0.09143778 </v>
   <v>       0.66315530       0.25000000       0.11677878 </v>
   <v>       0.11426897       0.75000002       0.90883307 </v>
   <v>       0.30665676       0.75000002       0.90813055 </v>
   <v>       0.50053304       0.75000002       0.90778982 </v>
   <v>       0.03525162       0.25000000       0.96318655 </v>
   <v>       0.23140197       0.25000000       0.96393483 </v>
   <v>       0.42509607       0.25000000       0.96337453 </v>
   <v>       0.62705470       0.25000000       0.96144673 </v>
   <v>       0.15591201       0.75000002       0.03680898 </v>
   <v>       0.34932313       0.75000002       0.03560300 </v>
   <v>       0.54303539       0.75000002       0.03549432 </v>
   <v>       0.05059439       0.75000002       0.46144665 </v>
   <v>       0.25255301       0.75000002       0.46337444 </v>
   <v>       0.44624711       0.75000002       0.46393475 </v>
   <v>       0.64239744       0.75000002       0.46318646 </v>
   <v>       0.13461368       0.25000000       0.53549431 </v>
   <v>       0.32832595       0.25000000       0.53560298 </v>
   <v>       0.52173708       0.25000000       0.53680897 </v>
  </varray>
 </structure>
</modeling>
