<?xml version="1.0" encoding="ISO-8859-1"?>
<modeling>
 <generator>
  <i name="program" type="string">vasp </i>
  <i name="version" type="string">5.4.4.18Apr17-6-g9f103f2a35  </i>
  <i name="subversion" type="string">(build Nov 21 2017 15:30:27) complex            parallel </i>
  <i name="platform" type="string">LinuxIFC </i>
  <i name="date" type="string">2021 03 03 </i>
  <i name="time" type="string">13:43:18 </i>
 </generator>
 <incar>
  <i type="string" name="PREC">normal</i>
  <i type="int" name="ICHARG">    11</i>
  <i type="int" name="NELM">   100</i>
  <i name="EDIFF">      0.00000100</i>
  <i name="EDIFFG">     -0.01000000</i>
  <i name="ENCUT">    500.00000000</i>
  <i name="POTIM">      0.30000000</i>
  <i type="string" name="LREAL"> Auto       ! Projection in reciprocal s</i>
  <i type="int" name="ISMEAR">     0</i>
  <i name="SIGMA">      0.01000000</i>
  <i type="logical" name="LWAVE"> T  </i>
  <i type="logical" name="LCHARG"> T  </i>
  <i type="logical" name="LASPH"> T  </i>
  <v type="int" name="KPOINT_BSE">    -1     0     0     0</v>
  <i type="int" name="NELM">   100</i>
  <i type="string" name="GGA"> MK</i>
  <i name="PARAM1">      0.12340000</i>
  <i name="PARAM2">      0.71135700</i>
  <i type="logical" name="LUSE_VDW"> T  </i>
  <i name="Zab_VDW">     -1.88670000</i>
  <i name="AGGAC">      0.00000000</i>
  <i type="logical" name="LASPH"> T  </i>
 </incar>
 <structure name="primitive_cell" >
  <crystal>
   <varray name="basis" >
    <v>      28.44138915       0.00000000       0.00000000 </v>
    <v>       0.00000000       6.61705665       0.00000000 </v>
    <v>       0.00000000       0.00000000      11.34438396 </v>
   </varray>
   <i name="volume">   2134.99358715 </i>
   <varray name="rec_basis" >
    <v>       0.03516003       0.00000000       0.00000000 </v>
    <v>       0.00000000       0.15112459       0.00000000 </v>
    <v>       0.00000000       0.00000000       0.08814934 </v>
   </varray>
  </crystal>
  <varray name="positions" >
   <v>       0.01060286       0.25000000      -0.30172863 </v>
   <v>       0.05573958       0.25000000      -0.03725603 </v>
   <v>       0.09829373      -0.43042433      -0.35951379 </v>
   <v>       0.09829373      -0.06957567      -0.35951379 </v>
   <v>       0.02395209      -0.24999998      -0.38268342 </v>
   <v>       0.06793721      -0.24999998      -0.08853822 </v>
   <v>       0.10913646       0.25000000       0.39543199 </v>
   <v>       0.16304924       0.25000000      -0.19103348 </v>
   <v>       0.08158949      -0.24999998       0.45887610 </v>
   <v>       0.05559849       0.43069707       0.14722281 </v>
   <v>       0.05559849       0.06930292       0.14722281 </v>
   <v>       0.12737317       0.25000000       0.08260823 </v>
   <v>       0.21911849       0.25000000      -0.46260765 </v>
   <v>       0.18705445      -0.24999998      -0.09072656 </v>
   <v>       0.21039420      -0.24999998      -0.40503372 </v>
   <v>       0.21716475       0.43291134       0.35291513 </v>
   <v>       0.21716475       0.06708865       0.35291513 </v>
   <v>       0.25678160      -0.43291134      -0.14708487 </v>
   <v>       0.25678160      -0.06708866      -0.14708487 </v>
   <v>       0.14850228      -0.24999998       0.19183199 </v>
   <v>       0.26355215       0.25000000       0.09496630 </v>
   <v>       0.28689191       0.25000000       0.40927340 </v>
   <v>       0.25482786      -0.24999998       0.03739236 </v>
   <v>       0.32544407       0.25000000      -0.30816794 </v>
   <v>       0.31089711      -0.24999998       0.30896648 </v>
   <v>       0.34657319      -0.24999998      -0.41739171 </v>
   <v>       0.36480990      -0.24999998      -0.10456809 </v>
   <v>       0.39235688       0.25000000      -0.04112382 </v>
   <v>       0.37565264       0.43042433       0.14048619 </v>
   <v>       0.37565264       0.06957566       0.14048619 </v>
   <v>       0.40600914       0.25000000       0.41146186 </v>
   <v>       0.41834785      -0.43069707      -0.35277717 </v>
   <v>       0.41834785      -0.06930293      -0.35277717 </v>
   <v>       0.41820675      -0.24999998       0.46274389 </v>
   <v>       0.44999425       0.25000000       0.11731652 </v>
   <v>       0.46334350      -0.24999998       0.19827131 </v>
  </varray>
 </structure>
 <varray name="primitive_index" >
  <v type="int" >        1 </v>
  <v type="int" >       31 </v>
  <v type="int" >       18 </v>
  <v type="int" >       14 </v>
  <v type="int" >       25 </v>
  <v type="int" >        7 </v>
  <v type="int" >        8 </v>
  <v type="int" >        3 </v>
  <v type="int" >       32 </v>
  <v type="int" >       16 </v>
  <v type="int" >       13 </v>
  <v type="int" >       26 </v>
  <v type="int" >       33 </v>
  <v type="int" >       27 </v>
  <v type="int" >        9 </v>
  <v type="int" >       17 </v>
  <v type="int" >       15 </v>
  <v type="int" >       22 </v>
  <v type="int" >       20 </v>
  <v type="int" >        2 </v>
  <v type="int" >       11 </v>
  <v type="int" >       29 </v>
  <v type="int" >       35 </v>
  <v type="int" >        4 </v>
  <v type="int" >        5 </v>
  <v type="int" >       28 </v>
  <v type="int" >       10 </v>
  <v type="int" >       34 </v>
  <v type="int" >       23 </v>
  <v type="int" >       19 </v>
  <v type="int" >       12 </v>
  <v type="int" >       24 </v>
  <v type="int" >       21 </v>
  <v type="int" >       36 </v>
  <v type="int" >       30 </v>
  <v type="int" >        6 </v>
 </varray>
 <kpoints>
  <generation param="listgenerated">
   <i name="divisions" type="int">      20 </i>
   <v>       0.00000000       0.00000000       0.00000000 </v>
   <v>       0.00000000       0.50000000       0.00000000 </v>
   <v>       0.00000000       0.50000000       0.50000000 </v>
   <v>       0.00000000       0.00000000       0.50000000 </v>
   <v>       0.00000000       0.00000000       0.00000000 </v>
  </generation>
  <varray name="kpointlist" >
   <v>       0.00000000       0.00000000       0.00000000 </v>
   <v>       0.00000000       0.02631579       0.00000000 </v>
   <v>       0.00000000       0.05263158       0.00000000 </v>
   <v>       0.00000000       0.07894737       0.00000000 </v>
   <v>       0.00000000       0.10526316       0.00000000 </v>
   <v>       0.00000000       0.13157895       0.00000000 </v>
   <v>       0.00000000       0.15789474       0.00000000 </v>
   <v>       0.00000000       0.18421053       0.00000000 </v>
   <v>       0.00000000       0.21052632       0.00000000 </v>
   <v>       0.00000000       0.23684211       0.00000000 </v>
   <v>       0.00000000       0.26315789       0.00000000 </v>
   <v>       0.00000000       0.28947368       0.00000000 </v>
   <v>       0.00000000       0.31578947       0.00000000 </v>
   <v>       0.00000000       0.34210526       0.00000000 </v>
   <v>       0.00000000       0.36842105       0.00000000 </v>
   <v>       0.00000000       0.39473684       0.00000000 </v>
   <v>       0.00000000       0.42105263       0.00000000 </v>
   <v>       0.00000000       0.44736842       0.00000000 </v>
   <v>       0.00000000       0.47368421       0.00000000 </v>
   <v>       0.00000000       0.50000000       0.00000000 </v>
   <v>       0.00000000       0.50000000       0.00000000 </v>
   <v>       0.00000000       0.50000000       0.02631579 </v>
   <v>       0.00000000       0.50000000       0.05263158 </v>
   <v>       0.00000000       0.50000000       0.07894737 </v>
   <v>       0.00000000       0.50000000       0.10526316 </v>
   <v>       0.00000000       0.50000000       0.13157895 </v>
   <v>       0.00000000       0.50000000       0.15789474 </v>
   <v>       0.00000000       0.50000000       0.18421053 </v>
   <v>       0.00000000       0.50000000       0.21052632 </v>
   <v>       0.00000000       0.50000000       0.23684211 </v>
   <v>       0.00000000       0.50000000       0.26315789 </v>
   <v>       0.00000000       0.50000000       0.28947368 </v>
   <v>       0.00000000       0.50000000       0.31578947 </v>
   <v>       0.00000000       0.50000000       0.34210526 </v>
   <v>       0.00000000       0.50000000       0.36842105 </v>
   <v>       0.00000000       0.50000000       0.39473684 </v>
   <v>       0.00000000       0.50000000       0.42105263 </v>
   <v>       0.00000000       0.50000000       0.44736842 </v>
   <v>       0.00000000       0.50000000       0.47368421 </v>
   <v>       0.00000000       0.50000000       0.50000000 </v>
   <v>       0.00000000       0.50000000       0.50000000 </v>
   <v>       0.00000000       0.47368421       0.50000000 </v>
   <v>       0.00000000       0.44736842       0.50000000 </v>
   <v>       0.00000000       0.42105263       0.50000000 </v>
   <v>       0.00000000       0.39473684       0.50000000 </v>
   <v>       0.00000000       0.36842105       0.50000000 </v>
   <v>       0.00000000       0.34210526       0.50000000 </v>
   <v>       0.00000000       0.31578947       0.50000000 </v>
   <v>       0.00000000       0.28947368       0.50000000 </v>
   <v>       0.00000000       0.26315789       0.50000000 </v>
   <v>       0.00000000       0.23684211       0.50000000 </v>
   <v>       0.00000000       0.21052632       0.50000000 </v>
   <v>       0.00000000       0.18421053       0.50000000 </v>
   <v>       0.00000000       0.15789474       0.50000000 </v>
   <v>       0.00000000       0.13157895       0.50000000 </v>
   <v>       0.00000000       0.10526316       0.50000000 </v>
   <v>       0.00000000       0.07894737       0.50000000 </v>
   <v>       0.00000000       0.05263158       0.50000000 </v>
   <v>       0.00000000       0.02631579       0.50000000 </v>
   <v>       0.00000000       0.00000000       0.50000000 </v>
   <v>       0.00000000       0.00000000       0.50000000 </v>
   <v>       0.00000000       0.00000000       0.47368421 </v>
   <v>       0.00000000       0.00000000       0.44736842 </v>
   <v>       0.00000000       0.00000000       0.42105263 </v>
   <v>       0.00000000       0.00000000       0.39473684 </v>
   <v>       0.00000000       0.00000000       0.36842105 </v>
   <v>       0.00000000       0.00000000       0.34210526 </v>
   <v>       0.00000000       0.00000000       0.31578947 </v>
   <v>       0.00000000       0.00000000       0.28947368 </v>
   <v>       0.00000000       0.00000000       0.26315789 </v>
   <v>       0.00000000       0.00000000       0.23684211 </v>
   <v>       0.00000000       0.00000000       0.21052632 </v>
   <v>       0.00000000       0.00000000       0.18421053 </v>
   <v>       0.00000000       0.00000000       0.15789474 </v>
   <v>       0.00000000       0.00000000       0.13157895 </v>
   <v>       0.00000000       0.00000000       0.10526316 </v>
   <v>       0.00000000       0.00000000       0.07894737 </v>
   <v>       0.00000000       0.00000000       0.05263158 </v>
   <v>       0.00000000       0.00000000       0.02631579 </v>
   <v>       0.00000000       0.00000000       0.00000000 </v>
  </varray>
  <varray name="weights" >
   <v>       0.01250000 </v>
   <v>       0.01250000 </v>
   <v>       0.01250000 </v>
   <v>       0.01250000 </v>
   <v>       0.01250000 </v>
   <v>       0.01250000 </v>
   <v>       0.01250000 </v>
   <v>       0.01250000 </v>
   <v>       0.01250000 </v>
   <v>       0.01250000 </v>
   <v>       0.01250000 </v>
   <v>       0.01250000 </v>
   <v>       0.01250000 </v>
   <v>       0.01250000 </v>
   <v>       0.01250000 </v>
   <v>       0.01250000 </v>
   <v>       0.01250000 </v>
   <v>       0.01250000 </v>
   <v>       0.01250000 </v>
   <v>       0.01250000 </v>
   <v>       0.01250000 </v>
   <v>       0.01250000 </v>
   <v>       0.01250000 </v>
   <v>       0.01250000 </v>
   <v>       0.01250000 </v>
   <v>       0.01250000 </v>
   <v>       0.01250000 </v>
   <v>       0.01250000 </v>
   <v>       0.01250000 </v>
   <v>       0.01250000 </v>
   <v>       0.01250000 </v>
   <v>       0.01250000 </v>
   <v>       0.01250000 </v>
   <v>       0.01250000 </v>
   <v>       0.01250000 </v>
   <v>       0.01250000 </v>
   <v>       0.01250000 </v>
   <v>       0.01250000 </v>
   <v>       0.01250000 </v>
   <v>       0.01250000 </v>
   <v>       0.01250000 </v>
   <v>       0.01250000 </v>
   <v>       0.01250000 </v>
   <v>       0.01250000 </v>
   <v>       0.01250000 </v>
   <v>       0.01250000 </v>
   <v>       0.01250000 </v>
   <v>       0.01250000 </v>
   <v>       0.01250000 </v>
   <v>       0.01250000 </v>
   <v>       0.01250000 </v>
   <v>       0.01250000 </v>
   <v>       0.01250000 </v>
   <v>       0.01250000 </v>
   <v>       0.01250000 </v>
   <v>       0.01250000 </v>
   <v>       0.01250000 </v>
   <v>       0.01250000 </v>
   <v>       0.01250000 </v>
   <v>       0.01250000 </v>
   <v>       0.01250000 </v>
   <v>       0.01250000 </v>
   <v>       0.01250000 </v>
   <v>       0.01250000 </v>
   <v>       0.01250000 </v>
   <v>       0.01250000 </v>
   <v>       0.01250000 </v>
   <v>       0.01250000 </v>
   <v>       0.01250000 </v>
   <v>       0.01250000 </v>
   <v>       0.01250000 </v>
   <v>       0.01250000 </v>
   <v>       0.01250000 </v>
   <v>       0.01250000 </v>
   <v>       0.01250000 </v>
   <v>       0.01250000 </v>
   <v>       0.01250000 </v>
   <v>       0.01250000 </v>
   <v>       0.01250000 </v>
   <v>       0.01250000 </v>
  </varray>
 </kpoints>
 <parameters>
  <separator name="general" >
   <i type="string" name="SYSTEM">unknown system</i>
   <i type="logical" name="LCOMPAT"> F  </i>
  </separator>
  <separator name="electronic" >
   <i type="string" name="PREC">normal</i>
   <i name="ENMAX">    500.00000000</i>
   <i name="ENAUG">    351.16500000</i>
   <i name="EDIFF">      0.00000100</i>
   <i type="int" name="IALGO">    38</i>
   <i type="int" name="IWAVPR">    10</i>
   <i type="int" name="NBANDS">   136</i>
   <i name="NELECT">    216.00000000</i>
   <i type="int" name="TURBO">     0</i>
   <i type="int" name="IRESTART">     0</i>
   <i type="int" name="NREBOOT">     0</i>
   <i type="int" name="NMIN">     0</i>
   <i name="EREF">      0.00000000</i>
   <separator name="electronic smearing" >
    <i type="int" name="ISMEAR">     0</i>
    <i name="SIGMA">      0.01000000</i>
    <i name="KSPACING">      0.50000000</i>
    <i type="logical" name="KGAMMA"> T  </i>
   </separator>
   <separator name="electronic projectors" >
    <i type="logical" name="LREAL"> T  </i>
    <v name="ROPT">     -0.00050000     -0.00050000</v>
    <i type="int" name="LMAXPAW">  -100</i>
    <i type="int" name="LMAXMIX">     2</i>
    <i type="logical" name="NLSPLINE"> F  </i>
   </separator>
   <separator name="electronic startup" >
    <i type="int" name="ISTART">     0</i>
    <i type="int" name="ICHARG">    11</i>
    <i type="int" name="INIWAV">     1</i>
   </separator>
   <separator name="electronic spin" >
    <i type="int" name="ISPIN">     1</i>
    <i type="logical" name="LNONCOLLINEAR"> F  </i>
    <v name="MAGMOM">      1.00000000      1.00000000      1.00000000      1.00000000      1.00000000      1.00000000      1.00000000      1.00000000      1.00000000      1.00000000      1.00000000      1.00000000      1.00000000      1.00000000      1.00000000      1.00000000      1.00000000      1.00000000      1.00000000      1.00000000
      1.00000000      1.00000000      1.00000000      1.00000000      1.00000000      1.00000000      1.00000000      1.00000000      1.00000000      1.00000000      1.00000000      1.00000000      1.00000000      1.00000000      1.00000000      1.00000000</v>
    <i name="NUPDOWN">     -1.00000000</i>
    <i type="logical" name="LSORBIT"> F  </i>
    <v name="SAXIS">      0.00000000      0.00000000      1.00000000</v>
    <i type="logical" name="LSPIRAL"> F  </i>
    <v name="QSPIRAL">      0.00000000      0.00000000      0.00000000</v>
    <i type="logical" name="LZEROZ"> F  </i>
   </separator>
   <separator name="electronic exchange-correlation" >
    <i type="logical" name="LASPH"> T  </i>
    <i type="logical" name="LMETAGGA"> F  </i>
   </separator>
   <separator name="electronic convergence" >
    <i type="int" name="NELM">   100</i>
    <i type="int" name="NELMDL">    -5</i>
    <i type="int" name="NELMIN">     2</i>
    <i name="ENINI">    500.00000000</i>
    <separator name="electronic convergence detail" >
     <i type="logical" name="LDIAG"> T  </i>
     <i type="logical" name="LSUBROT"> F  </i>
     <i name="WEIMIN">      0.00000000</i>
     <i name="EBREAK">      0.00000000</i>
     <i name="DEPER">      0.30000000</i>
     <i type="int" name="NRMM">     4</i>
     <i name="TIME">      0.40000000</i>
    </separator>
   </separator>
   <separator name="electronic mixer" >
    <i name="AMIX">      0.40000000</i>
    <i name="BMIX">      1.00000000</i>
    <i name="AMIN">      0.10000000</i>
    <i name="AMIX_MAG">      1.60000000</i>
    <i name="BMIX_MAG">      1.00000000</i>
    <separator name="electronic mixer details" >
     <i type="int" name="IMIX">     4</i>
     <i type="logical" name="MIXFIRST"> F  </i>
     <i type="int" name="MAXMIX">   -45</i>
     <i name="WC">    100.00000000</i>
     <i type="int" name="INIMIX">     1</i>
     <i type="int" name="MIXPRE">     1</i>
     <i type="int" name="MREMOVE">     5</i>
    </separator>
   </separator>
   <separator name="electronic dipolcorrection" >
    <i type="logical" name="LDIPOL"> F  </i>
    <i type="logical" name="LMONO"> F  </i>
    <i type="int" name="IDIPOL">     0</i>
    <i name="EPSILON">      1.00000000</i>
    <v name="DIPOL">   -100.00000000   -100.00000000   -100.00000000</v>
    <i name="EFIELD">      0.00000000</i>
   </separator>
  </separator>
  <separator name="grids" >
   <i type="int" name="NGX">   160</i>
   <i type="int" name="NGY">    36</i>
   <i type="int" name="NGZ">    64</i>
   <i type="int" name="NGXF">   320</i>
   <i type="int" name="NGYF">    72</i>
   <i type="int" name="NGZF">   128</i>
   <i type="logical" name="ADDGRID"> F  </i>
  </separator>
  <separator name="ionic" >
   <i type="int" name="NSW">     0</i>
   <i type="int" name="IBRION">    -1</i>
   <i type="int" name="MDALGO">     0</i>
   <i type="int" name="ISIF">     2</i>
   <i name="PSTRESS">      0.00000000</i>
   <i name="EDIFFG">     -0.01000000</i>
   <i type="int" name="NFREE">     0</i>
   <i name="POTIM">      0.30000000</i>
   <i name="SMASS">     -3.00000000</i>
   <i name="SCALEE">      1.00000000</i>
  </separator>
  <separator name="ionic md" >
   <i name="TEBEG">      0.00010000</i>
   <i name="TEEND">      0.00010000</i>
   <i type="int" name="NBLOCK">     1</i>
   <i type="int" name="KBLOCK">     1</i>
   <i type="int" name="NPACO">   256</i>
   <i name="APACO">     16.00000000</i>
  </separator>
  <separator name="symmetry" >
   <i type="int" name="ISYM">     2</i>
   <i name="SYMPREC">      0.00001000</i>
  </separator>
  <separator name="dos" >
   <i type="int" name="LORBIT">     0</i>
   <v name="RWIGS">     -1.00000000     -1.00000000</v>
   <i type="int" name="NEDOS">   301</i>
   <i name="EMIN">     10.00000000</i>
   <i name="EMAX">    -10.00000000</i>
   <i name="EFERMI">      0.00000000</i>
  </separator>
  <separator name="writing" >
   <i type="int" name="NWRITE">     2</i>
   <i type="logical" name="LWAVE"> T  </i>
   <i type="logical" name="LDOWNSAMPLE"> F  </i>
   <i type="logical" name="LCHARG"> T  </i>
   <i type="logical" name="LPARD"> F  </i>
   <i type="logical" name="LVTOT"> F  </i>
   <i type="logical" name="LVHAR"> F  </i>
   <i type="logical" name="LELF"> F  </i>
   <i type="logical" name="LOPTICS"> F  </i>
   <v name="STM">      0.00000000      0.00000000      0.00000000      0.00000000      0.00000000      0.00000000      0.00000000</v>
  </separator>
  <separator name="performance" >
   <i type="int" name="NPAR">     8</i>
   <i type="int" name="NSIM">     4</i>
   <i type="int" name="NBLK">    -1</i>
   <i type="logical" name="LPLANE"> T  </i>
   <i type="logical" name="LSCALAPACK"> T  </i>
   <i type="logical" name="LSCAAWARE"> F  </i>
   <i type="logical" name="LSCALU"> F  </i>
   <i type="logical" name="LASYNC"> F  </i>
   <i type="logical" name="LORBITALREAL"> F  </i>
  </separator>
  <separator name="miscellaneous" >
   <i type="int" name="IDIOT">     3</i>
   <i type="int" name="ISPECIAL">     0</i>
   <i type="logical" name="LMUSIC"> F  </i>
   <v name="POMASS">    137.32700000     28.08500000</v>
   <v name="DARWINR">      0.00000000      0.00000000</v>
   <v name="DARWINV">      1.00000000      1.00000000</v>
   <i type="logical" name="LCORR"> T  </i>
  </separator>
  <i type="logical" name="GGA_COMPAT"> T  </i>
  <i type="logical" name="LBERRY"> F  </i>
  <i type="int" name="ICORELEVEL">     0</i>
  <i type="logical" name="LDAU"> F  </i>
  <i type="int" name="I_CONSTRAINED_M">     0</i>
  <separator name="electronic exchange-correlation" >
   <i type="string" name="GGA">MK</i>
   <i type="int" name="VOSKOWN">     0</i>
   <i type="logical" name="LHFCALC"> F  </i>
   <i type="string" name="PRECFOCK"></i>
   <i type="logical" name="LSYMGRAD"> F  </i>
   <i type="logical" name="LHFONE"> F  </i>
   <i type="logical" name="LRHFCALC"> F  </i>
   <i type="logical" name="LTHOMAS"> F  </i>
   <i type="logical" name="LMODELHF"> F  </i>
   <i name="ENCUT4O">     -1.00000000</i>
   <i type="int" name="EXXOEP">     0</i>
   <i type="int" name="FOURORBIT">     0</i>
   <i name="AEXX">      0.00000000</i>
   <i name="HFALPHA">      0.00000000</i>
   <i name="MCALPHA">      0.00000000</i>
   <i name="ALDAX">      1.00000000</i>
   <i name="AGGAX">      1.00000000</i>
   <i name="ALDAC">      1.00000000</i>
   <i name="AGGAC">      0.00000000</i>
   <i type="int" name="NKREDX">     1</i>
   <i type="int" name="NKREDY">     1</i>
   <i type="int" name="NKREDZ">     1</i>
   <i type="logical" name="SHIFTRED"> F  </i>
   <i type="logical" name="ODDONLY"> F  </i>
   <i type="logical" name="EVENONLY"> F  </i>
   <i type="int" name="LMAXFOCK">     0</i>
   <i type="int" name="NMAXFOCKAE">     0</i>
   <i type="logical" name="LFOCKAEDFT"> F  </i>
   <i name="HFSCREEN">      0.00000000</i>
   <i name="HFSCREENC">      0.00000000</i>
   <i type="int" name="NBANDSGWLOW">     0</i>
  </separator>
  <separator name="vdW DFT" >
   <i type="logical" name="LUSE_VDW"> T  </i>
   <i name="Zab_VDW">     -1.88670000</i>
   <i name="PARAM1">      0.12340000</i>
   <i name="PARAM2">      0.71135700</i>
   <i name="PARAM3">      0.00000000</i>
  </separator>
  <separator name="model GW" >
   <i type="int" name="MODEL_GW">     0</i>
   <i name="MODEL_EPS0">     35.58322645</i>
   <i name="MODEL_ALPHA">      1.00000000</i>
  </separator>
  <separator name="linear response parameters" >
   <i type="logical" name="LEPSILON"> F  </i>
   <i type="logical" name="LRPA"> F  </i>
   <i type="logical" name="LNABLA"> F  </i>
   <i type="logical" name="LVEL"> F  </i>
   <i type="int" name="KINTER">     0</i>
   <i name="CSHIFT">      0.10000000</i>
   <i name="OMEGAMAX">     -1.00000000</i>
   <i name="DEG_THRESHOLD">      0.00200000</i>
   <i name="RTIME">     -0.10000000</i>
   <i name="WPLASMAI">      0.00000000</i>
   <v name="DFIELD">      0.00000000      0.00000000      0.00000000</v>
   <v name="WPLASMA">      0.00000000      0.00000000      0.00000000      0.00000000      0.00000000      0.00000000      0.00000000      0.00000000      0.00000000</v>
  </separator>
  <separator name="orbital magnetization" >
   <i type="logical" name="NUCIND"> F  </i>
   <v name="MAGPOS">      0.00000000      0.00000000      0.00000000</v>
   <i type="logical" name="LNICSALL"> T  </i>
   <i type="logical" name="ORBITALMAG"> F  </i>
   <i type="logical" name="LMAGBLOCH"> F  </i>
   <i type="logical" name="LCHIMAG"> F  </i>
   <i type="logical" name="LGAUGE"> T  </i>
   <i type="int" name="MAGATOM">     0</i>
   <v name="MAGDIPOL">      0.00000000      0.00000000      0.00000000</v>
   <v name="AVECCONST">      0.00000000      0.00000000      0.00000000</v>
  </separator>
  <separator name="response functions" >
   <i type="logical" name="LADDER"> F  </i>
   <i type="logical" name="LRPAFORCE"> F  </i>
   <i type="logical" name="LFXC"> F  </i>
   <i type="logical" name="LHARTREE"> T  </i>
   <i type="int" name="IBSE">     0</i>
   <v type="int" name="KPOINT">    -1     0     0     0</v>
   <i type="logical" name="LTCTE"> F  </i>
   <i type="logical" name="LTETE"> F  </i>
   <i type="logical" name="LTRIPLET"> F  </i>
   <i type="logical" name="LFXCEPS"> F  </i>
   <i type="logical" name="LFXHEG"> F  </i>
   <i type="int" name="NATURALO">     2</i>
   <i type="logical" name="L2ORDER"> F  </i>
   <i type="logical" name="LMP2LT"> F  </i>
   <i type="logical" name="LUSEW"> F  </i>
   <i name="ENCUTGW">     -2.00000000</i>
   <i name="ENCUTGWSOFT">     -2.00000000</i>
   <i name="ENCUTLF">     -1.00000000</i>
   <i type="int" name="LMAXMP2">    -1</i>
   <i name="SCISSOR">      0.00000000</i>
   <i type="int" name="NOMEGA">     0</i>
   <i type="int" name="NOMEGAR">     0</i>
   <i type="int" name="NBANDSGW">    -1</i>
   <i type="int" name="NBANDSO">    -1</i>
   <i type="int" name="NBANDSV">    -1</i>
   <i type="int" name="NELM">   100</i>
   <i type="int" name="NELMHF">     1</i>
   <i type="int" name="DIM">     3</i>
   <i type="int" name="ANTIRES">     0</i>
   <i name="OMEGAMAX">    -30.00000000</i>
   <i name="OMEGAMIN">    -30.00000000</i>
   <i name="OMEGATL">   -200.00000000</i>
   <i type="int" name="OMEGAGRID">   140</i>
   <i name="CSHIFT">     -0.10000000</i>
   <i type="logical" name="SELFENERGY"> F  </i>
   <i type="logical" name="LSPECTRAL"> F  </i>
   <i type="logical" name="LSPECTRALGW"> F  </i>
   <i type="logical" name="LSINGLES"> F  </i>
   <i type="logical" name="LFERMIGW"> F  </i>
   <i type="logical" name="ODDONLYGW"> F  </i>
   <i type="logical" name="EVENONLYGW"> F  </i>
   <i type="int" name="NKREDLFX">     1</i>
   <i type="int" name="NKREDLFY">     1</i>
   <i type="int" name="NKREDLFZ">     1</i>
   <i type="int" name="MAXMEM">  2800</i>
   <i type="int" name="TELESCOPE">     0</i>
   <i type="int" name="TAUPAR">     1</i>
   <i type="int" name="OMEGAPAR">    -1</i>
   <i name="LAMBDA">      1.00000000</i>
  </separator>
  <separator name="External order field" >
   <i name="OFIELD_KAPPA">      0.00000000</i>
   <v name="OFIELD_K">      0.00000000      0.00000000      0.00000000</v>
   <i name="OFIELD_Q6_NEAR">      0.00000000</i>
   <i name="OFIELD_Q6_FAR">      0.00000000</i>
   <i name="OFIELD_A">      0.00000000</i>
  </separator>
 </parameters>
 <atominfo>
  <atoms>      36 </atoms>
  <types>       2 </types>
  <array name="atoms" >
   <dimension dim="1">ion</dimension>
   <field type="string">element</field>
   <field type="int">atomtype</field>
   <set>
    <rc><c>Ba</c><c>   1</c></rc>
    <rc><c>Ba</c><c>   1</c></rc>
    <rc><c>Ba</c><c>   1</c></rc>
    <rc><c>Ba</c><c>   1</c></rc>
    <rc><c>Ba</c><c>   1</c></rc>
    <rc><c>Ba</c><c>   1</c></rc>
    <rc><c>Ba</c><c>   1</c></rc>
    <rc><c>Ba</c><c>   1</c></rc>
    <rc><c>Ba</c><c>   1</c></rc>
    <rc><c>Ba</c><c>   1</c></rc>
    <rc><c>Ba</c><c>   1</c></rc>
    <rc><c>Ba</c><c>   1</c></rc>
    <rc><c>Si</c><c>   2</c></rc>
    <rc><c>Si</c><c>   2</c></rc>
    <rc><c>Si</c><c>   2</c></rc>
    <rc><c>Si</c><c>   2</c></rc>
    <rc><c>Si</c><c>   2</c></rc>
    <rc><c>Si</c><c>   2</c></rc>
    <rc><c>Si</c><c>   2</c></rc>
    <rc><c>Si</c><c>   2</c></rc>
    <rc><c>Si</c><c>   2</c></rc>
    <rc><c>Si</c><c>   2</c></rc>
    <rc><c>Si</c><c>   2</c></rc>
    <rc><c>Si</c><c>   2</c></rc>
    <rc><c>Si</c><c>   2</c></rc>
    <rc><c>Si</c><c>   2</c></rc>
    <rc><c>Si</c><c>   2</c></rc>
    <rc><c>Si</c><c>   2</c></rc>
    <rc><c>Si</c><c>   2</c></rc>
    <rc><c>Si</c><c>   2</c></rc>
    <rc><c>Si</c><c>   2</c></rc>
    <rc><c>Si</c><c>   2</c></rc>
    <rc><c>Si</c><c>   2</c></rc>
    <rc><c>Si</c><c>   2</c></rc>
    <rc><c>Si</c><c>   2</c></rc>
    <rc><c>Si</c><c>   2</c></rc>
   </set>
  </array>
  <array name="atomtypes" >
   <dimension dim="1">type</dimension>
   <field type="int">atomspertype</field>
   <field type="string">element</field>
   <field>mass</field>
   <field>valence</field>
   <field type="string">pseudopotential</field>
   <set>
    <rc><c>  12</c><c>Ba</c><c>    137.32700000</c><c>     10.00000000</c><c> PAW_PBE Ba_sv 06Sep2000                </c></rc>
    <rc><c>  24</c><c>Si</c><c>     28.08500000</c><c>      4.00000000</c><c> PAW_PBE Si 05Jan2001                   </c></rc>
   </set>
  </array>
 </atominfo>
 <structure name="initialpos" >
  <crystal>
   <varray name="basis" >
    <v>      28.44138915       0.00000000       0.00000000 </v>
    <v>       0.00000000       6.61705665       0.00000000 </v>
    <v>       0.00000000       0.00000000      11.34438396 </v>
   </varray>
   <i name="volume">   2134.99358715 </i>
   <varray name="rec_basis" >
    <v>       0.03516003       0.00000000       0.00000000 </v>
    <v>       0.00000000       0.15112459       0.00000000 </v>
    <v>       0.00000000       0.00000000       0.08814934 </v>
   </varray>
  </crystal>
  <varray name="positions" >
   <v>       0.01060286       0.25000000       0.69827137 </v>
   <v>       0.14850228       0.75000002       0.19183199 </v>
   <v>       0.16304924       0.25000000       0.80896652 </v>
   <v>       0.32544407       0.25000000       0.69183206 </v>
   <v>       0.31089711       0.75000002       0.30896648 </v>
   <v>       0.46334350       0.75000002       0.19827131 </v>
   <v>       0.06793721       0.75000002       0.91146178 </v>
   <v>       0.10913646       0.25000000       0.39543199 </v>
   <v>       0.21039420       0.75000002       0.59496628 </v>
   <v>       0.36480990       0.75000002       0.89543191 </v>
   <v>       0.26355215       0.25000000       0.09496630 </v>
   <v>       0.40600914       0.25000000       0.41146186 </v>
   <v>       0.05559849       0.06930292       0.14722281 </v>
   <v>       0.09829373       0.93042433       0.64048621 </v>
   <v>       0.21716475       0.06708865       0.35291513 </v>
   <v>       0.05559849       0.43069707       0.14722281 </v>
   <v>       0.21716475       0.43291134       0.35291513 </v>
   <v>       0.09829373       0.56957567       0.64048621 </v>
   <v>       0.37565264       0.06957566       0.14048619 </v>
   <v>       0.25678160       0.93291134       0.85291513 </v>
   <v>       0.41834785       0.93069707       0.64722283 </v>
   <v>       0.25678160       0.56708866       0.85291513 </v>
   <v>       0.37565264       0.43042433       0.14048619 </v>
   <v>       0.41834785       0.56930293       0.64722283 </v>
   <v>       0.02395209       0.75000002       0.61731658 </v>
   <v>       0.12737317       0.25000000       0.08260823 </v>
   <v>       0.18705445       0.75000002       0.90927344 </v>
   <v>       0.34657319       0.75000002       0.58260829 </v>
   <v>       0.28689191       0.25000000       0.40927340 </v>
   <v>       0.44999425       0.25000000       0.11731652 </v>
   <v>       0.05573958       0.25000000       0.96274397 </v>
   <v>       0.08158949       0.75000002       0.45887610 </v>
   <v>       0.21911849       0.25000000       0.53739235 </v>
   <v>       0.39235688       0.25000000       0.95887618 </v>
   <v>       0.25482786       0.75000002       0.03739236 </v>
   <v>       0.41820675       0.75000002       0.46274389 </v>
  </varray>
 </structure>
 <calculation>
  <scstep>
   <time name="dav">   22.34   22.59</time>
   <time name="total">   25.46   25.79</time>
   <energy>
    <i name="alphaZ">    339.16792064 </i>
    <i name="ewald">  28058.85199683 </i>
    <i name="hartreedc"> -37915.00744555 </i>
    <i name="XCdc">     72.40777159 </i>
    <i name="pawpsdc">   5802.87290205 </i>
    <i name="pawaedc">  -5361.16976505 </i>
    <i name="eentropy">     -0.00066055 </i>
    <i name="bandstr">   -299.55674037 </i>
    <i name="atom">  10903.72718121 </i>
    <i name="e_fr_energy">   1601.29316079 </i>
    <i name="e_wo_entrp">   1601.29382134 </i>
    <i name="e_0_energy">   1601.29349107 </i>
   </energy>
  </scstep>
  <scstep>
   <time name="dav">   28.48   28.75</time>
   <time name="total">   28.48   28.75</time>
   <energy>
    <i name="e_fr_energy">     83.55623595 </i>
    <i name="e_wo_entrp">     83.55623595 </i>
    <i name="e_0_energy">     83.55623595 </i>
   </energy>
  </scstep>
  <scstep>
   <time name="dav">   25.78   26.04</time>
   <time name="total">   25.78   26.04</time>
   <energy>
    <i name="e_fr_energy">   -130.90886429 </i>
    <i name="e_wo_entrp">   -130.90886429 </i>
    <i name="e_0_energy">   -130.90886429 </i>
   </energy>
  </scstep>
  <scstep>
   <time name="dav">   29.63   29.90</time>
   <time name="total">   29.63   29.90</time>
   <energy>
    <i name="e_fr_energy">   -139.56619052 </i>
    <i name="e_wo_entrp">   -139.56619052 </i>
    <i name="e_0_energy">   -139.56619052 </i>
   </energy>
  </scstep>
  <scstep>
   <time name="dav">   30.55   30.83</time>
   <time name="total">   30.55   30.84</time>
   <energy>
    <i name="e_fr_energy">   -139.88162957 </i>
    <i name="e_wo_entrp">   -139.88162957 </i>
    <i name="e_0_energy">   -139.88162957 </i>
   </energy>
  </scstep>
  <scstep>
   <time name="dav">   28.63   28.89</time>
   <time name="total">   28.63   28.90</time>
   <energy>
    <i name="e_fr_energy">   -139.88991071 </i>
    <i name="e_wo_entrp">   -139.88991071 </i>
    <i name="e_0_energy">   -139.88991071 </i>
   </energy>
  </scstep>
  <scstep>
   <time name="dav">   30.97   31.26</time>
   <time name="total">   30.97   31.26</time>
   <energy>
    <i name="e_fr_energy">   -139.89023201 </i>
    <i name="e_wo_entrp">   -139.89023201 </i>
    <i name="e_0_energy">   -139.89023201 </i>
   </energy>
  </scstep>
  <scstep>
   <time name="dav">   27.04   27.30</time>
   <time name="total">   27.05   27.30</time>
   <energy>
    <i name="e_fr_energy">   -139.89024559 </i>
    <i name="e_wo_entrp">   -139.89024559 </i>
    <i name="e_0_energy">   -139.89024559 </i>
   </energy>
  </scstep>
  <scstep>
   <time name="dav">   23.94   24.16</time>
   <time name="total">   23.94   24.16</time>
   <energy>
    <i name="alphaZ">    339.16792064 </i>
    <i name="ewald">  28058.85199683 </i>
    <i name="hartreedc"> -37915.00744555 </i>
    <i name="XCdc">     72.40777159 </i>
    <i name="pawpsdc">   5802.87290205 </i>
    <i name="pawaedc">  -5361.16976505 </i>
    <i name="eentropy">     -0.00000000 </i>
    <i name="bandstr">  -2040.74080796 </i>
    <i name="atom">  10903.72718121 </i>
    <i name="e_fr_energy">   -139.89024624 </i>
    <i name="e_wo_entrp">   -139.89024624 </i>
    <i name="e_0_energy">   -139.89024624 </i>
   </energy>
  </scstep>
  <structure>
   <crystal>
    <varray name="basis" >
     <v>      28.44138915       0.00000000       0.00000000 </v>
     <v>       0.00000000       6.61705665       0.00000000 </v>
     <v>       0.00000000       0.00000000      11.34438396 </v>
    </varray>
    <i name="volume">   2134.99358715 </i>
    <varray name="rec_basis" >
     <v>       0.03516003       0.00000000       0.00000000 </v>
     <v>       0.00000000       0.15112459       0.00000000 </v>
     <v>       0.00000000       0.00000000       0.08814934 </v>
    </varray>
   </crystal>
   <varray name="positions" >
    <v>       0.01060286       0.25000000       0.69827137 </v>
    <v>       0.14850228       0.75000002       0.19183199 </v>
    <v>       0.16304924       0.25000000       0.80896652 </v>
    <v>       0.32544407       0.25000000       0.69183206 </v>
    <v>       0.31089711       0.75000002       0.30896648 </v>
    <v>       0.46334350       0.75000002       0.19827131 </v>
    <v>       0.06793721       0.75000002       0.91146178 </v>
    <v>       0.10913646       0.25000000       0.39543199 </v>
    <v>       0.21039420       0.75000002       0.59496628 </v>
    <v>       0.36480990       0.75000002       0.89543191 </v>
    <v>       0.26355215       0.25000000       0.09496630 </v>
    <v>       0.40600914       0.25000000       0.41146186 </v>
    <v>       0.05559849       0.06930292       0.14722281 </v>
    <v>       0.09829373       0.93042433       0.64048621 </v>
    <v>       0.21716475       0.06708865       0.35291513 </v>
    <v>       0.05559849       0.43069707       0.14722281 </v>
    <v>       0.21716475       0.43291134       0.35291513 </v>
    <v>       0.09829373       0.56957567       0.64048621 </v>
    <v>       0.37565264       0.06957566       0.14048619 </v>
    <v>       0.25678160       0.93291134       0.85291513 </v>
    <v>       0.41834785       0.93069707       0.64722283 </v>
    <v>       0.25678160       0.56708866       0.85291513 </v>
    <v>       0.37565264       0.43042433       0.14048619 </v>
    <v>       0.41834785       0.56930293       0.64722283 </v>
    <v>       0.02395209       0.75000002       0.61731658 </v>
    <v>       0.12737317       0.25000000       0.08260823 </v>
    <v>       0.18705445       0.75000002       0.90927344 </v>
    <v>       0.34657319       0.75000002       0.58260829 </v>
    <v>       0.28689191       0.25000000       0.40927340 </v>
    <v>       0.44999425       0.25000000       0.11731652 </v>
    <v>       0.05573958       0.25000000       0.96274397 </v>
    <v>       0.08158949       0.75000002       0.45887610 </v>
    <v>       0.21911849       0.25000000       0.53739235 </v>
    <v>       0.39235688       0.25000000       0.95887618 </v>
    <v>       0.25482786       0.75000002       0.03739236 </v>
    <v>       0.41820675       0.75000002       0.46274389 </v>
   </varray>
  </structure>
  <varray name="forces" >
   <v>       0.02381956      -0.00000000      -0.04508332 </v>
   <v>      -0.05238098       0.00000000      -0.02617843 </v>
   <v>       0.04105937       0.00000000       0.02011254 </v>
   <v>       0.05238098       0.00000000      -0.02617843 </v>
   <v>      -0.04105937       0.00000000       0.02011254 </v>
   <v>      -0.02381956       0.00000000      -0.04508332 </v>
   <v>       0.00236778      -0.00000000       0.01019206 </v>
   <v>      -0.02405837      -0.00000000       0.03571995 </v>
   <v>       0.00870127       0.00000000      -0.04061356 </v>
   <v>       0.02405837       0.00000000       0.03571995 </v>
   <v>      -0.00870127       0.00000000      -0.04061356 </v>
   <v>      -0.00236778      -0.00000000       0.01019206 </v>
   <v>       0.01195129       0.01218001      -0.00026989 </v>
   <v>      -0.02179971      -0.03382116      -0.00719135 </v>
   <v>       0.02554310       0.03576885       0.01726217 </v>
   <v>       0.01195129      -0.01218001      -0.00026989 </v>
   <v>       0.02554310      -0.03576885       0.01726217 </v>
   <v>      -0.02179971       0.03382116      -0.00719135 </v>
   <v>       0.02179971       0.03382116      -0.00719135 </v>
   <v>      -0.02554310      -0.03576885       0.01726217 </v>
   <v>      -0.01195129      -0.01218001      -0.00026989 </v>
   <v>      -0.02554310       0.03576885       0.01726217 </v>
   <v>       0.02179971      -0.03382116      -0.00719135 </v>
   <v>      -0.01195129       0.01218001      -0.00026989 </v>
   <v>       0.02236240      -0.00000000       0.02417734 </v>
   <v>       0.02472726       0.00000000      -0.01123277 </v>
   <v>      -0.00431742       0.00000000      -0.01145736 </v>
   <v>      -0.02472726      -0.00000000      -0.01123277 </v>
   <v>       0.00431742      -0.00000000      -0.01145736 </v>
   <v>      -0.02236240       0.00000000       0.02417734 </v>
   <v>       0.00822006      -0.00000000       0.00336798 </v>
   <v>       0.00702610      -0.00000000       0.00504304 </v>
   <v>      -0.01763021       0.00000000       0.01635067 </v>
   <v>      -0.00702610      -0.00000000       0.00504304 </v>
   <v>       0.01763021      -0.00000000       0.01635067 </v>
   <v>      -0.00822006       0.00000000       0.00336798 </v>
  </varray>
  <varray name="stress" >
   <v>      -0.20609872       0.00000000       0.00000000 </v>
   <v>       0.00000000      -0.63703289       0.00000000 </v>
   <v>       0.00000000       0.00000000      -0.41831976 </v>
  </varray>
  <energy>
   <i name="e_fr_energy">   -139.89024624 </i>
   <i name="e_wo_entrp">   -139.89024624 </i>
   <i name="e_0_energy">     -0.00000000 </i>
  </energy>
  <time name="totalsc">  309.32  315.56</time>
  <eigenvalues>
   <array>
    <dimension dim="1">band</dimension>
    <dimension dim="2">kpoint</dimension>
    <dimension dim="3">spin</dimension>
    <field>eigene</field>
    <field>occ</field>
    <set>
     <set comment="spin 1">
      <set comment="kpoint 1">
       <r>  -28.6282    1.0000 </r>
       <r>  -28.6278    1.0000 </r>
       <r>  -27.6489    1.0000 </r>
       <r>  -27.6484    1.0000 </r>
       <r>  -27.6330    1.0000 </r>
       <r>  -27.6313    1.0000 </r>
       <r>  -27.5828    1.0000 </r>
       <r>  -27.5826    1.0000 </r>
       <r>  -27.4883    1.0000 </r>
       <r>  -27.4881    1.0000 </r>
       <r>  -27.4554    1.0000 </r>
       <r>  -27.4539    1.0000 </r>
       <r>  -14.0068    1.0000 </r>
       <r>  -14.0064    1.0000 </r>
       <r>  -13.9335    1.0000 </r>
       <r>  -13.9331    1.0000 </r>
       <r>  -13.8430    1.0000 </r>
       <r>  -13.8426    1.0000 </r>
       <r>  -13.2817    1.0000 </r>
       <r>  -13.2436    1.0000 </r>
       <r>  -13.1586    1.0000 </r>
       <r>  -13.1324    1.0000 </r>
       <r>  -13.1249    1.0000 </r>
       <r>  -13.0657    1.0000 </r>
       <r>  -13.0632    1.0000 </r>
       <r>  -13.0479    1.0000 </r>
       <r>  -13.0269    1.0000 </r>
       <r>  -13.0247    1.0000 </r>
       <r>  -13.0228    1.0000 </r>
       <r>  -12.9995    1.0000 </r>
       <r>  -12.9970    1.0000 </r>
       <r>  -12.9733    1.0000 </r>
       <r>  -12.9726    1.0000 </r>
       <r>  -12.9684    1.0000 </r>
       <r>  -12.9679    1.0000 </r>
       <r>  -12.9261    1.0000 </r>
       <r>  -12.8639    1.0000 </r>
       <r>  -12.8336    1.0000 </r>
       <r>  -12.7953    1.0000 </r>
       <r>  -12.7885    1.0000 </r>
       <r>  -12.7728    1.0000 </r>
       <r>  -12.7720    1.0000 </r>
       <r>  -12.7636    1.0000 </r>
       <r>  -12.7490    1.0000 </r>
       <r>  -12.7426    1.0000 </r>
       <r>  -12.7321    1.0000 </r>
       <r>  -12.7142    1.0000 </r>
       <r>  -12.7109    1.0000 </r>
       <r>  -10.8301    1.0000 </r>
       <r>  -10.6269    1.0000 </r>
       <r>  -10.6242    1.0000 </r>
       <r>  -10.5913    1.0000 </r>
       <r>  -10.2169    1.0000 </r>
       <r>  -10.2105    1.0000 </r>
       <r>   -6.2289    1.0000 </r>
       <r>   -6.0672    1.0000 </r>
       <r>   -6.0157    1.0000 </r>
       <r>   -5.8977    1.0000 </r>
       <r>   -5.8921    1.0000 </r>
       <r>   -5.8525    1.0000 </r>
       <r>   -5.8486    1.0000 </r>
       <r>   -5.7983    1.0000 </r>
       <r>   -5.7138    1.0000 </r>
       <r>   -5.7046    1.0000 </r>
       <r>   -5.7039    1.0000 </r>
       <r>   -5.6808    1.0000 </r>
       <r>   -5.5416    1.0000 </r>
       <r>   -5.5023    1.0000 </r>
       <r>   -5.4598    1.0000 </r>
       <r>   -5.3997    1.0000 </r>
       <r>   -5.1693    1.0000 </r>
       <r>   -5.1683    1.0000 </r>
       <r>   -3.3816    1.0000 </r>
       <r>   -2.8804    1.0000 </r>
       <r>   -2.5919    1.0000 </r>
       <r>   -2.5736    1.0000 </r>
       <r>   -2.3266    1.0000 </r>
       <r>   -2.2228    1.0000 </r>
       <r>   -2.0956    1.0000 </r>
       <r>   -1.9529    1.0000 </r>
       <r>   -1.8104    1.0000 </r>
       <r>   -1.7378    1.0000 </r>
       <r>   -1.7050    1.0000 </r>
       <r>   -1.6886    1.0000 </r>
       <r>   -1.6083    1.0000 </r>
       <r>   -1.5060    1.0000 </r>
       <r>   -1.4980    1.0000 </r>
       <r>   -1.4511    1.0000 </r>
       <r>   -1.4490    1.0000 </r>
       <r>   -1.4301    1.0000 </r>
       <r>   -1.2496    1.0000 </r>
       <r>   -1.1822    1.0000 </r>
       <r>   -1.1733    1.0000 </r>
       <r>   -1.1157    1.0000 </r>
       <r>   -1.1009    1.0000 </r>
       <r>   -1.0287    1.0000 </r>
       <r>   -1.0185    1.0000 </r>
       <r>   -0.8487    1.0000 </r>
       <r>   -0.7319    1.0000 </r>
       <r>   -0.7303    1.0000 </r>
       <r>   -0.7202    1.0000 </r>
       <r>   -0.6918    1.0000 </r>
       <r>   -0.6398    1.0000 </r>
       <r>   -0.6342    1.0000 </r>
       <r>   -0.4419    1.0000 </r>
       <r>   -0.4183    1.0000 </r>
       <r>   -0.3350    1.0000 </r>
       <r>   -0.2965    1.0000 </r>
       <r>    1.0031    0.0000 </r>
       <r>    1.0541    0.0000 </r>
       <r>    1.1374    0.0000 </r>
       <r>    1.1504    0.0000 </r>
       <r>    1.1727    0.0000 </r>
       <r>    1.2945    0.0000 </r>
       <r>    1.3496    0.0000 </r>
       <r>    1.3767    0.0000 </r>
       <r>    1.4083    0.0000 </r>
       <r>    1.5256    0.0000 </r>
       <r>    1.5976    0.0000 </r>
       <r>    1.6384    0.0000 </r>
       <r>    1.7847    0.0000 </r>
       <r>    1.8159    0.0000 </r>
       <r>    1.8376    0.0000 </r>
       <r>    1.9177    0.0000 </r>
       <r>    2.0630    0.0000 </r>
       <r>    2.1474    0.0000 </r>
       <r>    2.2370    0.0000 </r>
       <r>    2.2392    0.0000 </r>
       <r>    2.3422    0.0000 </r>
       <r>    2.3930    0.0000 </r>
       <r>    2.5551    0.0000 </r>
       <r>    2.5573    0.0000 </r>
       <r>    2.7328    0.0000 </r>
       <r>    2.7717    0.0000 </r>
       <r>    2.8096    0.0000 </r>
       <r>    2.8571    0.0000 </r>
      </set>
      <set comment="kpoint 2">
       <r>  -28.6282    1.0000 </r>
       <r>  -28.6278    1.0000 </r>
       <r>  -27.6489    1.0000 </r>
       <r>  -27.6484    1.0000 </r>
       <r>  -27.6330    1.0000 </r>
       <r>  -27.6313    1.0000 </r>
       <r>  -27.5828    1.0000 </r>
       <r>  -27.5826    1.0000 </r>
       <r>  -27.4883    1.0000 </r>
       <r>  -27.4881    1.0000 </r>
       <r>  -27.4554    1.0000 </r>
       <r>  -27.4540    1.0000 </r>
       <r>  -14.0068    1.0000 </r>
       <r>  -14.0064    1.0000 </r>
       <r>  -13.9335    1.0000 </r>
       <r>  -13.9332    1.0000 </r>
       <r>  -13.8432    1.0000 </r>
       <r>  -13.8429    1.0000 </r>
       <r>  -13.2816    1.0000 </r>
       <r>  -13.2435    1.0000 </r>
       <r>  -13.1601    1.0000 </r>
       <r>  -13.1329    1.0000 </r>
       <r>  -13.1235    1.0000 </r>
       <r>  -13.0652    1.0000 </r>
       <r>  -13.0635    1.0000 </r>
       <r>  -13.0487    1.0000 </r>
       <r>  -13.0284    1.0000 </r>
       <r>  -13.0256    1.0000 </r>
       <r>  -13.0222    1.0000 </r>
       <r>  -13.0003    1.0000 </r>
       <r>  -12.9978    1.0000 </r>
       <r>  -12.9764    1.0000 </r>
       <r>  -12.9738    1.0000 </r>
       <r>  -12.9679    1.0000 </r>
       <r>  -12.9630    1.0000 </r>
       <r>  -12.9253    1.0000 </r>
       <r>  -12.8633    1.0000 </r>
       <r>  -12.8334    1.0000 </r>
       <r>  -12.7950    1.0000 </r>
       <r>  -12.7884    1.0000 </r>
       <r>  -12.7734    1.0000 </r>
       <r>  -12.7719    1.0000 </r>
       <r>  -12.7630    1.0000 </r>
       <r>  -12.7491    1.0000 </r>
       <r>  -12.7422    1.0000 </r>
       <r>  -12.7322    1.0000 </r>
       <r>  -12.7142    1.0000 </r>
       <r>  -12.7110    1.0000 </r>
       <r>  -10.8288    1.0000 </r>
       <r>  -10.6267    1.0000 </r>
       <r>  -10.6237    1.0000 </r>
       <r>  -10.5910    1.0000 </r>
       <r>  -10.2165    1.0000 </r>
       <r>  -10.2100    1.0000 </r>
       <r>   -6.2272    1.0000 </r>
       <r>   -6.0664    1.0000 </r>
       <r>   -6.0145    1.0000 </r>
       <r>   -5.9084    1.0000 </r>
       <r>   -5.8815    1.0000 </r>
       <r>   -5.8518    1.0000 </r>
       <r>   -5.8477    1.0000 </r>
       <r>   -5.7999    1.0000 </r>
       <r>   -5.7177    1.0000 </r>
       <r>   -5.7032    1.0000 </r>
       <r>   -5.7024    1.0000 </r>
       <r>   -5.6830    1.0000 </r>
       <r>   -5.5402    1.0000 </r>
       <r>   -5.5015    1.0000 </r>
       <r>   -5.4591    1.0000 </r>
       <r>   -5.4000    1.0000 </r>
       <r>   -5.1718    1.0000 </r>
       <r>   -5.1698    1.0000 </r>
       <r>   -3.3751    1.0000 </r>
       <r>   -2.8756    1.0000 </r>
       <r>   -2.5889    1.0000 </r>
       <r>   -2.5702    1.0000 </r>
       <r>   -2.3262    1.0000 </r>
       <r>   -2.2211    1.0000 </r>
       <r>   -2.0936    1.0000 </r>
       <r>   -1.9528    1.0000 </r>
       <r>   -1.8137    1.0000 </r>
       <r>   -1.7376    1.0000 </r>
       <r>   -1.7221    1.0000 </r>
       <r>   -1.6706    1.0000 </r>
       <r>   -1.6051    1.0000 </r>
       <r>   -1.5065    1.0000 </r>
       <r>   -1.5063    1.0000 </r>
       <r>   -1.4624    1.0000 </r>
       <r>   -1.4457    1.0000 </r>
       <r>   -1.4217    1.0000 </r>
       <r>   -1.2508    1.0000 </r>
       <r>   -1.1813    1.0000 </r>
       <r>   -1.1769    1.0000 </r>
       <r>   -1.1259    1.0000 </r>
       <r>   -1.0899    1.0000 </r>
       <r>   -1.0279    1.0000 </r>
       <r>   -1.0181    1.0000 </r>
       <r>   -0.8478    1.0000 </r>
       <r>   -0.7417    1.0000 </r>
       <r>   -0.7258    1.0000 </r>
       <r>   -0.7219    1.0000 </r>
       <r>   -0.6901    1.0000 </r>
       <r>   -0.6457    1.0000 </r>
       <r>   -0.6320    1.0000 </r>
       <r>   -0.4455    1.0000 </r>
       <r>   -0.4115    1.0000 </r>
       <r>   -0.3398    1.0000 </r>
       <r>   -0.2941    1.0000 </r>
       <r>    0.9992    0.0000 </r>
       <r>    1.0513    0.0000 </r>
       <r>    1.1416    0.0000 </r>
       <r>    1.1489    0.0000 </r>
       <r>    1.1689    0.0000 </r>
       <r>    1.2881    0.0000 </r>
       <r>    1.3568    0.0000 </r>
       <r>    1.3648    0.0000 </r>
       <r>    1.4195    0.0000 </r>
       <r>    1.5252    0.0000 </r>
       <r>    1.6003    0.0000 </r>
       <r>    1.6383    0.0000 </r>
       <r>    1.7757    0.0000 </r>
       <r>    1.8006    0.0000 </r>
       <r>    1.8453    0.0000 </r>
       <r>    1.9241    0.0000 </r>
       <r>    2.0534    0.0000 </r>
       <r>    2.1556    0.0000 </r>
       <r>    2.2327    0.0000 </r>
       <r>    2.2433    0.0000 </r>
       <r>    2.3322    0.0000 </r>
       <r>    2.4106    0.0000 </r>
       <r>    2.5559    0.0000 </r>
       <r>    2.5570    0.0000 </r>
       <r>    2.7239    0.0000 </r>
       <r>    2.7946    0.0000 </r>
       <r>    2.8127    0.0000 </r>
       <r>    2.8999    0.0000 </r>
      </set>
      <set comment="kpoint 3">
       <r>  -28.6282    1.0000 </r>
       <r>  -28.6278    1.0000 </r>
       <r>  -27.6489    1.0000 </r>
       <r>  -27.6484    1.0000 </r>
       <r>  -27.6330    1.0000 </r>
       <r>  -27.6313    1.0000 </r>
       <r>  -27.5828    1.0000 </r>
       <r>  -27.5825    1.0000 </r>
       <r>  -27.4884    1.0000 </r>
       <r>  -27.4882    1.0000 </r>
       <r>  -27.4554    1.0000 </r>
       <r>  -27.4540    1.0000 </r>
       <r>  -14.0066    1.0000 </r>
       <r>  -14.0062    1.0000 </r>
       <r>  -13.9337    1.0000 </r>
       <r>  -13.9333    1.0000 </r>
       <r>  -13.8439    1.0000 </r>
       <r>  -13.8436    1.0000 </r>
       <r>  -13.2816    1.0000 </r>
       <r>  -13.2433    1.0000 </r>
       <r>  -13.1639    1.0000 </r>
       <r>  -13.1343    1.0000 </r>
       <r>  -13.1200    1.0000 </r>
       <r>  -13.0651    1.0000 </r>
       <r>  -13.0639    1.0000 </r>
       <r>  -13.0508    1.0000 </r>
       <r>  -13.0315    1.0000 </r>
       <r>  -13.0280    1.0000 </r>
       <r>  -13.0213    1.0000 </r>
       <r>  -13.0031    1.0000 </r>
       <r>  -13.0006    1.0000 </r>
       <r>  -12.9772    1.0000 </r>
       <r>  -12.9769    1.0000 </r>
       <r>  -12.9673    1.0000 </r>
       <r>  -12.9552    1.0000 </r>
       <r>  -12.9235    1.0000 </r>
       <r>  -12.8615    1.0000 </r>
       <r>  -12.8329    1.0000 </r>
       <r>  -12.7943    1.0000 </r>
       <r>  -12.7884    1.0000 </r>
       <r>  -12.7746    1.0000 </r>
       <r>  -12.7717    1.0000 </r>
       <r>  -12.7616    1.0000 </r>
       <r>  -12.7494    1.0000 </r>
       <r>  -12.7412    1.0000 </r>
       <r>  -12.7322    1.0000 </r>
       <r>  -12.7140    1.0000 </r>
       <r>  -12.7116    1.0000 </r>
       <r>  -10.8251    1.0000 </r>
       <r>  -10.6262    1.0000 </r>
       <r>  -10.6220    1.0000 </r>
       <r>  -10.5901    1.0000 </r>
       <r>  -10.2151    1.0000 </r>
       <r>  -10.2088    1.0000 </r>
       <r>   -6.2218    1.0000 </r>
       <r>   -6.0643    1.0000 </r>
       <r>   -6.0112    1.0000 </r>
       <r>   -5.9214    1.0000 </r>
       <r>   -5.8686    1.0000 </r>
       <r>   -5.8499    1.0000 </r>
       <r>   -5.8452    1.0000 </r>
       <r>   -5.8041    1.0000 </r>
       <r>   -5.7273    1.0000 </r>
       <r>   -5.7001    1.0000 </r>
       <r>   -5.6994    1.0000 </r>
       <r>   -5.6893    1.0000 </r>
       <r>   -5.5362    1.0000 </r>
       <r>   -5.4988    1.0000 </r>
       <r>   -5.4570    1.0000 </r>
       <r>   -5.4010    1.0000 </r>
       <r>   -5.1790    1.0000 </r>
       <r>   -5.1744    1.0000 </r>
       <r>   -3.3559    1.0000 </r>
       <r>   -2.8614    1.0000 </r>
       <r>   -2.5802    1.0000 </r>
       <r>   -2.5600    1.0000 </r>
       <r>   -2.3250    1.0000 </r>
       <r>   -2.2162    1.0000 </r>
       <r>   -2.0876    1.0000 </r>
       <r>   -1.9527    1.0000 </r>
       <r>   -1.8241    1.0000 </r>
       <r>   -1.7414    1.0000 </r>
       <r>   -1.7369    1.0000 </r>
       <r>   -1.6474    1.0000 </r>
       <r>   -1.5958    1.0000 </r>
       <r>   -1.5250    1.0000 </r>
       <r>   -1.5081    1.0000 </r>
       <r>   -1.4860    1.0000 </r>
       <r>   -1.4357    1.0000 </r>
       <r>   -1.4127    1.0000 </r>
       <r>   -1.2544    1.0000 </r>
       <r>   -1.1880    1.0000 </r>
       <r>   -1.1787    1.0000 </r>
       <r>   -1.1389    1.0000 </r>
       <r>   -1.0740    1.0000 </r>
       <r>   -1.0257    1.0000 </r>
       <r>   -1.0171    1.0000 </r>
       <r>   -0.8457    1.0000 </r>
       <r>   -0.7523    1.0000 </r>
       <r>   -0.7327    1.0000 </r>
       <r>   -0.7268    1.0000 </r>
       <r>   -0.6832    1.0000 </r>
       <r>   -0.6612    1.0000 </r>
       <r>   -0.6268    1.0000 </r>
       <r>   -0.4499    1.0000 </r>
       <r>   -0.3983    1.0000 </r>
       <r>   -0.3519    1.0000 </r>
       <r>   -0.2890    1.0000 </r>
       <r>    0.9847    0.0000 </r>
       <r>    1.0477    0.0000 </r>
       <r>    1.1388    0.0000 </r>
       <r>    1.1529    0.0000 </r>
       <r>    1.1630    0.0000 </r>
       <r>    1.2770    0.0000 </r>
       <r>    1.3428    0.0000 </r>
       <r>    1.3720    0.0000 </r>
       <r>    1.4374    0.0000 </r>
       <r>    1.5254    0.0000 </r>
       <r>    1.6065    0.0000 </r>
       <r>    1.6359    0.0000 </r>
       <r>    1.7557    0.0000 </r>
       <r>    1.7689    0.0000 </r>
       <r>    1.8572    0.0000 </r>
       <r>    1.9405    0.0000 </r>
       <r>    2.0318    0.0000 </r>
       <r>    2.1731    0.0000 </r>
       <r>    2.2200    0.0000 </r>
       <r>    2.2535    0.0000 </r>
       <r>    2.3216    0.0000 </r>
       <r>    2.4414    0.0000 </r>
       <r>    2.5545    0.0000 </r>
       <r>    2.5574    0.0000 </r>
       <r>    2.6820    0.0000 </r>
       <r>    2.7733    0.0000 </r>
       <r>    2.8154    0.0000 </r>
       <r>    2.8771    0.0000 </r>
      </set>
      <set comment="kpoint 4">
       <r>  -28.6282    1.0000 </r>
       <r>  -28.6278    1.0000 </r>
       <r>  -27.6489    1.0000 </r>
       <r>  -27.6484    1.0000 </r>
       <r>  -27.6329    1.0000 </r>
       <r>  -27.6313    1.0000 </r>
       <r>  -27.5827    1.0000 </r>
       <r>  -27.5825    1.0000 </r>
       <r>  -27.4885    1.0000 </r>
       <r>  -27.4883    1.0000 </r>
       <r>  -27.4554    1.0000 </r>
       <r>  -27.4540    1.0000 </r>
       <r>  -14.0064    1.0000 </r>
       <r>  -14.0060    1.0000 </r>
       <r>  -13.9339    1.0000 </r>
       <r>  -13.9335    1.0000 </r>
       <r>  -13.8451    1.0000 </r>
       <r>  -13.8448    1.0000 </r>
       <r>  -13.2816    1.0000 </r>
       <r>  -13.2429    1.0000 </r>
       <r>  -13.1689    1.0000 </r>
       <r>  -13.1365    1.0000 </r>
       <r>  -13.1155    1.0000 </r>
       <r>  -13.0690    1.0000 </r>
       <r>  -13.0619    1.0000 </r>
       <r>  -13.0531    1.0000 </r>
       <r>  -13.0351    1.0000 </r>
       <r>  -13.0315    1.0000 </r>
       <r>  -13.0209    1.0000 </r>
       <r>  -13.0071    1.0000 </r>
       <r>  -13.0058    1.0000 </r>
       <r>  -12.9810    1.0000 </r>
       <r>  -12.9741    1.0000 </r>
       <r>  -12.9661    1.0000 </r>
       <r>  -12.9475    1.0000 </r>
       <r>  -12.9216    1.0000 </r>
       <r>  -12.8587    1.0000 </r>
       <r>  -12.8323    1.0000 </r>
       <r>  -12.7932    1.0000 </r>
       <r>  -12.7884    1.0000 </r>
       <r>  -12.7759    1.0000 </r>
       <r>  -12.7714    1.0000 </r>
       <r>  -12.7599    1.0000 </r>
       <r>  -12.7496    1.0000 </r>
       <r>  -12.7399    1.0000 </r>
       <r>  -12.7323    1.0000 </r>
       <r>  -12.7137    1.0000 </r>
       <r>  -12.7124    1.0000 </r>
       <r>  -10.8190    1.0000 </r>
       <r>  -10.6254    1.0000 </r>
       <r>  -10.6191    1.0000 </r>
       <r>  -10.5887    1.0000 </r>
       <r>  -10.2128    1.0000 </r>
       <r>  -10.2068    1.0000 </r>
       <r>   -6.2131    1.0000 </r>
       <r>   -6.0609    1.0000 </r>
       <r>   -6.0064    1.0000 </r>
       <r>   -5.9340    1.0000 </r>
       <r>   -5.8559    1.0000 </r>
       <r>   -5.8471    1.0000 </r>
       <r>   -5.8409    1.0000 </r>
       <r>   -5.8101    1.0000 </r>
       <r>   -5.7406    1.0000 </r>
       <r>   -5.6992    1.0000 </r>
       <r>   -5.6979    1.0000 </r>
       <r>   -5.6940    1.0000 </r>
       <r>   -5.5299    1.0000 </r>
       <r>   -5.4946    1.0000 </r>
       <r>   -5.4537    1.0000 </r>
       <r>   -5.4025    1.0000 </r>
       <r>   -5.1907    1.0000 </r>
       <r>   -5.1817    1.0000 </r>
       <r>   -3.3249    1.0000 </r>
       <r>   -2.8381    1.0000 </r>
       <r>   -2.5659    1.0000 </r>
       <r>   -2.5432    1.0000 </r>
       <r>   -2.3231    1.0000 </r>
       <r>   -2.2088    1.0000 </r>
       <r>   -2.0778    1.0000 </r>
       <r>   -1.9526    1.0000 </r>
       <r>   -1.8409    1.0000 </r>
       <r>   -1.7548    1.0000 </r>
       <r>   -1.7358    1.0000 </r>
       <r>   -1.6261    1.0000 </r>
       <r>   -1.5819    1.0000 </r>
       <r>   -1.5480    1.0000 </r>
       <r>   -1.5131    1.0000 </r>
       <r>   -1.5101    1.0000 </r>
       <r>   -1.4273    1.0000 </r>
       <r>   -1.4086    1.0000 </r>
       <r>   -1.2599    1.0000 </r>
       <r>   -1.2058    1.0000 </r>
       <r>   -1.1742    1.0000 </r>
       <r>   -1.1501    1.0000 </r>
       <r>   -1.0596    1.0000 </r>
       <r>   -1.0221    1.0000 </r>
       <r>   -1.0148    1.0000 </r>
       <r>   -0.8455    1.0000 </r>
       <r>   -0.7609    1.0000 </r>
       <r>   -0.7506    1.0000 </r>
       <r>   -0.7336    1.0000 </r>
       <r>   -0.6847    1.0000 </r>
       <r>   -0.6737    1.0000 </r>
       <r>   -0.6179    1.0000 </r>
       <r>   -0.4514    1.0000 </r>
       <r>   -0.3841    1.0000 </r>
       <r>   -0.3680    1.0000 </r>
       <r>   -0.2842    1.0000 </r>
       <r>    0.9583    0.0000 </r>
       <r>    1.0477    0.0000 </r>
       <r>    1.1151    0.0000 </r>
       <r>    1.1602    0.0000 </r>
       <r>    1.1683    0.0000 </r>
       <r>    1.2701    0.0000 </r>
       <r>    1.3188    0.0000 </r>
       <r>    1.3895    0.0000 </r>
       <r>    1.4491    0.0000 </r>
       <r>    1.5288    0.0000 </r>
       <r>    1.6096    0.0000 </r>
       <r>    1.6273    0.0000 </r>
       <r>    1.7312    0.0000 </r>
       <r>    1.7401    0.0000 </r>
       <r>    1.8699    0.0000 </r>
       <r>    1.9619    0.0000 </r>
       <r>    2.0074    0.0000 </r>
       <r>    2.1903    0.0000 </r>
       <r>    2.2019    0.0000 </r>
       <r>    2.2658    0.0000 </r>
       <r>    2.3182    0.0000 </r>
       <r>    2.4660    0.0000 </r>
       <r>    2.5461    0.0000 </r>
       <r>    2.5533    0.0000 </r>
       <r>    2.6532    0.0000 </r>
       <r>    2.7100    0.0000 </r>
       <r>    2.8328    0.0000 </r>
       <r>    2.8704    0.0000 </r>
      </set>
      <set comment="kpoint 5">
       <r>  -28.6282    1.0000 </r>
       <r>  -28.6278    1.0000 </r>
       <r>  -27.6488    1.0000 </r>
       <r>  -27.6484    1.0000 </r>
       <r>  -27.6329    1.0000 </r>
       <r>  -27.6312    1.0000 </r>
       <r>  -27.5825    1.0000 </r>
       <r>  -27.5823    1.0000 </r>
       <r>  -27.4886    1.0000 </r>
       <r>  -27.4884    1.0000 </r>
       <r>  -27.4555    1.0000 </r>
       <r>  -27.4541    1.0000 </r>
       <r>  -14.0061    1.0000 </r>
       <r>  -14.0056    1.0000 </r>
       <r>  -13.9342    1.0000 </r>
       <r>  -13.9338    1.0000 </r>
       <r>  -13.8468    1.0000 </r>
       <r>  -13.8464    1.0000 </r>
       <r>  -13.2815    1.0000 </r>
       <r>  -13.2424    1.0000 </r>
       <r>  -13.1741    1.0000 </r>
       <r>  -13.1392    1.0000 </r>
       <r>  -13.1107    1.0000 </r>
       <r>  -13.0759    1.0000 </r>
       <r>  -13.0598    1.0000 </r>
       <r>  -13.0556    1.0000 </r>
       <r>  -13.0382    1.0000 </r>
       <r>  -13.0355    1.0000 </r>
       <r>  -13.0211    1.0000 </r>
       <r>  -13.0133    1.0000 </r>
       <r>  -13.0102    1.0000 </r>
       <r>  -12.9847    1.0000 </r>
       <r>  -12.9694    1.0000 </r>
       <r>  -12.9648    1.0000 </r>
       <r>  -12.9405    1.0000 </r>
       <r>  -12.9204    1.0000 </r>
       <r>  -12.8551    1.0000 </r>
       <r>  -12.8316    1.0000 </r>
       <r>  -12.7914    1.0000 </r>
       <r>  -12.7885    1.0000 </r>
       <r>  -12.7765    1.0000 </r>
       <r>  -12.7708    1.0000 </r>
       <r>  -12.7582    1.0000 </r>
       <r>  -12.7496    1.0000 </r>
       <r>  -12.7384    1.0000 </r>
       <r>  -12.7324    1.0000 </r>
       <r>  -12.7134    1.0000 </r>
       <r>  -12.7132    1.0000 </r>
       <r>  -10.8107    1.0000 </r>
       <r>  -10.6244    1.0000 </r>
       <r>  -10.6153    1.0000 </r>
       <r>  -10.5868    1.0000 </r>
       <r>  -10.2097    1.0000 </r>
       <r>  -10.2040    1.0000 </r>
       <r>   -6.2011    1.0000 </r>
       <r>   -6.0565    1.0000 </r>
       <r>   -6.0020    1.0000 </r>
       <r>   -5.9445    1.0000 </r>
       <r>   -5.8443    1.0000 </r>
       <r>   -5.8441    1.0000 </r>
       <r>   -5.8338    1.0000 </r>
       <r>   -5.8165    1.0000 </r>
       <r>   -5.7567    1.0000 </r>
       <r>   -5.7117    1.0000 </r>
       <r>   -5.6957    1.0000 </r>
       <r>   -5.6881    1.0000 </r>
       <r>   -5.5220    1.0000 </r>
       <r>   -5.4889    1.0000 </r>
       <r>   -5.4493    1.0000 </r>
       <r>   -5.4043    1.0000 </r>
       <r>   -5.2061    1.0000 </r>
       <r>   -5.1915    1.0000 </r>
       <r>   -3.2830    1.0000 </r>
       <r>   -2.8064    1.0000 </r>
       <r>   -2.5465    1.0000 </r>
       <r>   -2.5204    1.0000 </r>
       <r>   -2.3205    1.0000 </r>
       <r>   -2.2002    1.0000 </r>
       <r>   -2.0643    1.0000 </r>
       <r>   -1.9527    1.0000 </r>
       <r>   -1.8604    1.0000 </r>
       <r>   -1.7625    1.0000 </r>
       <r>   -1.7345    1.0000 </r>
       <r>   -1.6092    1.0000 </r>
       <r>   -1.5717    1.0000 </r>
       <r>   -1.5676    1.0000 </r>
       <r>   -1.5406    1.0000 </r>
       <r>   -1.5116    1.0000 </r>
       <r>   -1.4222    1.0000 </r>
       <r>   -1.4093    1.0000 </r>
       <r>   -1.2668    1.0000 </r>
       <r>   -1.2281    1.0000 </r>
       <r>   -1.1678    1.0000 </r>
       <r>   -1.1604    1.0000 </r>
       <r>   -1.0506    1.0000 </r>
       <r>   -1.0176    1.0000 </r>
       <r>   -1.0088    1.0000 </r>
       <r>   -0.8522    1.0000 </r>
       <r>   -0.7761    1.0000 </r>
       <r>   -0.7661    1.0000 </r>
       <r>   -0.7397    1.0000 </r>
       <r>   -0.7130    1.0000 </r>
       <r>   -0.6659    1.0000 </r>
       <r>   -0.6060    1.0000 </r>
       <r>   -0.4509    1.0000 </r>
       <r>   -0.3861    1.0000 </r>
       <r>   -0.3706    1.0000 </r>
       <r>   -0.2808    1.0000 </r>
       <r>    0.9254    0.0000 </r>
       <r>    1.0471    0.0000 </r>
       <r>    1.0843    0.0000 </r>
       <r>    1.1567    0.0000 </r>
       <r>    1.1834    0.0000 </r>
       <r>    1.2698    0.0000 </r>
       <r>    1.2997    0.0000 </r>
       <r>    1.4082    0.0000 </r>
       <r>    1.4409    0.0000 </r>
       <r>    1.5377    0.0000 </r>
       <r>    1.5990    0.0000 </r>
       <r>    1.6186    0.0000 </r>
       <r>    1.6996    0.0000 </r>
       <r>    1.7384    0.0000 </r>
       <r>    1.8806    0.0000 </r>
       <r>    1.9855    0.0000 </r>
       <r>    1.9868    0.0000 </r>
       <r>    2.1820    0.0000 </r>
       <r>    2.2010    0.0000 </r>
       <r>    2.2770    0.0000 </r>
       <r>    2.3188    0.0000 </r>
       <r>    2.4636    0.0000 </r>
       <r>    2.5269    0.0000 </r>
       <r>    2.5457    0.0000 </r>
       <r>    2.6337    0.0000 </r>
       <r>    2.6392    0.0000 </r>
       <r>    2.8424    0.0000 </r>
       <r>    2.8885    0.0000 </r>
      </set>
      <set comment="kpoint 6">
       <r>  -28.6282    1.0000 </r>
       <r>  -28.6278    1.0000 </r>
       <r>  -27.6488    1.0000 </r>
       <r>  -27.6483    1.0000 </r>
       <r>  -27.6328    1.0000 </r>
       <r>  -27.6312    1.0000 </r>
       <r>  -27.5824    1.0000 </r>
       <r>  -27.5822    1.0000 </r>
       <r>  -27.4888    1.0000 </r>
       <r>  -27.4885    1.0000 </r>
       <r>  -27.4555    1.0000 </r>
       <r>  -27.4542    1.0000 </r>
       <r>  -14.0056    1.0000 </r>
       <r>  -14.0052    1.0000 </r>
       <r>  -13.9346    1.0000 </r>
       <r>  -13.9342    1.0000 </r>
       <r>  -13.8488    1.0000 </r>
       <r>  -13.8484    1.0000 </r>
       <r>  -13.2815    1.0000 </r>
       <r>  -13.2418    1.0000 </r>
       <r>  -13.1792    1.0000 </r>
       <r>  -13.1423    1.0000 </r>
       <r>  -13.1060    1.0000 </r>
       <r>  -13.0852    1.0000 </r>
       <r>  -13.0594    1.0000 </r>
       <r>  -13.0586    1.0000 </r>
       <r>  -13.0398    1.0000 </r>
       <r>  -13.0392    1.0000 </r>
       <r>  -13.0220    1.0000 </r>
       <r>  -13.0218    1.0000 </r>
       <r>  -13.0116    1.0000 </r>
       <r>  -12.9881    1.0000 </r>
       <r>  -12.9642    1.0000 </r>
       <r>  -12.9635    1.0000 </r>
       <r>  -12.9344    1.0000 </r>
       <r>  -12.9199    1.0000 </r>
       <r>  -12.8512    1.0000 </r>
       <r>  -12.8310    1.0000 </r>
       <r>  -12.7891    1.0000 </r>
       <r>  -12.7886    1.0000 </r>
       <r>  -12.7764    1.0000 </r>
       <r>  -12.7700    1.0000 </r>
       <r>  -12.7567    1.0000 </r>
       <r>  -12.7492    1.0000 </r>
       <r>  -12.7370    1.0000 </r>
       <r>  -12.7325    1.0000 </r>
       <r>  -12.7141    1.0000 </r>
       <r>  -12.7130    1.0000 </r>
       <r>  -10.8006    1.0000 </r>
       <r>  -10.6232    1.0000 </r>
       <r>  -10.6105    1.0000 </r>
       <r>  -10.5844    1.0000 </r>
       <r>  -10.2059    1.0000 </r>
       <r>  -10.2005    1.0000 </r>
       <r>   -6.1862    1.0000 </r>
       <r>   -6.0512    1.0000 </r>
       <r>   -6.0020    1.0000 </r>
       <r>   -5.9494    1.0000 </r>
       <r>   -5.8436    1.0000 </r>
       <r>   -5.8355    1.0000 </r>
       <r>   -5.8228    1.0000 </r>
       <r>   -5.8212    1.0000 </r>
       <r>   -5.7746    1.0000 </r>
       <r>   -5.7252    1.0000 </r>
       <r>   -5.6936    1.0000 </r>
       <r>   -5.6823    1.0000 </r>
       <r>   -5.5127    1.0000 </r>
       <r>   -5.4822    1.0000 </r>
       <r>   -5.4439    1.0000 </r>
       <r>   -5.4062    1.0000 </r>
       <r>   -5.2245    1.0000 </r>
       <r>   -5.2034    1.0000 </r>
       <r>   -3.2318    1.0000 </r>
       <r>   -2.7673    1.0000 </r>
       <r>   -2.5228    1.0000 </r>
       <r>   -2.4920    1.0000 </r>
       <r>   -2.3170    1.0000 </r>
       <r>   -2.1922    1.0000 </r>
       <r>   -2.0478    1.0000 </r>
       <r>   -1.9531    1.0000 </r>
       <r>   -1.8771    1.0000 </r>
       <r>   -1.7662    1.0000 </r>
       <r>   -1.7334    1.0000 </r>
       <r>   -1.6120    1.0000 </r>
       <r>   -1.5798    1.0000 </r>
       <r>   -1.5762    1.0000 </r>
       <r>   -1.5507    1.0000 </r>
       <r>   -1.5077    1.0000 </r>
       <r>   -1.4208    1.0000 </r>
       <r>   -1.4138    1.0000 </r>
       <r>   -1.2746    1.0000 </r>
       <r>   -1.2534    1.0000 </r>
       <r>   -1.1705    1.0000 </r>
       <r>   -1.1598    1.0000 </r>
       <r>   -1.0499    1.0000 </r>
       <r>   -1.0123    1.0000 </r>
       <r>   -0.9967    1.0000 </r>
       <r>   -0.8699    1.0000 </r>
       <r>   -0.8055    1.0000 </r>
       <r>   -0.7685    1.0000 </r>
       <r>   -0.7559    1.0000 </r>
       <r>   -0.7294    1.0000 </r>
       <r>   -0.6620    1.0000 </r>
       <r>   -0.5928    1.0000 </r>
       <r>   -0.4499    1.0000 </r>
       <r>   -0.4047    1.0000 </r>
       <r>   -0.3582    1.0000 </r>
       <r>   -0.2796    1.0000 </r>
       <r>    0.8920    0.0000 </r>
       <r>    1.0387    0.0000 </r>
       <r>    1.0521    0.0000 </r>
       <r>    1.1507    0.0000 </r>
       <r>    1.1951    0.0000 </r>
       <r>    1.2746    0.0000 </r>
       <r>    1.2910    0.0000 </r>
       <r>    1.4081    0.0000 </r>
       <r>    1.4275    0.0000 </r>
       <r>    1.5527    0.0000 </r>
       <r>    1.5691    0.0000 </r>
       <r>    1.6226    0.0000 </r>
       <r>    1.6826    0.0000 </r>
       <r>    1.7465    0.0000 </r>
       <r>    1.8838    0.0000 </r>
       <r>    1.9747    0.0000 </r>
       <r>    2.0095    0.0000 </r>
       <r>    2.1614    0.0000 </r>
       <r>    2.1991    0.0000 </r>
       <r>    2.2853    0.0000 </r>
       <r>    2.3207    0.0000 </r>
       <r>    2.4245    0.0000 </r>
       <r>    2.5146    0.0000 </r>
       <r>    2.5186    0.0000 </r>
       <r>    2.5867    0.0000 </r>
       <r>    2.6406    0.0000 </r>
       <r>    2.8264    0.0000 </r>
       <r>    2.9263    0.0000 </r>
      </set>
      <set comment="kpoint 7">
       <r>  -28.6282    1.0000 </r>
       <r>  -28.6278    1.0000 </r>
       <r>  -27.6488    1.0000 </r>
       <r>  -27.6483    1.0000 </r>
       <r>  -27.6327    1.0000 </r>
       <r>  -27.6312    1.0000 </r>
       <r>  -27.5822    1.0000 </r>
       <r>  -27.5820    1.0000 </r>
       <r>  -27.4889    1.0000 </r>
       <r>  -27.4887    1.0000 </r>
       <r>  -27.4556    1.0000 </r>
       <r>  -27.4543    1.0000 </r>
       <r>  -14.0051    1.0000 </r>
       <r>  -14.0047    1.0000 </r>
       <r>  -13.9350    1.0000 </r>
       <r>  -13.9346    1.0000 </r>
       <r>  -13.8511    1.0000 </r>
       <r>  -13.8508    1.0000 </r>
       <r>  -13.2815    1.0000 </r>
       <r>  -13.2410    1.0000 </r>
       <r>  -13.1838    1.0000 </r>
       <r>  -13.1454    1.0000 </r>
       <r>  -13.1014    1.0000 </r>
       <r>  -13.0961    1.0000 </r>
       <r>  -13.0647    1.0000 </r>
       <r>  -13.0596    1.0000 </r>
       <r>  -13.0431    1.0000 </r>
       <r>  -13.0398    1.0000 </r>
       <r>  -13.0289    1.0000 </r>
       <r>  -13.0235    1.0000 </r>
       <r>  -13.0117    1.0000 </r>
       <r>  -12.9917    1.0000 </r>
       <r>  -12.9624    1.0000 </r>
       <r>  -12.9590    1.0000 </r>
       <r>  -12.9295    1.0000 </r>
       <r>  -12.9201    1.0000 </r>
       <r>  -12.8473    1.0000 </r>
       <r>  -12.8308    1.0000 </r>
       <r>  -12.7883    1.0000 </r>
       <r>  -12.7861    1.0000 </r>
       <r>  -12.7756    1.0000 </r>
       <r>  -12.7690    1.0000 </r>
       <r>  -12.7553    1.0000 </r>
       <r>  -12.7485    1.0000 </r>
       <r>  -12.7357    1.0000 </r>
       <r>  -12.7327    1.0000 </r>
       <r>  -12.7149    1.0000 </r>
       <r>  -12.7126    1.0000 </r>
       <r>  -10.7888    1.0000 </r>
       <r>  -10.6219    1.0000 </r>
       <r>  -10.6050    1.0000 </r>
       <r>  -10.5815    1.0000 </r>
       <r>  -10.2014    1.0000 </r>
       <r>  -10.1964    1.0000 </r>
       <r>   -6.1688    1.0000 </r>
       <r>   -6.0453    1.0000 </r>
       <r>   -6.0099    1.0000 </r>
       <r>   -5.9455    1.0000 </r>
       <r>   -5.8496    1.0000 </r>
       <r>   -5.8282    1.0000 </r>
       <r>   -5.8213    1.0000 </r>
       <r>   -5.8104    1.0000 </r>
       <r>   -5.7917    1.0000 </r>
       <r>   -5.7372    1.0000 </r>
       <r>   -5.6914    1.0000 </r>
       <r>   -5.6770    1.0000 </r>
       <r>   -5.5026    1.0000 </r>
       <r>   -5.4747    1.0000 </r>
       <r>   -5.4379    1.0000 </r>
       <r>   -5.4078    1.0000 </r>
       <r>   -5.2451    1.0000 </r>
       <r>   -5.2170    1.0000 </r>
       <r>   -3.1729    1.0000 </r>
       <r>   -2.7217    1.0000 </r>
       <r>   -2.4954    1.0000 </r>
       <r>   -2.4591    1.0000 </r>
       <r>   -2.3125    1.0000 </r>
       <r>   -2.1871    1.0000 </r>
       <r>   -2.0293    1.0000 </r>
       <r>   -1.9537    1.0000 </r>
       <r>   -1.8864    1.0000 </r>
       <r>   -1.7669    1.0000 </r>
       <r>   -1.7330    1.0000 </r>
       <r>   -1.6381    1.0000 </r>
       <r>   -1.6041    1.0000 </r>
       <r>   -1.5678    1.0000 </r>
       <r>   -1.5523    1.0000 </r>
       <r>   -1.4942    1.0000 </r>
       <r>   -1.4230    1.0000 </r>
       <r>   -1.4210    1.0000 </r>
       <r>   -1.2834    1.0000 </r>
       <r>   -1.2808    1.0000 </r>
       <r>   -1.1806    1.0000 </r>
       <r>   -1.1504    1.0000 </r>
       <r>   -1.0556    1.0000 </r>
       <r>   -1.0065    1.0000 </r>
       <r>   -0.9804    1.0000 </r>
       <r>   -0.8979    1.0000 </r>
       <r>   -0.8373    1.0000 </r>
       <r>   -0.7906    1.0000 </r>
       <r>   -0.7675    1.0000 </r>
       <r>   -0.7242    1.0000 </r>
       <r>   -0.6634    1.0000 </r>
       <r>   -0.5800    1.0000 </r>
       <r>   -0.4500    1.0000 </r>
       <r>   -0.4223    1.0000 </r>
       <r>   -0.3475    1.0000 </r>
       <r>   -0.2812    1.0000 </r>
       <r>    0.8628    0.0000 </r>
       <r>    1.0179    0.0000 </r>
       <r>    1.0228    0.0000 </r>
       <r>    1.1429    0.0000 </r>
       <r>    1.2060    0.0000 </r>
       <r>    1.2781    0.0000 </r>
       <r>    1.2796    0.0000 </r>
       <r>    1.3768    0.0000 </r>
       <r>    1.4446    0.0000 </r>
       <r>    1.5349    0.0000 </r>
       <r>    1.5703    0.0000 </r>
       <r>    1.6381    0.0000 </r>
       <r>    1.6723    0.0000 </r>
       <r>    1.7578    0.0000 </r>
       <r>    1.8760    0.0000 </r>
       <r>    1.9712    0.0000 </r>
       <r>    2.0330    0.0000 </r>
       <r>    2.1382    0.0000 </r>
       <r>    2.1792    0.0000 </r>
       <r>    2.2905    0.0000 </r>
       <r>    2.3230    0.0000 </r>
       <r>    2.3761    0.0000 </r>
       <r>    2.4604    0.0000 </r>
       <r>    2.5025    0.0000 </r>
       <r>    2.5659    0.0000 </r>
       <r>    2.6492    0.0000 </r>
       <r>    2.7973    0.0000 </r>
       <r>    2.8818    0.0000 </r>
      </set>
      <set comment="kpoint 8">
       <r>  -28.6281    1.0000 </r>
       <r>  -28.6278    1.0000 </r>
       <r>  -27.6487    1.0000 </r>
       <r>  -27.6483    1.0000 </r>
       <r>  -27.6326    1.0000 </r>
       <r>  -27.6311    1.0000 </r>
       <r>  -27.5820    1.0000 </r>
       <r>  -27.5818    1.0000 </r>
       <r>  -27.4892    1.0000 </r>
       <r>  -27.4889    1.0000 </r>
       <r>  -27.4556    1.0000 </r>
       <r>  -27.4544    1.0000 </r>
       <r>  -14.0046    1.0000 </r>
       <r>  -14.0042    1.0000 </r>
       <r>  -13.9355    1.0000 </r>
       <r>  -13.9351    1.0000 </r>
       <r>  -13.8537    1.0000 </r>
       <r>  -13.8534    1.0000 </r>
       <r>  -13.2816    1.0000 </r>
       <r>  -13.2402    1.0000 </r>
       <r>  -13.1878    1.0000 </r>
       <r>  -13.1485    1.0000 </r>
       <r>  -13.1079    1.0000 </r>
       <r>  -13.0972    1.0000 </r>
       <r>  -13.0708    1.0000 </r>
       <r>  -13.0633    1.0000 </r>
       <r>  -13.0494    1.0000 </r>
       <r>  -13.0389    1.0000 </r>
       <r>  -13.0312    1.0000 </r>
       <r>  -13.0251    1.0000 </r>
       <r>  -13.0111    1.0000 </r>
       <r>  -12.9956    1.0000 </r>
       <r>  -12.9614    1.0000 </r>
       <r>  -12.9542    1.0000 </r>
       <r>  -12.9257    1.0000 </r>
       <r>  -12.9207    1.0000 </r>
       <r>  -12.8437    1.0000 </r>
       <r>  -12.8312    1.0000 </r>
       <r>  -12.7874    1.0000 </r>
       <r>  -12.7825    1.0000 </r>
       <r>  -12.7742    1.0000 </r>
       <r>  -12.7678    1.0000 </r>
       <r>  -12.7540    1.0000 </r>
       <r>  -12.7475    1.0000 </r>
       <r>  -12.7346    1.0000 </r>
       <r>  -12.7328    1.0000 </r>
       <r>  -12.7155    1.0000 </r>
       <r>  -12.7123    1.0000 </r>
       <r>  -10.7756    1.0000 </r>
       <r>  -10.6205    1.0000 </r>
       <r>  -10.5989    1.0000 </r>
       <r>  -10.5784    1.0000 </r>
       <r>  -10.1963    1.0000 </r>
       <r>  -10.1918    1.0000 </r>
       <r>   -6.1496    1.0000 </r>
       <r>   -6.0388    1.0000 </r>
       <r>   -6.0238    1.0000 </r>
       <r>   -5.9352    1.0000 </r>
       <r>   -5.8627    1.0000 </r>
       <r>   -5.8230    1.0000 </r>
       <r>   -5.8183    1.0000 </r>
       <r>   -5.8128    1.0000 </r>
       <r>   -5.7908    1.0000 </r>
       <r>   -5.7448    1.0000 </r>
       <r>   -5.6892    1.0000 </r>
       <r>   -5.6726    1.0000 </r>
       <r>   -5.4918    1.0000 </r>
       <r>   -5.4671    1.0000 </r>
       <r>   -5.4313    1.0000 </r>
       <r>   -5.4087    1.0000 </r>
       <r>   -5.2670    1.0000 </r>
       <r>   -5.2318    1.0000 </r>
       <r>   -3.1081    1.0000 </r>
       <r>   -2.6709    1.0000 </r>
       <r>   -2.4654    1.0000 </r>
       <r>   -2.4231    1.0000 </r>
       <r>   -2.3065    1.0000 </r>
       <r>   -2.1866    1.0000 </r>
       <r>   -2.0099    1.0000 </r>
       <r>   -1.9536    1.0000 </r>
       <r>   -1.8865    1.0000 </r>
       <r>   -1.7654    1.0000 </r>
       <r>   -1.7345    1.0000 </r>
       <r>   -1.6677    1.0000 </r>
       <r>   -1.6312    1.0000 </r>
       <r>   -1.5602    1.0000 </r>
       <r>   -1.5544    1.0000 </r>
       <r>   -1.4780    1.0000 </r>
       <r>   -1.4283    1.0000 </r>
       <r>   -1.4277    1.0000 </r>
       <r>   -1.3097    1.0000 </r>
       <r>   -1.2930    1.0000 </r>
       <r>   -1.1902    1.0000 </r>
       <r>   -1.1404    1.0000 </r>
       <r>   -1.0641    1.0000 </r>
       <r>   -1.0015    1.0000 </r>
       <r>   -0.9629    1.0000 </r>
       <r>   -0.9316    1.0000 </r>
       <r>   -0.8695    1.0000 </r>
       <r>   -0.8291    1.0000 </r>
       <r>   -0.7634    1.0000 </r>
       <r>   -0.7145    1.0000 </r>
       <r>   -0.6703    1.0000 </r>
       <r>   -0.5689    1.0000 </r>
       <r>   -0.4523    1.0000 </r>
       <r>   -0.4380    1.0000 </r>
       <r>   -0.3388    1.0000 </r>
       <r>   -0.2859    1.0000 </r>
       <r>    0.8410    0.0000 </r>
       <r>    0.9871    0.0000 </r>
       <r>    0.9990    0.0000 </r>
       <r>    1.1353    0.0000 </r>
       <r>    1.2078    0.0000 </r>
       <r>    1.2462    0.0000 </r>
       <r>    1.2773    0.0000 </r>
       <r>    1.3793    0.0000 </r>
       <r>    1.4489    0.0000 </r>
       <r>    1.5220    0.0000 </r>
       <r>    1.5870    0.0000 </r>
       <r>    1.6579    0.0000 </r>
       <r>    1.6594    0.0000 </r>
       <r>    1.7690    0.0000 </r>
       <r>    1.8588    0.0000 </r>
       <r>    1.9706    0.0000 </r>
       <r>    2.0539    0.0000 </r>
       <r>    2.1115    0.0000 </r>
       <r>    2.1409    0.0000 </r>
       <r>    2.2931    0.0000 </r>
       <r>    2.3223    0.0000 </r>
       <r>    2.3398    0.0000 </r>
       <r>    2.4086    0.0000 </r>
[...]
       <r>   -1.4511    1.0000 </r>
       <r>   -1.4490    1.0000 </r>
       <r>   -1.4301    1.0000 </r>
       <r>   -1.2496    1.0000 </r>
       <r>   -1.1822    1.0000 </r>
       <r>   -1.1733    1.0000 </r>
       <r>   -1.1157    1.0000 </r>
       <r>   -1.1009    1.0000 </r>
       <r>   -1.0287    1.0000 </r>
       <r>   -1.0185    1.0000 </r>
       <r>   -0.8487    1.0000 </r>
       <r>   -0.7319    1.0000 </r>
       <r>   -0.7303    1.0000 </r>
       <r>   -0.7202    1.0000 </r>
       <r>   -0.6918    1.0000 </r>
       <r>   -0.6398    1.0000 </r>
       <r>   -0.6342    1.0000 </r>
       <r>   -0.4419    1.0000 </r>
       <r>   -0.4183    1.0000 </r>
       <r>   -0.3350    1.0000 </r>
       <r>   -0.2965    1.0000 </r>
       <r>    1.0031    0.0000 </r>
       <r>    1.0541    0.0000 </r>
       <r>    1.1374    0.0000 </r>
       <r>    1.1504    0.0000 </r>
       <r>    1.1727    0.0000 </r>
       <r>    1.2945    0.0000 </r>
       <r>    1.3496    0.0000 </r>
       <r>    1.3767    0.0000 </r>
       <r>    1.4083    0.0000 </r>
       <r>    1.5256    0.0000 </r>
       <r>    1.5976    0.0000 </r>
       <r>    1.6384    0.0000 </r>
       <r>    1.7847    0.0000 </r>
       <r>    1.8159    0.0000 </r>
       <r>    1.8376    0.0000 </r>
       <r>    1.9177    0.0000 </r>
       <r>    2.0630    0.0000 </r>
       <r>    2.1474    0.0000 </r>
       <r>    2.2370    0.0000 </r>
       <r>    2.2392    0.0000 </r>
       <r>    2.3422    0.0000 </r>
       <r>    2.3931    0.0000 </r>
       <r>    2.5544    0.0000 </r>
       <r>    2.5571    0.0000 </r>
       <r>    2.7429    0.0000 </r>
       <r>    2.7925    0.0000 </r>
       <r>    2.8078    0.0000 </r>
       <r>    2.8332    0.0000 </r>
      </set>
     </set>
    </set>
   </array>
  </eigenvalues>
  <separator name="orbital magnetization" >
   <v name="MAGDIPOLOUT">      0.00000000      0.00000000      0.00000000</v>
  </separator>
  <dos>
   <i name="efermi">     -0.21072633 </i>
   <total>
    <array>
     <dimension dim="1">gridpoints</dimension>
     <dimension dim="2">spin</dimension>
     <field>energy</field>
     <field>total</field>
     <field>integrated</field>
     <set>
      <set comment="spin 1">
       <r>   -30.2059     0.0000     0.0000 </r>
       <r>   -30.0902     0.0000     0.0000 </r>
       <r>   -29.9745     0.0000     0.0000 </r>
       <r>   -29.8588     0.0000     0.0000 </r>
       <r>   -29.7431     0.0000     0.0000 </r>
       <r>   -29.6274     0.0000     0.0000 </r>
       <r>   -29.5117     0.0000     0.0000 </r>
       <r>   -29.3960     0.0000     0.0000 </r>
       <r>   -29.2803     0.0000     0.0000 </r>
       <r>   -29.1646     0.0000     0.0000 </r>
       <r>   -29.0489     0.0000     0.0000 </r>
       <r>   -28.9332     0.0000     0.0000 </r>
       <r>   -28.8175     0.0000     0.0000 </r>
       <r>   -28.7018     0.0000     0.0000 </r>
       <r>   -28.5861    34.5722     4.0000 </r>
       <r>   -28.4704     0.0000     4.0000 </r>
       <r>   -28.3547     0.0000     4.0000 </r>
       <r>   -28.2390     0.0000     4.0000 </r>
       <r>   -28.1233     0.0000     4.0000 </r>
       <r>   -28.0076     0.0000     4.0000 </r>
       <r>   -27.8919     0.0000     4.0000 </r>
       <r>   -27.7762     0.0000     4.0000 </r>
       <r>   -27.6605     1.4839     4.1717 </r>
       <r>   -27.5448    34.5722    16.0000 </r>
       <r>   -27.4291    69.1403    23.9995 </r>
       <r>   -27.3134     0.0000    24.0000 </r>
       <r>   -27.1977     0.0000    24.0000 </r>
       <r>   -27.0820     0.0000    24.0000 </r>
       <r>   -26.9663     0.0000    24.0000 </r>
       <r>   -26.8506     0.0000    24.0000 </r>
       <r>   -26.7349     0.0000    24.0000 </r>
       <r>   -26.6192     0.0000    24.0000 </r>
       <r>   -26.5035     0.0000    24.0000 </r>
       <r>   -26.3878     0.0000    24.0000 </r>
       <r>   -26.2721     0.0000    24.0000 </r>
       <r>   -26.1564     0.0000    24.0000 </r>
       <r>   -26.0407     0.0000    24.0000 </r>
       <r>   -25.9250     0.0000    24.0000 </r>
       <r>   -25.8093     0.0000    24.0000 </r>
       <r>   -25.6936     0.0000    24.0000 </r>
       <r>   -25.5779     0.0000    24.0000 </r>
       <r>   -25.4622     0.0000    24.0000 </r>
       <r>   -25.3465     0.0000    24.0000 </r>
       <r>   -25.2308     0.0000    24.0000 </r>
       <r>   -25.1151     0.0000    24.0000 </r>
       <r>   -24.9994     0.0000    24.0000 </r>
       <r>   -24.8837     0.0000    24.0000 </r>
       <r>   -24.7680     0.0000    24.0000 </r>
       <r>   -24.6523     0.0000    24.0000 </r>
       <r>   -24.5366     0.0000    24.0000 </r>
       <r>   -24.4209     0.0000    24.0000 </r>
       <r>   -24.3052     0.0000    24.0000 </r>
       <r>   -24.1895     0.0000    24.0000 </r>
       <r>   -24.0738     0.0000    24.0000 </r>
       <r>   -23.9581     0.0000    24.0000 </r>
       <r>   -23.8424     0.0000    24.0000 </r>
       <r>   -23.7267     0.0000    24.0000 </r>
       <r>   -23.6110     0.0000    24.0000 </r>
       <r>   -23.4953     0.0000    24.0000 </r>
       <r>   -23.3796     0.0000    24.0000 </r>
       <r>   -23.2639     0.0000    24.0000 </r>
       <r>   -23.1482     0.0000    24.0000 </r>
       <r>   -23.0325     0.0000    24.0000 </r>
       <r>   -22.9168     0.0000    24.0000 </r>
       <r>   -22.8011     0.0000    24.0000 </r>
       <r>   -22.6854     0.0000    24.0000 </r>
       <r>   -22.5697     0.0000    24.0000 </r>
       <r>   -22.4540     0.0000    24.0000 </r>
       <r>   -22.3383     0.0000    24.0000 </r>
       <r>   -22.2226     0.0000    24.0000 </r>
       <r>   -22.1069     0.0000    24.0000 </r>
       <r>   -21.9912     0.0000    24.0000 </r>
       <r>   -21.8755     0.0000    24.0000 </r>
       <r>   -21.7598     0.0000    24.0000 </r>
       <r>   -21.6441     0.0000    24.0000 </r>
       <r>   -21.5284     0.0000    24.0000 </r>
       <r>   -21.4127     0.0000    24.0000 </r>
       <r>   -21.2970     0.0000    24.0000 </r>
       <r>   -21.1813     0.0000    24.0000 </r>
       <r>   -21.0656     0.0000    24.0000 </r>
       <r>   -20.9499     0.0000    24.0000 </r>
       <r>   -20.8342     0.0000    24.0000 </r>
       <r>   -20.7185     0.0000    24.0000 </r>
       <r>   -20.6028     0.0000    24.0000 </r>
       <r>   -20.4871     0.0000    24.0000 </r>
       <r>   -20.3714     0.0000    24.0000 </r>
       <r>   -20.2557     0.0000    24.0000 </r>
       <r>   -20.1400     0.0000    24.0000 </r>
       <r>   -20.0243     0.0000    24.0000 </r>
       <r>   -19.9086     0.0000    24.0000 </r>
       <r>   -19.7929     0.0000    24.0000 </r>
       <r>   -19.6772     0.0000    24.0000 </r>
       <r>   -19.5615     0.0000    24.0000 </r>
       <r>   -19.4458     0.0000    24.0000 </r>
       <r>   -19.3301     0.0000    24.0000 </r>
       <r>   -19.2144     0.0000    24.0000 </r>
       <r>   -19.0987     0.0000    24.0000 </r>
       <r>   -18.9830     0.0000    24.0000 </r>
       <r>   -18.8673     0.0000    24.0000 </r>
       <r>   -18.7516     0.0000    24.0000 </r>
       <r>   -18.6359     0.0000    24.0000 </r>
       <r>   -18.5202     0.0000    24.0000 </r>
       <r>   -18.4045     0.0000    24.0000 </r>
       <r>   -18.2888     0.0000    24.0000 </r>
       <r>   -18.1731     0.0000    24.0000 </r>
       <r>   -18.0574     0.0000    24.0000 </r>
       <r>   -17.9417     0.0000    24.0000 </r>
       <r>   -17.8260     0.0000    24.0000 </r>
       <r>   -17.7103     0.0000    24.0000 </r>
       <r>   -17.5946     0.0000    24.0000 </r>
       <r>   -17.4789     0.0000    24.0000 </r>
       <r>   -17.3632     0.0000    24.0000 </r>
       <r>   -17.2475     0.0000    24.0000 </r>
       <r>   -17.1318     0.0000    24.0000 </r>
       <r>   -17.0161     0.0000    24.0000 </r>
       <r>   -16.9004     0.0000    24.0000 </r>
       <r>   -16.7847     0.0000    24.0000 </r>
       <r>   -16.6690     0.0000    24.0000 </r>
       <r>   -16.5533     0.0000    24.0000 </r>
       <r>   -16.4376     0.0000    24.0000 </r>
       <r>   -16.3219     0.0000    24.0000 </r>
       <r>   -16.2062     0.0000    24.0000 </r>
       <r>   -16.0905     0.0000    24.0000 </r>
       <r>   -15.9748     0.0000    24.0000 </r>
       <r>   -15.8591     0.0000    24.0000 </r>
       <r>   -15.7434     0.0000    24.0000 </r>
       <r>   -15.6277     0.0000    24.0000 </r>
       <r>   -15.5120     0.0000    24.0000 </r>
       <r>   -15.3963     0.0000    24.0000 </r>
       <r>   -15.2806     0.0000    24.0000 </r>
       <r>   -15.1649     0.0000    24.0000 </r>
       <r>   -15.0492     0.0000    24.0000 </r>
       <r>   -14.9335     0.0000    24.0000 </r>
       <r>   -14.8178     0.0000    24.0000 </r>
       <r>   -14.7021     0.0000    24.0000 </r>
       <r>   -14.5864     0.0000    24.0000 </r>
       <r>   -14.4707     0.0000    24.0000 </r>
       <r>   -14.3550     0.0000    24.0000 </r>
       <r>   -14.2393     0.0000    24.0000 </r>
       <r>   -14.1236     0.0000    24.0000 </r>
       <r>   -14.0079     8.6090    24.9961 </r>
       <r>   -13.8922    34.8746    32.0350 </r>
       <r>   -13.7765    16.4218    36.0000 </r>
       <r>   -13.6608     0.0000    36.0000 </r>
       <r>   -13.5451     0.0000    36.0000 </r>
       <r>   -13.4294     0.0000    36.0000 </r>
       <r>   -13.3137     0.0000    36.0000 </r>
       <r>   -13.1980    43.9491    41.6099 </r>
       <r>   -13.0823    60.6284    49.4147 </r>
       <r>   -12.9666    93.5904    64.9784 </r>
       <r>   -12.8509    29.9921    72.6951 </r>
       <r>   -12.7352   106.3932    88.3097 </r>
       <r>   -12.6195     0.0000    96.0000 </r>
       <r>   -12.5038     0.0000    96.0000 </r>
       <r>   -12.3881     0.0000    96.0000 </r>
       <r>   -12.2724     0.0000    96.0000 </r>
       <r>   -12.1567     0.0000    96.0000 </r>
       <r>   -12.0410     0.0000    96.0000 </r>
       <r>   -11.9253     0.0000    96.0000 </r>
       <r>   -11.8096     0.0000    96.0000 </r>
       <r>   -11.6939     0.0000    96.0000 </r>
       <r>   -11.5782     0.0000    96.0000 </r>
       <r>   -11.4625     0.0000    96.0000 </r>
       <r>   -11.3468     0.0000    96.0000 </r>
       <r>   -11.2311     0.0000    96.0000 </r>
       <r>   -11.1154     0.0000    96.0000 </r>
       <r>   -10.9997     0.0000    96.0000 </r>
       <r>   -10.8840     0.0000    96.0000 </r>
       <r>   -10.7683     4.6496    96.5380 </r>
       <r>   -10.6526     9.6478    97.8163 </r>
       <r>   -10.5369    31.6896   103.8165 </r>
       <r>   -10.4212     0.0000   104.0000 </r>
       <r>   -10.3055     0.0000   104.0000 </r>
       <r>   -10.1898    16.3012   105.8860 </r>
       <r>   -10.0741    12.9646   108.0000 </r>
       <r>    -9.9584     0.0000   108.0000 </r>
       <r>    -9.8427     0.0000   108.0000 </r>
       <r>    -9.7270     0.0000   108.0000 </r>
       <r>    -9.6113     0.0000   108.0000 </r>
       <r>    -9.4956     0.0000   108.0000 </r>
       <r>    -9.3799     0.0000   108.0000 </r>
       <r>    -9.2642     0.0000   108.0000 </r>
       <r>    -9.1485     0.0000   108.0000 </r>
       <r>    -9.0328     0.0000   108.0000 </r>
       <r>    -8.9171     0.0000   108.0000 </r>
       <r>    -8.8014     0.0000   108.0000 </r>
       <r>    -8.6857     0.0000   108.0000 </r>
       <r>    -8.5700     0.0000   108.0000 </r>
       <r>    -8.4543     0.0000   108.0000 </r>
       <r>    -8.3386     0.0000   108.0000 </r>
       <r>    -8.2229     0.0000   108.0000 </r>
       <r>    -8.1072     0.0000   108.0000 </r>
       <r>    -7.9915     0.0000   108.0000 </r>
       <r>    -7.8758     0.0000   108.0000 </r>
       <r>    -7.7601     0.0000   108.0000 </r>
       <r>    -7.6444     0.0000   108.0000 </r>
       <r>    -7.5287     0.0000   108.0000 </r>
       <r>    -7.4130     0.0000   108.0000 </r>
       <r>    -7.2973     0.0000   108.0000 </r>
       <r>    -7.1816     0.0000   108.0000 </r>
       <r>    -7.0659     0.0000   108.0000 </r>
       <r>    -6.9502     0.0000   108.0000 </r>
       <r>    -6.8345     0.0000   108.0000 </r>
       <r>    -6.7188     0.0000   108.0000 </r>
       <r>    -6.6031     0.0000   108.0000 </r>
       <r>    -6.4874     0.0000   108.0000 </r>
       <r>    -6.3717     0.0000   108.0000 </r>
       <r>    -6.2560     0.0001   108.0000 </r>
       <r>    -6.1403    16.1325   110.0915 </r>
       <r>    -6.0246    16.2668   112.9821 </r>
       <r>    -5.9089     6.4350   115.9695 </r>
       <r>    -5.7932    48.1781   122.1742 </r>
       <r>    -5.6775    56.6397   129.7282 </r>
       <r>    -5.5618    12.5982   132.1826 </r>
       <r>    -5.4461    11.0598   134.3796 </r>
       <r>    -5.3304    45.2903   140.6901 </r>
       <r>    -5.2147     5.3419   142.4181 </r>
       <r>    -5.0990    10.5877   144.0000 </r>
       <r>    -4.9833     0.0000   144.0000 </r>
       <r>    -4.8676     0.0000   144.0000 </r>
       <r>    -4.7519     0.0000   144.0000 </r>
       <r>    -4.6362     0.0000   144.0000 </r>
       <r>    -4.5205     0.0000   144.0000 </r>
       <r>    -4.4048     0.0000   144.0000 </r>
       <r>    -4.2891     0.0000   144.0000 </r>
       <r>    -4.1734     0.0000   144.0000 </r>
       <r>    -4.0577     0.0000   144.0000 </r>
       <r>    -3.9420     0.0000   144.0000 </r>
       <r>    -3.8263     0.0000   144.0000 </r>
       <r>    -3.7106     0.0000   144.0000 </r>
       <r>    -3.5949     0.0000   144.0000 </r>
       <r>    -3.4792     0.0000   144.0000 </r>
       <r>    -3.3635     1.2440   144.1439 </r>
       <r>    -3.2478     1.2409   144.3686 </r>
       <r>    -3.1321     0.7532   144.5121 </r>
       <r>    -3.0164     0.6449   144.6496 </r>
       <r>    -2.9007     2.3899   144.9515 </r>
       <r>    -2.7850     4.4296   145.7625 </r>
       <r>    -2.6693     1.1693   146.0103 </r>
       <r>    -2.5536    11.3843   147.3922 </r>
       <r>    -2.4379    10.7922   149.2487 </r>
       <r>    -2.3222     7.3905   150.5801 </r>
       <r>    -2.2065    15.6863   153.3399 </r>
       <r>    -2.0908    23.3888   157.6561 </r>
       <r>    -1.9751     7.6734   159.1128 </r>
       <r>    -1.8594    13.0251   161.5070 </r>
       <r>    -1.7437    17.2092   164.7161 </r>
       <r>    -1.6280    27.1094   169.0616 </r>
       <r>    -1.5123    33.3008   174.5029 </r>
       <r>    -1.3966    36.3194   180.4522 </r>
       <r>    -1.2809    18.5338   183.4944 </r>
       <r>    -1.1653    20.9636   186.9255 </r>
       <r>    -1.0496    22.3318   190.6838 </r>
       <r>    -0.9339    17.4621   194.6454 </r>
       <r>    -0.8182    23.3850   198.1806 </r>
       <r>    -0.7025    32.9700   202.7396 </r>
       <r>    -0.5868    19.3417   206.3628 </r>
       <r>    -0.4711    16.1796   209.7470 </r>
       <r>    -0.3554    35.9031   214.5290 </r>
       <r>    -0.2397     4.3215   216.0000 </r>
       <r>    -0.1240     0.0000   216.0000 </r>
       <r>    -0.0083     0.0000   216.0000 </r>
       <r>     0.1074     0.0000   216.0000 </r>
       <r>     0.2231     0.0000   216.0000 </r>
       <r>     0.3388     0.0000   216.0000 </r>
       <r>     0.4545     0.0000   216.0000 </r>
       <r>     0.5702     0.0000   216.0000 </r>
       <r>     0.6859    11.3217   217.3099 </r>
       <r>     0.8016     3.7069   217.8539 </r>
       <r>     0.9173     6.3867   219.0139 </r>
       <r>     1.0330    13.4843   221.3601 </r>
       <r>     1.1487    17.0886   224.0272 </r>
       <r>     1.2644    14.2691   227.1259 </r>
       <r>     1.3801    26.7296   231.5926 </r>
       <r>     1.4958    13.4925   234.7361 </r>
       <r>     1.6115    19.6349   238.1218 </r>
       <r>     1.7272    20.3967   241.6099 </r>
       <r>     1.8429    17.3915   244.2622 </r>
       <r>     1.9586    29.6532   248.8309 </r>
       <r>     2.0743    18.8109   251.9764 </r>
       <r>     2.1900    22.9192   255.1517 </r>
       <r>     2.3057    16.9406   258.1850 </r>
       <r>     2.4214    20.2253   262.1151 </r>
       <r>     2.5371    18.4658   265.0615 </r>
       <r>     2.6528    14.7152   267.9026 </r>
       <r>     2.7685    10.5673   269.9226 </r>
       <r>     2.8842    11.3257   271.7354 </r>
       <r>     2.9999     0.2161   272.0000 </r>
       <r>     3.1156     0.0000   272.0000 </r>
       <r>     3.2313     0.0000   272.0000 </r>
       <r>     3.3470     0.0000   272.0000 </r>
       <r>     3.4627     0.0000   272.0000 </r>
       <r>     3.5784     0.0000   272.0000 </r>
       <r>     3.6941     0.0000   272.0000 </r>
       <r>     3.8098     0.0000   272.0000 </r>
       <r>     3.9255     0.0000   272.0000 </r>
       <r>     4.0412     0.0000   272.0000 </r>
       <r>     4.1569     0.0000   272.0000 </r>
       <r>     4.2726     0.0000   272.0000 </r>
       <r>     4.3883     0.0000   272.0000 </r>
       <r>     4.5040     0.0000   272.0000 </r>
      </set>
     </set>
    </array>
   </total>
  </dos>
 </calculation>
 <structure name="finalpos" >
  <crystal>
   <varray name="basis" >
    <v>      28.44138915       0.00000000       0.00000000 </v>
    <v>       0.00000000       6.61705665       0.00000000 </v>
    <v>       0.00000000       0.00000000      11.34438396 </v>
   </varray>
   <i name="volume">   2134.99358715 </i>
   <varray name="rec_basis" >
    <v>       0.03516003       0.00000000       0.00000000 </v>
    <v>       0.00000000       0.15112459       0.00000000 </v>
    <v>       0.00000000       0.00000000       0.08814934 </v>
   </varray>
  </crystal>
  <varray name="positions" >
   <v>       0.01060286       0.25000000       0.69827137 </v>
   <v>       0.14850228       0.75000002       0.19183199 </v>
   <v>       0.16304924       0.25000000       0.80896652 </v>
   <v>       0.32544407       0.25000000       0.69183206 </v>
   <v>       0.31089711       0.75000002       0.30896648 </v>
   <v>       0.46334350       0.75000002       0.19827131 </v>
   <v>       0.06793721       0.75000002       0.91146178 </v>
   <v>       0.10913646       0.25000000       0.39543199 </v>
   <v>       0.21039420       0.75000002       0.59496628 </v>
   <v>       0.36480990       0.75000002       0.89543191 </v>
   <v>       0.26355215       0.25000000       0.09496630 </v>
   <v>       0.40600914       0.25000000       0.41146186 </v>
   <v>       0.05559849       0.06930292       0.14722281 </v>
   <v>       0.09829373       0.93042433       0.64048621 </v>
   <v>       0.21716475       0.06708865       0.35291513 </v>
   <v>       0.05559849       0.43069707       0.14722281 </v>
   <v>       0.21716475       0.43291134       0.35291513 </v>
   <v>       0.09829373       0.56957567       0.64048621 </v>
   <v>       0.37565264       0.06957566       0.14048619 </v>
   <v>       0.25678160       0.93291134       0.85291513 </v>
   <v>       0.41834785       0.93069707       0.64722283 </v>
   <v>       0.25678160       0.56708866       0.85291513 </v>
   <v>       0.37565264       0.43042433       0.14048619 </v>
   <v>       0.41834785       0.56930293       0.64722283 </v>
   <v>       0.02395209       0.75000002       0.61731658 </v>
   <v>       0.12737317       0.25000000       0.08260823 </v>
   <v>       0.18705445       0.75000002       0.90927344 </v>
   <v>       0.34657319       0.75000002       0.58260829 </v>
   <v>       0.28689191       0.25000000       0.40927340 </v>
   <v>       0.44999425       0.25000000       0.11731652 </v>
   <v>       0.05573958       0.25000000       0.96274397 </v>
   <v>       0.08158949       0.75000002       0.45887610 </v>
   <v>       0.21911849       0.25000000       0.53739235 </v>
   <v>       0.39235688       0.25000000       0.95887618 </v>
   <v>       0.25482786       0.75000002       0.03739236 </v>
   <v>       0.41820675       0.75000002       0.46274389 </v>
  </varray>
 </structure>
</modeling>
