<?xml version="1.0" encoding="ISO-8859-1"?>
<modeling>
 <generator>
  <i name="program" type="string">vasp </i>
  <i name="version" type="string">5.4.4.18Apr17-6-g9f103f2a35  </i>
  <i name="subversion" type="string">(build Nov 21 2017 15:30:27) complex            parallel </i>
  <i name="platform" type="string">LinuxIFC </i>
  <i name="date" type="string">2021 03 17 </i>
  <i name="time" type="string">16:31:46 </i>
 </generator>
 <incar>
  <i type="string" name="PREC">normal</i>
  <i type="int" name="ICHARG">    11</i>
  <i type="int" name="NELM">   100</i>
  <i name="EDIFF">      0.00000100</i>
  <i name="EDIFFG">     -0.01000000</i>
  <i name="ENCUT">    500.00000000</i>
  <i name="POTIM">      0.30000000</i>
  <i type="string" name="LREAL"> Auto       ! Projection in reciprocal s</i>
  <i type="int" name="ISMEAR">     0</i>
  <i name="SIGMA">      0.01000000</i>
  <i type="logical" name="LWAVE"> T  </i>
  <i type="logical" name="LCHARG"> T  </i>
  <i type="logical" name="LASPH"> T  </i>
  <v type="int" name="KPOINT_BSE">    -1     0     0     0</v>
  <i type="int" name="NELM">   100</i>
  <i type="string" name="GGA"> MK</i>
  <i name="PARAM1">      0.12340000</i>
  <i name="PARAM2">      0.71135700</i>
  <i type="logical" name="LUSE_VDW"> T  </i>
  <i name="Zab_VDW">     -1.88670000</i>
  <i name="AGGAC">      0.00000000</i>
  <i type="logical" name="LASPH"> T  </i>
 </incar>
 <structure name="primitive_cell" >
  <crystal>
   <varray name="basis" >
    <v>      64.05652147       0.00000000       0.00000000 </v>
    <v>       0.00000000       6.69415221       0.00000000 </v>
    <v>       0.00000000       0.00000000      11.46066234 </v>
   </varray>
   <i name="volume">   4914.37905373 </i>
   <varray name="rec_basis" >
    <v>       0.01561121       0.00000000       0.00000000 </v>
    <v>       0.00000000       0.14938411       0.00000000 </v>
    <v>       0.00000000       0.00000000       0.08725499 </v>
   </varray>
  </crystal>
  <varray name="positions" >
   <v>       0.00512463       0.25000000      -0.29905001 </v>
   <v>       0.02555811       0.25000000      -0.03729481 </v>
   <v>       0.04337256      -0.42875908      -0.35810411 </v>
   <v>       0.04337256      -0.07124092      -0.35810411 </v>
   <v>       0.01036963      -0.24999998      -0.38193385 </v>
   <v>       0.02992874      -0.24999998      -0.08793220 </v>
   <v>       0.04826849       0.25000000       0.39563571 </v>
   <v>       0.07234683       0.25000000      -0.19161684 </v>
   <v>       0.03619961      -0.24999998       0.46168525 </v>
   <v>       0.02532033       0.42864919       0.14548879 </v>
   <v>       0.02532033       0.07135080       0.14548879 </v>
   <v>       0.05727291       0.25000000       0.08260040 </v>
   <v>       0.09700610       0.25000000      -0.46463121 </v>
   <v>       0.08236480      -0.24999998      -0.09107246 </v>
   <v>       0.09252616      -0.24999998      -0.40486028 </v>
   <v>       0.09649192       0.43058643       0.35311564 </v>
   <v>       0.09649192       0.06941356       0.35311564 </v>
   <v>       0.11346781      -0.43026902      -0.14584004 </v>
   <v>       0.11346781      -0.06973098      -0.14584004 </v>
   <v>       0.06596815      -0.24999998       0.19289834 </v>
   <v>       0.11660403       0.25000000       0.09312781 </v>
   <v>       0.12772718       0.25000000       0.40812269 </v>
   <v>       0.11241582      -0.24999998       0.03691460 </v>
   <v>       0.14196586       0.25000000      -0.30953307 </v>
   <v>       0.15126310      -0.24999998      -0.40888010 </v>
   <v>       0.13734084      -0.24999998       0.30813091 </v>
   <v>       0.16682245       0.25000000      -0.03601707 </v>
   <v>       0.16227051      -0.24999998      -0.09418763 </v>
   <v>       0.16621824       0.42989268       0.14585316 </v>
   <v>       0.16621824       0.07010731       0.14585316 </v>
   <v>       0.18261922      -0.42992735      -0.35460569 </v>
   <v>       0.18261922      -0.07007265      -0.35460569 </v>
   <v>       0.18204710      -0.24999998       0.46349480 </v>
   <v>       0.18701912       0.25000000       0.40507935 </v>
   <v>       0.19761006       0.25000000       0.09162537 </v>
   <v>       0.21156639       0.25000000      -0.19124291 </v>
   <v>       0.22103099      -0.24999998      -0.09195289 </v>
   <v>       0.20712534      -0.24999998       0.19107734 </v>
   <v>       0.23181217      -0.24999998      -0.40610726 </v>
   <v>       0.23675502       0.25000000      -0.46425780 </v>
   <v>       0.23621290       0.42990800       0.35369957 </v>
   <v>       0.23621290       0.07009199       0.35369957 </v>
   <v>       0.25237946      -0.42988545      -0.14639309 </v>
   <v>       0.25237946      -0.07011455      -0.14639309 </v>
   <v>      -0.24274021       0.25000000       0.11806609 </v>
   <v>       0.25181826      -0.24999998       0.03557850 </v>
   <v>       0.25668810       0.25000000       0.09403158 </v>
   <v>      -0.23749515      -0.24999998       0.20094993 </v>
   <v>      -0.25769089      -0.42864919      -0.35451119 </v>
   <v>      -0.25769089      -0.07135081      -0.35451119 </v>
   <v>       0.26756846       0.25000000       0.40835854 </v>
   <v>      -0.25792862      -0.24999998       0.46270510 </v>
   <v>      -0.26229930       0.25000000       0.41206788 </v>
   <v>       0.28141227       0.25000000      -0.30865670 </v>
   <v>      -0.26857016       0.25000000      -0.03831467 </v>
   <v>       0.27691591      -0.24999998       0.30862809 </v>
   <v>       0.29077395      -0.24999998      -0.40822417 </v>
   <v>      -0.27574313       0.42875908       0.14189587 </v>
   <v>      -0.27574313       0.07124091       0.14189587 </v>
   <v>      -0.28063905      -0.24999998      -0.10436437 </v>
   <v>      -0.28964346      -0.24999998      -0.41739954 </v>
   <v>       0.30161379      -0.24999998      -0.09393214 </v>
   <v>      -0.29833869       0.25000000      -0.30710160 </v>
   <v>       0.30649648       0.25000000      -0.03543597 </v>
   <v>       0.30593290       0.42986879       0.14651301 </v>
   <v>       0.30593290       0.07013120       0.14651301 </v>
   <v>       0.32213182      -0.42989433      -0.35366669 </v>
   <v>       0.32213182      -0.07010567      -0.35366669 </v>
   <v>      -0.30471735      -0.24999998       0.30838312 </v>
   <v>       0.32156504      -0.24999998       0.46434621 </v>
   <v>      -0.31473532       0.25000000       0.40892750 </v>
   <v>       0.32655864       0.25000000       0.40602315 </v>
   <v>      -0.32886247      -0.43058643      -0.14688436 </v>
   <v>      -0.32886247      -0.06941357      -0.14688436 </v>
   <v>      -0.32489672       0.25000000       0.09513974 </v>
   <v>       0.33729617       0.25000000       0.09192465 </v>
   <v>      -0.32937661      -0.24999998       0.03536881 </v>
   <v>       0.35113744       0.25000000      -0.19117394 </v>
   <v>      -0.34478631       0.25000000      -0.46308541 </v>
   <v>       0.34667388      -0.24999998       0.19149451 </v>
   <v>      -0.34583833       0.43026902       0.35415996 </v>
   <v>      -0.34583833       0.06973097       0.35415996 </v>
   <v>      -0.34897454      -0.24999998      -0.40687221 </v>
   <v>       0.36051311      -0.24999998      -0.09167875 </v>
   <v>       0.37133126      -0.24999998      -0.40603212 </v>
   <v>      -0.36009767      -0.24999998      -0.09187727 </v>
   <v>       0.37630513       0.25000000      -0.46426735 </v>
   <v>      -0.36971139       0.25000000      -0.19186905 </v>
   <v>       0.37575519       0.42987569       0.35373064 </v>
   <v>       0.37575519       0.07012430       0.35373064 </v>
   <v>       0.39187428      -0.42987569      -0.14626936 </v>
   <v>       0.39187428      -0.07012431      -0.14626936 </v>
   <v>      -0.37433638      -0.24999998       0.19046687 </v>
   <v>       0.39132437      -0.24999998       0.03573267 </v>
   <v>      -0.38363362       0.25000000       0.09111984 </v>
   <v>       0.39629820       0.25000000       0.09396790 </v>
   <v>      -0.39464101       0.25000000       0.40581246 </v>
   <v>      -0.39858873      -0.42989268      -0.35414682 </v>
   <v>      -0.39858873      -0.07010732      -0.35414682 </v>
   <v>       0.40711638       0.25000000       0.40832121 </v>
   <v>      -0.39919296      -0.24999998       0.46398285 </v>
   <v>       0.42095562       0.25000000      -0.30850543 </v>
   <v>       0.41649203      -0.24999998       0.30882602 </v>
   <v>      -0.41441759       0.25000000      -0.03650512 </v>
   <v>      -0.41498973       0.42992735       0.14539429 </v>
   <v>      -0.41498973       0.07007264       0.14539429 </v>
   <v>       0.43033329      -0.24999998      -0.40807529 </v>
   <v>      -0.41938963      -0.24999998      -0.09492073 </v>
   <v>      -0.42998059      -0.24999998      -0.40837457 </v>
   <v>       0.44107083      -0.24999998      -0.09397693 </v>
   <v>       0.44606443       0.25000000      -0.03565371 </v>
   <v>      -0.43949582       0.25000000      -0.30892260 </v>
   <v>       0.44549764       0.42989433       0.14633329 </v>
   <v>       0.44549764       0.07010567       0.14633329 </v>
   <v>      -0.44393689      -0.24999998       0.30875705 </v>
   <v>       0.46169660      -0.42986879      -0.35348697 </v>
   <v>       0.46169660      -0.07013121      -0.35348697 </v>
   <v>       0.46113302      -0.24999998       0.46456395 </v>
   <v>      -0.45340152       0.25000000       0.40804707 </v>
   <v>       0.46601571       0.25000000       0.40606794 </v>
   <v>      -0.46418271       0.25000000       0.09389276 </v>
   <v>      -0.46858344      -0.42990800      -0.14630043 </v>
   <v>      -0.46858344      -0.07009200      -0.14630043 </v>
   <v>       0.47685549       0.25000000       0.09177577 </v>
   <v>      -0.46912554      -0.24999998       0.03574221 </v>
   <v>       0.49071353       0.25000000      -0.19137187 </v>
   <v>      -0.48418879       0.25000000      -0.46442152 </v>
   <v>       0.48621723      -0.24999998       0.19134324 </v>
   <v>      -0.48474996       0.42988545       0.35360691 </v>
   <v>      -0.48474996       0.07011455       0.35360691 </v>
   <v>      -0.48905860      -0.24999998      -0.40596844 </v>
   <v>      -0.49993903      -0.24999998      -0.09164142 </v>
  </varray>
 </structure>
 <varray name="primitive_index" >
  <v type="int" >        1 </v>
  <v type="int" >      111 </v>
  <v type="int" >       83 </v>
  <v type="int" >       56 </v>
  <v type="int" >       89 </v>
  <v type="int" >       23 </v>
  <v type="int" >       34 </v>
  <v type="int" >       18 </v>
  <v type="int" >      122 </v>
  <v type="int" >       72 </v>
  <v type="int" >       45 </v>
  <v type="int" >      100 </v>
  <v type="int" >      128 </v>
  <v type="int" >      106 </v>
  <v type="int" >       40 </v>
  <v type="int" >       78 </v>
  <v type="int" >       62 </v>
  <v type="int" >       67 </v>
  <v type="int" >       51 </v>
  <v type="int" >       12 </v>
  <v type="int" >       29 </v>
  <v type="int" >       95 </v>
  <v type="int" >      117 </v>
  <v type="int" >        2 </v>
  <v type="int" >       90 </v>
  <v type="int" >        7 </v>
  <v type="int" >      112 </v>
  <v type="int" >       24 </v>
  <v type="int" >       73 </v>
  <v type="int" >       46 </v>
  <v type="int" >       84 </v>
  <v type="int" >       57 </v>
  <v type="int" >      123 </v>
  <v type="int" >       35 </v>
  <v type="int" >      101 </v>
  <v type="int" >       19 </v>
  <v type="int" >      107 </v>
  <v type="int" >       13 </v>
  <v type="int" >       41 </v>
  <v type="int" >      129 </v>
  <v type="int" >       79 </v>
  <v type="int" >       63 </v>
  <v type="int" >       68 </v>
  <v type="int" >       52 </v>
  <v type="int" >      105 </v>
  <v type="int" >      118 </v>
  <v type="int" >       30 </v>
  <v type="int" >       17 </v>
  <v type="int" >       88 </v>
  <v type="int" >       61 </v>
  <v type="int" >       96 </v>
  <v type="int" >      127 </v>
  <v type="int" >       39 </v>
  <v type="int" >        3 </v>
  <v type="int" >      116 </v>
  <v type="int" >        8 </v>
  <v type="int" >       91 </v>
  <v type="int" >       77 </v>
  <v type="int" >       50 </v>
  <v type="int" >       28 </v>
  <v type="int" >       94 </v>
  <v type="int" >       25 </v>
  <v type="int" >        6 </v>
  <v type="int" >      113 </v>
  <v type="int" >       74 </v>
  <v type="int" >       47 </v>
  <v type="int" >       85 </v>
  <v type="int" >       58 </v>
  <v type="int" >       11 </v>
  <v type="int" >      124 </v>
  <v type="int" >       99 </v>
  <v type="int" >       36 </v>
  <v type="int" >       71 </v>
  <v type="int" >       55 </v>
  <v type="int" >       33 </v>
  <v type="int" >      102 </v>
  <v type="int" >      121 </v>
  <v type="int" >       20 </v>
  <v type="int" >      132 </v>
  <v type="int" >       14 </v>
  <v type="int" >       82 </v>
  <v type="int" >       66 </v>
  <v type="int" >       44 </v>
  <v type="int" >      108 </v>
  <v type="int" >       42 </v>
  <v type="int" >      110 </v>
  <v type="int" >      130 </v>
  <v type="int" >       22 </v>
  <v type="int" >       80 </v>
  <v type="int" >       64 </v>
  <v type="int" >       69 </v>
  <v type="int" >       53 </v>
  <v type="int" >       16 </v>
  <v type="int" >      119 </v>
  <v type="int" >      104 </v>
  <v type="int" >       31 </v>
  <v type="int" >       38 </v>
  <v type="int" >       87 </v>
  <v type="int" >       60 </v>
  <v type="int" >       97 </v>
  <v type="int" >      126 </v>
  <v type="int" >        4 </v>
  <v type="int" >        9 </v>
  <v type="int" >      115 </v>
  <v type="int" >       76 </v>
  <v type="int" >       49 </v>
  <v type="int" >       92 </v>
  <v type="int" >       27 </v>
  <v type="int" >       93 </v>
  <v type="int" >       26 </v>
  <v type="int" >      114 </v>
  <v type="int" >        5 </v>
  <v type="int" >       75 </v>
  <v type="int" >       48 </v>
  <v type="int" >       10 </v>
  <v type="int" >       86 </v>
  <v type="int" >       59 </v>
  <v type="int" >      125 </v>
  <v type="int" >       98 </v>
  <v type="int" >       37 </v>
  <v type="int" >       32 </v>
  <v type="int" >       70 </v>
  <v type="int" >       54 </v>
  <v type="int" >      103 </v>
  <v type="int" >      120 </v>
  <v type="int" >       21 </v>
  <v type="int" >      131 </v>
  <v type="int" >       15 </v>
  <v type="int" >       81 </v>
  <v type="int" >       65 </v>
  <v type="int" >       43 </v>
  <v type="int" >      109 </v>
 </varray>
 <kpoints>
  <generation param="listgenerated">
   <i name="divisions" type="int">      20 </i>
   <v>       0.00000000       0.00000000       0.00000000 </v>
   <v>       0.00000000       0.50000000       0.00000000 </v>
   <v>       0.00000000       0.50000000       0.50000000 </v>
   <v>       0.00000000       0.00000000       0.50000000 </v>
   <v>       0.00000000       0.00000000       0.00000000 </v>
  </generation>
  <varray name="kpointlist" >
   <v>       0.00000000       0.00000000       0.00000000 </v>
   <v>       0.00000000       0.02631579       0.00000000 </v>
   <v>       0.00000000       0.05263158       0.00000000 </v>
   <v>       0.00000000       0.07894737       0.00000000 </v>
   <v>       0.00000000       0.10526316       0.00000000 </v>
   <v>       0.00000000       0.13157895       0.00000000 </v>
   <v>       0.00000000       0.15789474       0.00000000 </v>
   <v>       0.00000000       0.18421053       0.00000000 </v>
   <v>       0.00000000       0.21052632       0.00000000 </v>
   <v>       0.00000000       0.23684211       0.00000000 </v>
   <v>       0.00000000       0.26315789       0.00000000 </v>
   <v>       0.00000000       0.28947368       0.00000000 </v>
   <v>       0.00000000       0.31578947       0.00000000 </v>
   <v>       0.00000000       0.34210526       0.00000000 </v>
   <v>       0.00000000       0.36842105       0.00000000 </v>
   <v>       0.00000000       0.39473684       0.00000000 </v>
   <v>       0.00000000       0.42105263       0.00000000 </v>
   <v>       0.00000000       0.44736842       0.00000000 </v>
   <v>       0.00000000       0.47368421       0.00000000 </v>
   <v>       0.00000000       0.50000000       0.00000000 </v>
   <v>       0.00000000       0.50000000       0.00000000 </v>
   <v>       0.00000000       0.50000000       0.02631579 </v>
   <v>       0.00000000       0.50000000       0.05263158 </v>
   <v>       0.00000000       0.50000000       0.07894737 </v>
   <v>       0.00000000       0.50000000       0.10526316 </v>
   <v>       0.00000000       0.50000000       0.13157895 </v>
   <v>       0.00000000       0.50000000       0.15789474 </v>
   <v>       0.00000000       0.50000000       0.18421053 </v>
   <v>       0.00000000       0.50000000       0.21052632 </v>
   <v>       0.00000000       0.50000000       0.23684211 </v>
   <v>       0.00000000       0.50000000       0.26315789 </v>
   <v>       0.00000000       0.50000000       0.28947368 </v>
   <v>       0.00000000       0.50000000       0.31578947 </v>
   <v>       0.00000000       0.50000000       0.34210526 </v>
   <v>       0.00000000       0.50000000       0.36842105 </v>
   <v>       0.00000000       0.50000000       0.39473684 </v>
   <v>       0.00000000       0.50000000       0.42105263 </v>
   <v>       0.00000000       0.50000000       0.44736842 </v>
   <v>       0.00000000       0.50000000       0.47368421 </v>
   <v>       0.00000000       0.50000000       0.50000000 </v>
   <v>       0.00000000       0.50000000       0.50000000 </v>
   <v>       0.00000000       0.47368421       0.50000000 </v>
   <v>       0.00000000       0.44736842       0.50000000 </v>
   <v>       0.00000000       0.42105263       0.50000000 </v>
   <v>       0.00000000       0.39473684       0.50000000 </v>
   <v>       0.00000000       0.36842105       0.50000000 </v>
   <v>       0.00000000       0.34210526       0.50000000 </v>
   <v>       0.00000000       0.31578947       0.50000000 </v>
   <v>       0.00000000       0.28947368       0.50000000 </v>
   <v>       0.00000000       0.26315789       0.50000000 </v>
   <v>       0.00000000       0.23684211       0.50000000 </v>
   <v>       0.00000000       0.21052632       0.50000000 </v>
   <v>       0.00000000       0.18421053       0.50000000 </v>
   <v>       0.00000000       0.15789474       0.50000000 </v>
   <v>       0.00000000       0.13157895       0.50000000 </v>
   <v>       0.00000000       0.10526316       0.50000000 </v>
   <v>       0.00000000       0.07894737       0.50000000 </v>
   <v>       0.00000000       0.05263158       0.50000000 </v>
   <v>       0.00000000       0.02631579       0.50000000 </v>
   <v>       0.00000000       0.00000000       0.50000000 </v>
   <v>       0.00000000       0.00000000       0.50000000 </v>
   <v>       0.00000000       0.00000000       0.47368421 </v>
   <v>       0.00000000       0.00000000       0.44736842 </v>
   <v>       0.00000000       0.00000000       0.42105263 </v>
   <v>       0.00000000       0.00000000       0.39473684 </v>
   <v>       0.00000000       0.00000000       0.36842105 </v>
   <v>       0.00000000       0.00000000       0.34210526 </v>
   <v>       0.00000000       0.00000000       0.31578947 </v>
   <v>       0.00000000       0.00000000       0.28947368 </v>
   <v>       0.00000000       0.00000000       0.26315789 </v>
   <v>       0.00000000       0.00000000       0.23684211 </v>
   <v>       0.00000000       0.00000000       0.21052632 </v>
   <v>       0.00000000       0.00000000       0.18421053 </v>
   <v>       0.00000000       0.00000000       0.15789474 </v>
   <v>       0.00000000       0.00000000       0.13157895 </v>
   <v>       0.00000000       0.00000000       0.10526316 </v>
   <v>       0.00000000       0.00000000       0.07894737 </v>
   <v>       0.00000000       0.00000000       0.05263158 </v>
   <v>       0.00000000       0.00000000       0.02631579 </v>
   <v>       0.00000000       0.00000000       0.00000000 </v>
  </varray>
  <varray name="weights" >
   <v>       0.01250000 </v>
   <v>       0.01250000 </v>
   <v>       0.01250000 </v>
   <v>       0.01250000 </v>
   <v>       0.01250000 </v>
   <v>       0.01250000 </v>
   <v>       0.01250000 </v>
   <v>       0.01250000 </v>
   <v>       0.01250000 </v>
   <v>       0.01250000 </v>
   <v>       0.01250000 </v>
   <v>       0.01250000 </v>
   <v>       0.01250000 </v>
   <v>       0.01250000 </v>
   <v>       0.01250000 </v>
   <v>       0.01250000 </v>
   <v>       0.01250000 </v>
   <v>       0.01250000 </v>
   <v>       0.01250000 </v>
   <v>       0.01250000 </v>
   <v>       0.01250000 </v>
   <v>       0.01250000 </v>
   <v>       0.01250000 </v>
   <v>       0.01250000 </v>
   <v>       0.01250000 </v>
   <v>       0.01250000 </v>
   <v>       0.01250000 </v>
   <v>       0.01250000 </v>
   <v>       0.01250000 </v>
   <v>       0.01250000 </v>
   <v>       0.01250000 </v>
   <v>       0.01250000 </v>
   <v>       0.01250000 </v>
   <v>       0.01250000 </v>
   <v>       0.01250000 </v>
   <v>       0.01250000 </v>
   <v>       0.01250000 </v>
   <v>       0.01250000 </v>
   <v>       0.01250000 </v>
   <v>       0.01250000 </v>
   <v>       0.01250000 </v>
   <v>       0.01250000 </v>
   <v>       0.01250000 </v>
   <v>       0.01250000 </v>
   <v>       0.01250000 </v>
   <v>       0.01250000 </v>
   <v>       0.01250000 </v>
   <v>       0.01250000 </v>
   <v>       0.01250000 </v>
   <v>       0.01250000 </v>
   <v>       0.01250000 </v>
   <v>       0.01250000 </v>
   <v>       0.01250000 </v>
   <v>       0.01250000 </v>
   <v>       0.01250000 </v>
   <v>       0.01250000 </v>
   <v>       0.01250000 </v>
   <v>       0.01250000 </v>
   <v>       0.01250000 </v>
   <v>       0.01250000 </v>
   <v>       0.01250000 </v>
   <v>       0.01250000 </v>
   <v>       0.01250000 </v>
   <v>       0.01250000 </v>
   <v>       0.01250000 </v>
   <v>       0.01250000 </v>
   <v>       0.01250000 </v>
   <v>       0.01250000 </v>
   <v>       0.01250000 </v>
   <v>       0.01250000 </v>
   <v>       0.01250000 </v>
   <v>       0.01250000 </v>
   <v>       0.01250000 </v>
   <v>       0.01250000 </v>
   <v>       0.01250000 </v>
   <v>       0.01250000 </v>
   <v>       0.01250000 </v>
   <v>       0.01250000 </v>
   <v>       0.01250000 </v>
   <v>       0.01250000 </v>
  </varray>
 </kpoints>
 <parameters>
  <separator name="general" >
   <i type="string" name="SYSTEM">unknown system</i>
   <i type="logical" name="LCOMPAT"> F  </i>
  </separator>
  <separator name="electronic" >
   <i type="string" name="PREC">normal</i>
   <i name="ENMAX">    500.00000000</i>
   <i name="ENAUG">    351.16500000</i>
   <i name="EDIFF">      0.00000100</i>
   <i type="int" name="IALGO">    38</i>
   <i type="int" name="IWAVPR">    10</i>
   <i type="int" name="NBANDS">   480</i>
   <i name="NELECT">    792.00000000</i>
   <i type="int" name="TURBO">     0</i>
   <i type="int" name="IRESTART">     0</i>
   <i type="int" name="NREBOOT">     0</i>
   <i type="int" name="NMIN">     0</i>
   <i name="EREF">      0.00000000</i>
   <separator name="electronic smearing" >
    <i type="int" name="ISMEAR">     0</i>
    <i name="SIGMA">      0.01000000</i>
    <i name="KSPACING">      0.50000000</i>
    <i type="logical" name="KGAMMA"> T  </i>
   </separator>
   <separator name="electronic projectors" >
    <i type="logical" name="LREAL"> T  </i>
    <v name="ROPT">     -0.00050000     -0.00050000</v>
    <i type="int" name="LMAXPAW">  -100</i>
    <i type="int" name="LMAXMIX">     2</i>
    <i type="logical" name="NLSPLINE"> F  </i>
   </separator>
   <separator name="electronic startup" >
    <i type="int" name="ISTART">     0</i>
    <i type="int" name="ICHARG">    11</i>
    <i type="int" name="INIWAV">     1</i>
   </separator>
   <separator name="electronic spin" >
    <i type="int" name="ISPIN">     1</i>
    <i type="logical" name="LNONCOLLINEAR"> F  </i>
    <v name="MAGMOM">      1.00000000      1.00000000      1.00000000      1.00000000      1.00000000      1.00000000      1.00000000      1.00000000      1.00000000      1.00000000      1.00000000      1.00000000      1.00000000      1.00000000      1.00000000      1.00000000      1.00000000      1.00000000      1.00000000      1.00000000
      1.00000000      1.00000000      1.00000000      1.00000000      1.00000000      1.00000000      1.00000000      1.00000000      1.00000000      1.00000000      1.00000000      1.00000000      1.00000000      1.00000000      1.00000000      1.00000000      1.00000000      1.00000000      1.00000000      1.00000000
      1.00000000      1.00000000      1.00000000      1.00000000      1.00000000      1.00000000      1.00000000      1.00000000      1.00000000      1.00000000      1.00000000      1.00000000      1.00000000      1.00000000      1.00000000      1.00000000      1.00000000      1.00000000      1.00000000      1.00000000
      1.00000000      1.00000000      1.00000000      1.00000000      1.00000000      1.00000000      1.00000000      1.00000000      1.00000000      1.00000000      1.00000000      1.00000000      1.00000000      1.00000000      1.00000000      1.00000000      1.00000000      1.00000000      1.00000000      1.00000000
      1.00000000      1.00000000      1.00000000      1.00000000      1.00000000      1.00000000      1.00000000      1.00000000      1.00000000      1.00000000      1.00000000      1.00000000      1.00000000      1.00000000      1.00000000      1.00000000      1.00000000      1.00000000      1.00000000      1.00000000
      1.00000000      1.00000000      1.00000000      1.00000000      1.00000000      1.00000000      1.00000000      1.00000000      1.00000000      1.00000000      1.00000000      1.00000000      1.00000000      1.00000000      1.00000000      1.00000000      1.00000000      1.00000000      1.00000000      1.00000000
      1.00000000      1.00000000      1.00000000      1.00000000      1.00000000      1.00000000      1.00000000      1.00000000      1.00000000      1.00000000      1.00000000      1.00000000</v>
    <i name="NUPDOWN">     -1.00000000</i>
    <i type="logical" name="LSORBIT"> F  </i>
    <v name="SAXIS">      0.00000000      0.00000000      1.00000000</v>
    <i type="logical" name="LSPIRAL"> F  </i>
    <v name="QSPIRAL">      0.00000000      0.00000000      0.00000000</v>
    <i type="logical" name="LZEROZ"> F  </i>
   </separator>
   <separator name="electronic exchange-correlation" >
    <i type="logical" name="LASPH"> T  </i>
    <i type="logical" name="LMETAGGA"> F  </i>
   </separator>
   <separator name="electronic convergence" >
    <i type="int" name="NELM">   100</i>
    <i type="int" name="NELMDL">    -5</i>
    <i type="int" name="NELMIN">     2</i>
    <i name="ENINI">    500.00000000</i>
    <separator name="electronic convergence detail" >
     <i type="logical" name="LDIAG"> T  </i>
     <i type="logical" name="LSUBROT"> F  </i>
     <i name="WEIMIN">      0.00000000</i>
     <i name="EBREAK">      0.00000000</i>
     <i name="DEPER">      0.30000000</i>
     <i type="int" name="NRMM">     4</i>
     <i name="TIME">      0.40000000</i>
    </separator>
   </separator>
   <separator name="electronic mixer" >
    <i name="AMIX">      0.40000000</i>
    <i name="BMIX">      1.00000000</i>
    <i name="AMIN">      0.10000000</i>
    <i name="AMIX_MAG">      1.60000000</i>
    <i name="BMIX_MAG">      1.00000000</i>
    <separator name="electronic mixer details" >
     <i type="int" name="IMIX">     4</i>
     <i type="logical" name="MIXFIRST"> F  </i>
     <i type="int" name="MAXMIX">   -45</i>
     <i name="WC">    100.00000000</i>
     <i type="int" name="INIMIX">     1</i>
     <i type="int" name="MIXPRE">     1</i>
     <i type="int" name="MREMOVE">     5</i>
    </separator>
   </separator>
   <separator name="electronic dipolcorrection" >
    <i type="logical" name="LDIPOL"> F  </i>
    <i type="logical" name="LMONO"> F  </i>
    <i type="int" name="IDIPOL">     0</i>
    <i name="EPSILON">      1.00000000</i>
    <v name="DIPOL">   -100.00000000   -100.00000000   -100.00000000</v>
    <i name="EFIELD">      0.00000000</i>
   </separator>
  </separator>
  <separator name="grids" >
   <i type="int" name="NGX">   350</i>
   <i type="int" name="NGY">    40</i>
   <i type="int" name="NGZ">    64</i>
   <i type="int" name="NGXF">   700</i>
   <i type="int" name="NGYF">    80</i>
   <i type="int" name="NGZF">   128</i>
   <i type="logical" name="ADDGRID"> F  </i>
  </separator>
  <separator name="ionic" >
   <i type="int" name="NSW">     0</i>
   <i type="int" name="IBRION">    -1</i>
   <i type="int" name="MDALGO">     0</i>
   <i type="int" name="ISIF">     2</i>
   <i name="PSTRESS">      0.00000000</i>
   <i name="EDIFFG">     -0.01000000</i>
   <i type="int" name="NFREE">     0</i>
   <i name="POTIM">      0.30000000</i>
   <i name="SMASS">     -3.00000000</i>
   <i name="SCALEE">      1.00000000</i>
  </separator>
  <separator name="ionic md" >
   <i name="TEBEG">      0.00010000</i>
   <i name="TEEND">      0.00010000</i>
   <i type="int" name="NBLOCK">     1</i>
   <i type="int" name="KBLOCK">     1</i>
   <i type="int" name="NPACO">   256</i>
   <i name="APACO">     16.00000000</i>
  </separator>
  <separator name="symmetry" >
   <i type="int" name="ISYM">     2</i>
   <i name="SYMPREC">      0.00001000</i>
  </separator>
  <separator name="dos" >
   <i type="int" name="LORBIT">     0</i>
   <v name="RWIGS">     -1.00000000     -1.00000000</v>
   <i type="int" name="NEDOS">   301</i>
   <i name="EMIN">     10.00000000</i>
   <i name="EMAX">    -10.00000000</i>
   <i name="EFERMI">      0.00000000</i>
  </separator>
  <separator name="writing" >
   <i type="int" name="NWRITE">     2</i>
   <i type="logical" name="LWAVE"> T  </i>
   <i type="logical" name="LDOWNSAMPLE"> F  </i>
   <i type="logical" name="LCHARG"> T  </i>
   <i type="logical" name="LPARD"> F  </i>
   <i type="logical" name="LVTOT"> F  </i>
   <i type="logical" name="LVHAR"> F  </i>
   <i type="logical" name="LELF"> F  </i>
   <i type="logical" name="LOPTICS"> F  </i>
   <v name="STM">      0.00000000      0.00000000      0.00000000      0.00000000      0.00000000      0.00000000      0.00000000</v>
  </separator>
  <separator name="performance" >
   <i type="int" name="NPAR">     8</i>
   <i type="int" name="NSIM">     4</i>
   <i type="int" name="NBLK">    -1</i>
   <i type="logical" name="LPLANE"> T  </i>
   <i type="logical" name="LSCALAPACK"> T  </i>
   <i type="logical" name="LSCAAWARE"> F  </i>
   <i type="logical" name="LSCALU"> F  </i>
   <i type="logical" name="LASYNC"> F  </i>
   <i type="logical" name="LORBITALREAL"> F  </i>
  </separator>
  <separator name="miscellaneous" >
   <i type="int" name="IDIOT">     3</i>
   <i type="int" name="ISPECIAL">     0</i>
   <i type="logical" name="LMUSIC"> F  </i>
   <v name="POMASS">    137.32700000     28.08500000</v>
   <v name="DARWINR">      0.00000000      0.00000000</v>
   <v name="DARWINV">      1.00000000      1.00000000</v>
   <i type="logical" name="LCORR"> T  </i>
  </separator>
  <i type="logical" name="GGA_COMPAT"> T  </i>
  <i type="logical" name="LBERRY"> F  </i>
  <i type="int" name="ICORELEVEL">     0</i>
  <i type="logical" name="LDAU"> F  </i>
  <i type="int" name="I_CONSTRAINED_M">     0</i>
  <separator name="electronic exchange-correlation" >
   <i type="string" name="GGA">MK</i>
   <i type="int" name="VOSKOWN">     0</i>
   <i type="logical" name="LHFCALC"> F  </i>
   <i type="string" name="PRECFOCK"></i>
   <i type="logical" name="LSYMGRAD"> F  </i>
   <i type="logical" name="LHFONE"> F  </i>
   <i type="logical" name="LRHFCALC"> F  </i>
   <i type="logical" name="LTHOMAS"> F  </i>
   <i type="logical" name="LMODELHF"> F  </i>
   <i name="ENCUT4O">     -1.00000000</i>
   <i type="int" name="EXXOEP">     0</i>
   <i type="int" name="FOURORBIT">     0</i>
   <i name="AEXX">      0.00000000</i>
   <i name="HFALPHA">      0.00000000</i>
   <i name="MCALPHA">      0.00000000</i>
   <i name="ALDAX">      1.00000000</i>
   <i name="AGGAX">      1.00000000</i>
   <i name="ALDAC">      1.00000000</i>
   <i name="AGGAC">      0.00000000</i>
   <i type="int" name="NKREDX">     1</i>
   <i type="int" name="NKREDY">     1</i>
   <i type="int" name="NKREDZ">     1</i>
   <i type="logical" name="SHIFTRED"> F  </i>
   <i type="logical" name="ODDONLY"> F  </i>
   <i type="logical" name="EVENONLY"> F  </i>
   <i type="int" name="LMAXFOCK">     0</i>
   <i type="int" name="NMAXFOCKAE">     0</i>
   <i type="logical" name="LFOCKAEDFT"> F  </i>
   <i name="HFSCREEN">      0.00000000</i>
   <i name="HFSCREENC">      0.00000000</i>
   <i type="int" name="NBANDSGWLOW">     0</i>
  </separator>
  <separator name="vdW DFT" >
   <i type="logical" name="LUSE_VDW"> T  </i>
   <i name="Zab_VDW">     -1.88670000</i>
   <i name="PARAM1">      0.12340000</i>
   <i name="PARAM2">      0.71135700</i>
   <i name="PARAM3">      0.00000000</i>
  </separator>
  <separator name="model GW" >
   <i type="int" name="MODEL_GW">     0</i>
   <i name="MODEL_EPS0">     22.33808661</i>
   <i name="MODEL_ALPHA">      1.00000000</i>
  </separator>
  <separator name="linear response parameters" >
   <i type="logical" name="LEPSILON"> F  </i>
   <i type="logical" name="LRPA"> F  </i>
   <i type="logical" name="LNABLA"> F  </i>
   <i type="logical" name="LVEL"> F  </i>
   <i type="int" name="KINTER">     0</i>
   <i name="CSHIFT">      0.10000000</i>
   <i name="OMEGAMAX">     -1.00000000</i>
   <i name="DEG_THRESHOLD">      0.00200000</i>
   <i name="RTIME">     -0.10000000</i>
   <i name="WPLASMAI">      0.00000000</i>
   <v name="DFIELD">      0.00000000      0.00000000      0.00000000</v>
   <v name="WPLASMA">      0.00000000      0.00000000      0.00000000      0.00000000      0.00000000      0.00000000      0.00000000      0.00000000      0.00000000</v>
  </separator>
  <separator name="orbital magnetization" >
   <i type="logical" name="NUCIND"> F  </i>
   <v name="MAGPOS">      0.00000000      0.00000000      0.00000000</v>
   <i type="logical" name="LNICSALL"> T  </i>
   <i type="logical" name="ORBITALMAG"> F  </i>
   <i type="logical" name="LMAGBLOCH"> F  </i>
   <i type="logical" name="LCHIMAG"> F  </i>
   <i type="logical" name="LGAUGE"> T  </i>
   <i type="int" name="MAGATOM">     0</i>
   <v name="MAGDIPOL">      0.00000000      0.00000000      0.00000000</v>
   <v name="AVECCONST">      0.00000000      0.00000000      0.00000000</v>
  </separator>
  <separator name="response functions" >
   <i type="logical" name="LADDER"> F  </i>
   <i type="logical" name="LRPAFORCE"> F  </i>
   <i type="logical" name="LFXC"> F  </i>
   <i type="logical" name="LHARTREE"> T  </i>
   <i type="int" name="IBSE">     0</i>
   <v type="int" name="KPOINT">    -1     0     0     0</v>
   <i type="logical" name="LTCTE"> F  </i>
   <i type="logical" name="LTETE"> F  </i>
   <i type="logical" name="LTRIPLET"> F  </i>
   <i type="logical" name="LFXCEPS"> F  </i>
   <i type="logical" name="LFXHEG"> F  </i>
   <i type="int" name="NATURALO">     2</i>
   <i type="logical" name="L2ORDER"> F  </i>
   <i type="logical" name="LMP2LT"> F  </i>
   <i type="logical" name="LUSEW"> F  </i>
   <i name="ENCUTGW">     -2.00000000</i>
   <i name="ENCUTGWSOFT">     -2.00000000</i>
   <i name="ENCUTLF">     -1.00000000</i>
   <i type="int" name="LMAXMP2">    -1</i>
   <i name="SCISSOR">      0.00000000</i>
   <i type="int" name="NOMEGA">     0</i>
   <i type="int" name="NOMEGAR">     0</i>
   <i type="int" name="NBANDSGW">    -1</i>
   <i type="int" name="NBANDSO">    -1</i>
   <i type="int" name="NBANDSV">    -1</i>
   <i type="int" name="NELM">   100</i>
   <i type="int" name="NELMHF">     1</i>
   <i type="int" name="DIM">     3</i>
   <i type="int" name="ANTIRES">     0</i>
   <i name="OMEGAMAX">    -30.00000000</i>
   <i name="OMEGAMIN">    -30.00000000</i>
   <i name="OMEGATL">   -200.00000000</i>
   <i type="int" name="OMEGAGRID">   140</i>
   <i name="CSHIFT">     -0.10000000</i>
   <i type="logical" name="SELFENERGY"> F  </i>
   <i type="logical" name="LSPECTRAL"> F  </i>
   <i type="logical" name="LSPECTRALGW"> F  </i>
   <i type="logical" name="LSINGLES"> F  </i>
   <i type="logical" name="LFERMIGW"> F  </i>
   <i type="logical" name="ODDONLYGW"> F  </i>
   <i type="logical" name="EVENONLYGW"> F  </i>
   <i type="int" name="NKREDLFX">     1</i>
   <i type="int" name="NKREDLFY">     1</i>
   <i type="int" name="NKREDLFZ">     1</i>
   <i type="int" name="MAXMEM">  2800</i>
   <i type="int" name="TELESCOPE">     0</i>
   <i type="int" name="TAUPAR">     1</i>
   <i type="int" name="OMEGAPAR">    -1</i>
   <i name="LAMBDA">      1.00000000</i>
  </separator>
  <separator name="External order field" >
   <i name="OFIELD_KAPPA">      0.00000000</i>
   <v name="OFIELD_K">      0.00000000      0.00000000      0.00000000</v>
   <i name="OFIELD_Q6_NEAR">      0.00000000</i>
   <i name="OFIELD_Q6_FAR">      0.00000000</i>
   <i name="OFIELD_A">      0.00000000</i>
  </separator>
 </parameters>
 <atominfo>
  <atoms>     132 </atoms>
  <types>       2 </types>
  <array name="atoms" >
   <dimension dim="1">ion</dimension>
   <field type="string">element</field>
   <field type="int">atomtype</field>
   <set>
    <rc><c>Ba</c><c>   1</c></rc>
    <rc><c>Ba</c><c>   1</c></rc>
    <rc><c>Ba</c><c>   1</c></rc>
    <rc><c>Ba</c><c>   1</c></rc>
    <rc><c>Ba</c><c>   1</c></rc>
    <rc><c>Ba</c><c>   1</c></rc>
    <rc><c>Ba</c><c>   1</c></rc>
    <rc><c>Ba</c><c>   1</c></rc>
    <rc><c>Ba</c><c>   1</c></rc>
    <rc><c>Ba</c><c>   1</c></rc>
    <rc><c>Ba</c><c>   1</c></rc>
    <rc><c>Ba</c><c>   1</c></rc>
    <rc><c>Ba</c><c>   1</c></rc>
    <rc><c>Ba</c><c>   1</c></rc>
    <rc><c>Ba</c><c>   1</c></rc>
    <rc><c>Ba</c><c>   1</c></rc>
    <rc><c>Ba</c><c>   1</c></rc>
    <rc><c>Ba</c><c>   1</c></rc>
    <rc><c>Ba</c><c>   1</c></rc>
    <rc><c>Ba</c><c>   1</c></rc>
    <rc><c>Ba</c><c>   1</c></rc>
    <rc><c>Ba</c><c>   1</c></rc>
    <rc><c>Ba</c><c>   1</c></rc>
    <rc><c>Ba</c><c>   1</c></rc>
    <rc><c>Ba</c><c>   1</c></rc>
    <rc><c>Ba</c><c>   1</c></rc>
    <rc><c>Ba</c><c>   1</c></rc>
    <rc><c>Ba</c><c>   1</c></rc>
    <rc><c>Ba</c><c>   1</c></rc>
    <rc><c>Ba</c><c>   1</c></rc>
    <rc><c>Ba</c><c>   1</c></rc>
    <rc><c>Ba</c><c>   1</c></rc>
    <rc><c>Ba</c><c>   1</c></rc>
    <rc><c>Ba</c><c>   1</c></rc>
    <rc><c>Ba</c><c>   1</c></rc>
    <rc><c>Ba</c><c>   1</c></rc>
    <rc><c>Ba</c><c>   1</c></rc>
    <rc><c>Ba</c><c>   1</c></rc>
    <rc><c>Ba</c><c>   1</c></rc>
    <rc><c>Ba</c><c>   1</c></rc>
    <rc><c>Ba</c><c>   1</c></rc>
    <rc><c>Ba</c><c>   1</c></rc>
    <rc><c>Ba</c><c>   1</c></rc>
    <rc><c>Ba</c><c>   1</c></rc>
    <rc><c>Si</c><c>   2</c></rc>
    <rc><c>Si</c><c>   2</c></rc>
    <rc><c>Si</c><c>   2</c></rc>
    <rc><c>Si</c><c>   2</c></rc>
    <rc><c>Si</c><c>   2</c></rc>
    <rc><c>Si</c><c>   2</c></rc>
    <rc><c>Si</c><c>   2</c></rc>
    <rc><c>Si</c><c>   2</c></rc>
    <rc><c>Si</c><c>   2</c></rc>
    <rc><c>Si</c><c>   2</c></rc>
    <rc><c>Si</c><c>   2</c></rc>
    <rc><c>Si</c><c>   2</c></rc>
    <rc><c>Si</c><c>   2</c></rc>
    <rc><c>Si</c><c>   2</c></rc>
    <rc><c>Si</c><c>   2</c></rc>
    <rc><c>Si</c><c>   2</c></rc>
    <rc><c>Si</c><c>   2</c></rc>
    <rc><c>Si</c><c>   2</c></rc>
    <rc><c>Si</c><c>   2</c></rc>
    <rc><c>Si</c><c>   2</c></rc>
    <rc><c>Si</c><c>   2</c></rc>
    <rc><c>Si</c><c>   2</c></rc>
    <rc><c>Si</c><c>   2</c></rc>
    <rc><c>Si</c><c>   2</c></rc>
    <rc><c>Si</c><c>   2</c></rc>
    <rc><c>Si</c><c>   2</c></rc>
    <rc><c>Si</c><c>   2</c></rc>
    <rc><c>Si</c><c>   2</c></rc>
    <rc><c>Si</c><c>   2</c></rc>
    <rc><c>Si</c><c>   2</c></rc>
    <rc><c>Si</c><c>   2</c></rc>
    <rc><c>Si</c><c>   2</c></rc>
    <rc><c>Si</c><c>   2</c></rc>
    <rc><c>Si</c><c>   2</c></rc>
    <rc><c>Si</c><c>   2</c></rc>
    <rc><c>Si</c><c>   2</c></rc>
    <rc><c>Si</c><c>   2</c></rc>
    <rc><c>Si</c><c>   2</c></rc>
    <rc><c>Si</c><c>   2</c></rc>
    <rc><c>Si</c><c>   2</c></rc>
    <rc><c>Si</c><c>   2</c></rc>
    <rc><c>Si</c><c>   2</c></rc>
    <rc><c>Si</c><c>   2</c></rc>
    <rc><c>Si</c><c>   2</c></rc>
    <rc><c>Si</c><c>   2</c></rc>
    <rc><c>Si</c><c>   2</c></rc>
    <rc><c>Si</c><c>   2</c></rc>
    <rc><c>Si</c><c>   2</c></rc>
    <rc><c>Si</c><c>   2</c></rc>
    <rc><c>Si</c><c>   2</c></rc>
    <rc><c>Si</c><c>   2</c></rc>
    <rc><c>Si</c><c>   2</c></rc>
    <rc><c>Si</c><c>   2</c></rc>
    <rc><c>Si</c><c>   2</c></rc>
    <rc><c>Si</c><c>   2</c></rc>
    <rc><c>Si</c><c>   2</c></rc>
    <rc><c>Si</c><c>   2</c></rc>
    <rc><c>Si</c><c>   2</c></rc>
    <rc><c>Si</c><c>   2</c></rc>
    <rc><c>Si</c><c>   2</c></rc>
    <rc><c>Si</c><c>   2</c></rc>
    <rc><c>Si</c><c>   2</c></rc>
    <rc><c>Si</c><c>   2</c></rc>
    <rc><c>Si</c><c>   2</c></rc>
    <rc><c>Si</c><c>   2</c></rc>
    <rc><c>Si</c><c>   2</c></rc>
    <rc><c>Si</c><c>   2</c></rc>
    <rc><c>Si</c><c>   2</c></rc>
    <rc><c>Si</c><c>   2</c></rc>
    <rc><c>Si</c><c>   2</c></rc>
    <rc><c>Si</c><c>   2</c></rc>
    <rc><c>Si</c><c>   2</c></rc>
    <rc><c>Si</c><c>   2</c></rc>
    <rc><c>Si</c><c>   2</c></rc>
    <rc><c>Si</c><c>   2</c></rc>
    <rc><c>Si</c><c>   2</c></rc>
    <rc><c>Si</c><c>   2</c></rc>
    <rc><c>Si</c><c>   2</c></rc>
    <rc><c>Si</c><c>   2</c></rc>
    <rc><c>Si</c><c>   2</c></rc>
    <rc><c>Si</c><c>   2</c></rc>
    <rc><c>Si</c><c>   2</c></rc>
    <rc><c>Si</c><c>   2</c></rc>
    <rc><c>Si</c><c>   2</c></rc>
    <rc><c>Si</c><c>   2</c></rc>
    <rc><c>Si</c><c>   2</c></rc>
    <rc><c>Si</c><c>   2</c></rc>
    <rc><c>Si</c><c>   2</c></rc>
   </set>
  </array>
  <array name="atomtypes" >
   <dimension dim="1">type</dimension>
   <field type="int">atomspertype</field>
   <field type="string">element</field>
   <field>mass</field>
   <field>valence</field>
   <field type="string">pseudopotential</field>
   <set>
    <rc><c>  44</c><c>Ba</c><c>    137.32700000</c><c>     10.00000000</c><c> PAW_PBE Ba_sv 06Sep2000                </c></rc>
    <rc><c>  88</c><c>Si</c><c>     28.08500000</c><c>      4.00000000</c><c> PAW_PBE Si 05Jan2001                   </c></rc>
   </set>
  </array>
 </atominfo>
 <structure name="initialpos" >
  <crystal>
   <varray name="basis" >
    <v>      64.05652147       0.00000000       0.00000000 </v>
    <v>       0.00000000       6.69415221       0.00000000 </v>
    <v>       0.00000000       0.00000000      11.46066234 </v>
   </varray>
   <i name="volume">   4914.37905373 </i>
   <varray name="rec_basis" >
    <v>       0.01561121       0.00000000       0.00000000 </v>
    <v>       0.00000000       0.14938411       0.00000000 </v>
    <v>       0.00000000       0.00000000       0.08725499 </v>
   </varray>
  </crystal>
  <varray name="positions" >
   <v>       0.00512463       0.25000000       0.70094999 </v>
   <v>       0.14196586       0.25000000       0.69046693 </v>
   <v>       0.28141227       0.25000000       0.69134330 </v>
   <v>       0.42095562       0.25000000       0.69149457 </v>
   <v>       0.56050418       0.25000000       0.69107740 </v>
   <v>       0.70166131       0.25000000       0.69289840 </v>
   <v>       0.13734084       0.75000002       0.30813091 </v>
   <v>       0.27691591       0.75000002       0.30862809 </v>
   <v>       0.41649203       0.75000002       0.30882602 </v>
   <v>       0.55606311       0.75000002       0.30875705 </v>
   <v>       0.69528265       0.75000002       0.30838312 </v>
   <v>       0.06596815       0.75000002       0.19289834 </v>
   <v>       0.20712534       0.75000002       0.19107734 </v>
   <v>       0.34667388       0.75000002       0.19149451 </v>
   <v>       0.48621723       0.75000002       0.19134324 </v>
   <v>       0.62566362       0.75000002       0.19046687 </v>
   <v>       0.76250485       0.75000002       0.20094993 </v>
   <v>       0.07234683       0.25000000       0.80838316 </v>
   <v>       0.21156639       0.25000000       0.80875709 </v>
   <v>       0.35113744       0.25000000       0.80882606 </v>
   <v>       0.49071353       0.25000000       0.80862813 </v>
   <v>       0.63028861       0.25000000       0.80813095 </v>
   <v>       0.02992874       0.75000002       0.91206780 </v>
   <v>       0.16227051       0.75000002       0.90581237 </v>
   <v>       0.30161379       0.75000002       0.90606786 </v>
   <v>       0.44107083       0.75000002       0.90602307 </v>
   <v>       0.58061037       0.75000002       0.90507927 </v>
   <v>       0.71936095       0.75000002       0.89563563 </v>
   <v>       0.11660403       0.25000000       0.09312781 </v>
   <v>       0.25668810       0.25000000       0.09403158 </v>
   <v>       0.39629820       0.25000000       0.09396790 </v>
   <v>       0.53581729       0.25000000       0.09389276 </v>
   <v>       0.67510328       0.25000000       0.09513974 </v>
   <v>       0.04826849       0.25000000       0.39563571 </v>
   <v>       0.18701912       0.25000000       0.40507935 </v>
   <v>       0.32655864       0.25000000       0.40602315 </v>
   <v>       0.46601571       0.25000000       0.40606794 </v>
   <v>       0.60535899       0.25000000       0.40581246 </v>
   <v>       0.73770070       0.25000000       0.41206788 </v>
   <v>       0.09252616       0.75000002       0.59513972 </v>
   <v>       0.23181217       0.75000002       0.59389274 </v>
   <v>       0.37133126       0.75000002       0.59396788 </v>
   <v>       0.51094140       0.75000002       0.59403156 </v>
   <v>       0.65102546       0.75000002       0.59312779 </v>
   <v>       0.02532033       0.07135080       0.14548879 </v>
   <v>       0.16621824       0.07010731       0.14585316 </v>
   <v>       0.30593290       0.07013120       0.14651301 </v>
   <v>       0.44549764       0.07010567       0.14633329 </v>
   <v>       0.58501027       0.07007264       0.14539429 </v>
   <v>       0.72425687       0.07124091       0.14189587 </v>
   <v>       0.11346781       0.93026902       0.85415996 </v>
   <v>       0.25237946       0.92988545       0.85360691 </v>
   <v>       0.39187428       0.92987569       0.85373064 </v>
   <v>       0.53141656       0.92990800       0.85369957 </v>
   <v>       0.67113753       0.93058643       0.85311564 </v>
   <v>       0.04337256       0.92875908       0.64189589 </v>
   <v>       0.18261922       0.92992735       0.64539431 </v>
   <v>       0.32213182       0.92989433       0.64633331 </v>
   <v>       0.46169660       0.92986879       0.64651303 </v>
   <v>       0.60141127       0.92989268       0.64585318 </v>
   <v>       0.74230911       0.92864919       0.64548881 </v>
   <v>       0.09649192       0.06941356       0.35311564 </v>
   <v>       0.23621290       0.07009199       0.35369957 </v>
   <v>       0.37575519       0.07012430       0.35373064 </v>
   <v>       0.51525004       0.07011455       0.35360691 </v>
   <v>       0.65416167       0.06973097       0.35415996 </v>
   <v>       0.11346781       0.56973098       0.85415996 </v>
   <v>       0.25237946       0.57011455       0.85360691 </v>
   <v>       0.39187428       0.57012431       0.85373064 </v>
   <v>       0.53141656       0.57009200       0.85369957 </v>
   <v>       0.67113753       0.56941357       0.85311564 </v>
   <v>       0.02532033       0.42864919       0.14548879 </v>
   <v>       0.16621824       0.42989268       0.14585316 </v>
   <v>       0.30593290       0.42986879       0.14651301 </v>
   <v>       0.44549764       0.42989433       0.14633329 </v>
   <v>       0.58501027       0.42992735       0.14539429 </v>
   <v>       0.72425687       0.42875908       0.14189587 </v>
   <v>       0.09649192       0.43058643       0.35311564 </v>
   <v>       0.23621290       0.42990800       0.35369957 </v>
   <v>       0.37575519       0.42987569       0.35373064 </v>
   <v>       0.51525004       0.42988545       0.35360691 </v>
   <v>       0.65416167       0.43026902       0.35415996 </v>
   <v>       0.04337256       0.57124092       0.64189589 </v>
   <v>       0.18261922       0.57007265       0.64539431 </v>
   <v>       0.32213182       0.57010567       0.64633331 </v>
   <v>       0.46169660       0.57013121       0.64651303 </v>
   <v>       0.60141127       0.57010732       0.64585318 </v>
   <v>       0.74230911       0.57135081       0.64548881 </v>
   <v>       0.01036963       0.75000002       0.61806615 </v>
   <v>       0.15126310       0.75000002       0.59111990 </v>
   <v>       0.29077395       0.75000002       0.59177583 </v>
   <v>       0.43033329       0.75000002       0.59192471 </v>
   <v>       0.57001941       0.75000002       0.59162543 </v>
   <v>       0.71035654       0.75000002       0.58260046 </v>
   <v>       0.12772718       0.25000000       0.40812269 </v>
   <v>       0.26756846       0.25000000       0.40835854 </v>
   <v>       0.40711638       0.25000000       0.40832121 </v>
   <v>       0.54659848       0.25000000       0.40804707 </v>
   <v>       0.68526468       0.25000000       0.40892750 </v>
   <v>       0.05727291       0.25000000       0.08260040 </v>
   <v>       0.19761006       0.25000000       0.09162537 </v>
   <v>       0.33729617       0.25000000       0.09192465 </v>
   <v>       0.47685549       0.25000000       0.09177577 </v>
   <v>       0.61636638       0.25000000       0.09111984 </v>
   <v>       0.75725979       0.25000000       0.11806609 </v>
   <v>       0.08236480       0.75000002       0.90892754 </v>
   <v>       0.22103099       0.75000002       0.90804711 </v>
   <v>       0.36051311       0.75000002       0.90832125 </v>
   <v>       0.50006097       0.75000002       0.90835858 </v>
   <v>       0.63990233       0.75000002       0.90812273 </v>
   <v>       0.02555811       0.25000000       0.96270519 </v>
   <v>       0.16682245       0.25000000       0.96398293 </v>
   <v>       0.30649648       0.25000000       0.96456403 </v>
   <v>       0.44606443       0.25000000       0.96434629 </v>
   <v>       0.58558241       0.25000000       0.96349488 </v>
   <v>       0.73142984       0.25000000       0.96168533 </v>
   <v>       0.11241582       0.75000002       0.03691460 </v>
   <v>       0.25181826       0.75000002       0.03557850 </v>
   <v>       0.39132437       0.75000002       0.03573267 </v>
   <v>       0.53087446       0.75000002       0.03574221 </v>
   <v>       0.67062339       0.75000002       0.03536881 </v>
   <v>       0.03619961       0.75000002       0.46168525 </v>
   <v>       0.18204710       0.75000002       0.46349480 </v>
   <v>       0.32156504       0.75000002       0.46434621 </v>
   <v>       0.46113302       0.75000002       0.46456395 </v>
   <v>       0.60080704       0.75000002       0.46398285 </v>
   <v>       0.74207138       0.75000002       0.46270510 </v>
   <v>       0.09700610       0.25000000       0.53536879 </v>
   <v>       0.23675502       0.25000000       0.53574220 </v>
   <v>       0.37630513       0.25000000       0.53573265 </v>
   <v>       0.51581121       0.25000000       0.53557848 </v>
   <v>       0.65521369       0.25000000       0.53691459 </v>
  </varray>
 </structure>
 <calculation>
  <scstep>
   <time name="dav">  160.16  160.54</time>
   <time name="total">  164.16  164.66</time>
   <energy>
    <i name="alphaZ">   1981.00491641 </i>
    <i name="ewald"> 179554.71477362 </i>
    <i name="hartreedc">-218057.75735845 </i>
    <i name="XCdc">    268.95133787 </i>
    <i name="pawpsdc">  21264.51733067 </i>
    <i name="pawaedc"> -19645.39688394 </i>
    <i name="eentropy">     -0.00219326 </i>
    <i name="bandstr">    -12.47600543 </i>
    <i name="atom">  39980.33299777 </i>
    <i name="e_fr_energy">   5333.88891525 </i>
    <i name="e_wo_entrp">   5333.89110852 </i>
    <i name="e_0_energy">   5333.89001189 </i>
   </energy>
  </scstep>
  <scstep>
   <time name="dav">  193.94  194.40</time>
   <time name="total">  193.95  194.41</time>
   <energy>
    <i name="e_fr_energy">    135.56548557 </i>
    <i name="e_wo_entrp">    135.56600516 </i>
    <i name="e_0_energy">    135.56574537 </i>
   </energy>
  </scstep>
  <scstep>
   <time name="dav">  180.17  180.61</time>
   <time name="total">  180.18  180.61</time>
   <energy>
    <i name="e_fr_energy">   -496.21949840 </i>
    <i name="e_wo_entrp">   -496.21949840 </i>
    <i name="e_0_energy">   -496.21949840 </i>
   </energy>
  </scstep>
  <scstep>
   <time name="dav">  214.83  215.35</time>
   <time name="total">  214.84  215.35</time>
   <energy>
    <i name="e_fr_energy">   -528.08824005 </i>
    <i name="e_wo_entrp">   -528.08824005 </i>
    <i name="e_0_energy">   -528.08824005 </i>
   </energy>
  </scstep>
  <scstep>
   <time name="dav">  230.72  231.27</time>
   <time name="total">  230.73  231.28</time>
   <energy>
    <i name="e_fr_energy">   -529.46274548 </i>
    <i name="e_wo_entrp">   -529.46274548 </i>
    <i name="e_0_energy">   -529.46274548 </i>
   </energy>
  </scstep>
  <scstep>
   <time name="dav">  212.94  213.45</time>
   <time name="total">  212.95  213.46</time>
   <energy>
    <i name="e_fr_energy">   -529.50361374 </i>
    <i name="e_wo_entrp">   -529.50361374 </i>
    <i name="e_0_energy">   -529.50361374 </i>
   </energy>
  </scstep>
  <scstep>
   <time name="dav">  230.75  231.30</time>
   <time name="total">  230.76  231.31</time>
   <energy>
    <i name="e_fr_energy">   -529.50526699 </i>
    <i name="e_wo_entrp">   -529.50526699 </i>
    <i name="e_0_energy">   -529.50526699 </i>
   </energy>
  </scstep>
  <scstep>
   <time name="dav">  214.74  215.26</time>
   <time name="total">  214.75  215.26</time>
   <energy>
    <i name="e_fr_energy">   -529.50533119 </i>
    <i name="e_wo_entrp">   -529.50533119 </i>
    <i name="e_0_energy">   -529.50533119 </i>
   </energy>
  </scstep>
  <scstep>
   <time name="dav">  195.74  196.26</time>
   <time name="total">  195.75  196.26</time>
   <energy>
    <i name="e_fr_energy">   -529.50533446 </i>
    <i name="e_wo_entrp">   -529.50533446 </i>
    <i name="e_0_energy">   -529.50533446 </i>
   </energy>
  </scstep>
  <scstep>
   <time name="dav">  134.83  135.16</time>
   <time name="total">  134.84  135.16</time>
   <energy>
    <i name="alphaZ">   1981.00491641 </i>
    <i name="ewald"> 179554.71477362 </i>
    <i name="hartreedc">-218057.75735845 </i>
    <i name="XCdc">    268.95133787 </i>
    <i name="pawpsdc">  21264.51733067 </i>
    <i name="pawaedc"> -19645.39688394 </i>
    <i name="eentropy">     -0.00000000 </i>
    <i name="bandstr">  -5875.87244855 </i>
    <i name="atom">  39980.33299777 </i>
    <i name="e_fr_energy">   -529.50533460 </i>
    <i name="e_wo_entrp">   -529.50533460 </i>
    <i name="e_0_energy">   -529.50533460 </i>
   </energy>
  </scstep>
  <structure>
   <crystal>
    <varray name="basis" >
     <v>      64.05652147       0.00000000       0.00000000 </v>
     <v>       0.00000000       6.69415221       0.00000000 </v>
     <v>       0.00000000       0.00000000      11.46066234 </v>
    </varray>
    <i name="volume">   4914.37905373 </i>
    <varray name="rec_basis" >
     <v>       0.01561121       0.00000000       0.00000000 </v>
     <v>       0.00000000       0.14938411       0.00000000 </v>
     <v>       0.00000000       0.00000000       0.08725499 </v>
    </varray>
   </crystal>
   <varray name="positions" >
    <v>       0.00512463       0.25000000       0.70094999 </v>
    <v>       0.14196586       0.25000000       0.69046693 </v>
    <v>       0.28141227       0.25000000       0.69134330 </v>
    <v>       0.42095562       0.25000000       0.69149457 </v>
    <v>       0.56050418       0.25000000       0.69107740 </v>
    <v>       0.70166131       0.25000000       0.69289840 </v>
    <v>       0.13734084       0.75000002       0.30813091 </v>
    <v>       0.27691591       0.75000002       0.30862809 </v>
    <v>       0.41649203       0.75000002       0.30882602 </v>
    <v>       0.55606311       0.75000002       0.30875705 </v>
    <v>       0.69528265       0.75000002       0.30838312 </v>
    <v>       0.06596815       0.75000002       0.19289834 </v>
    <v>       0.20712534       0.75000002       0.19107734 </v>
    <v>       0.34667388       0.75000002       0.19149451 </v>
    <v>       0.48621723       0.75000002       0.19134324 </v>
    <v>       0.62566362       0.75000002       0.19046687 </v>
    <v>       0.76250485       0.75000002       0.20094993 </v>
    <v>       0.07234683       0.25000000       0.80838316 </v>
    <v>       0.21156639       0.25000000       0.80875709 </v>
    <v>       0.35113744       0.25000000       0.80882606 </v>
    <v>       0.49071353       0.25000000       0.80862813 </v>
    <v>       0.63028861       0.25000000       0.80813095 </v>
    <v>       0.02992874       0.75000002       0.91206780 </v>
    <v>       0.16227051       0.75000002       0.90581237 </v>
    <v>       0.30161379       0.75000002       0.90606786 </v>
    <v>       0.44107083       0.75000002       0.90602307 </v>
    <v>       0.58061037       0.75000002       0.90507927 </v>
    <v>       0.71936095       0.75000002       0.89563563 </v>
    <v>       0.11660403       0.25000000       0.09312781 </v>
    <v>       0.25668810       0.25000000       0.09403158 </v>
    <v>       0.39629820       0.25000000       0.09396790 </v>
    <v>       0.53581729       0.25000000       0.09389276 </v>
    <v>       0.67510328       0.25000000       0.09513974 </v>
    <v>       0.04826849       0.25000000       0.39563571 </v>
    <v>       0.18701912       0.25000000       0.40507935 </v>
    <v>       0.32655864       0.25000000       0.40602315 </v>
    <v>       0.46601571       0.25000000       0.40606794 </v>
    <v>       0.60535899       0.25000000       0.40581246 </v>
    <v>       0.73770070       0.25000000       0.41206788 </v>
    <v>       0.09252616       0.75000002       0.59513972 </v>
    <v>       0.23181217       0.75000002       0.59389274 </v>
    <v>       0.37133126       0.75000002       0.59396788 </v>
    <v>       0.51094140       0.75000002       0.59403156 </v>
    <v>       0.65102546       0.75000002       0.59312779 </v>
    <v>       0.02532033       0.07135080       0.14548879 </v>
    <v>       0.16621824       0.07010731       0.14585316 </v>
    <v>       0.30593290       0.07013120       0.14651301 </v>
    <v>       0.44549764       0.07010567       0.14633329 </v>
    <v>       0.58501027       0.07007264       0.14539429 </v>
    <v>       0.72425687       0.07124091       0.14189587 </v>
    <v>       0.11346781       0.93026902       0.85415996 </v>
    <v>       0.25237946       0.92988545       0.85360691 </v>
    <v>       0.39187428       0.92987569       0.85373064 </v>
    <v>       0.53141656       0.92990800       0.85369957 </v>
    <v>       0.67113753       0.93058643       0.85311564 </v>
    <v>       0.04337256       0.92875908       0.64189589 </v>
    <v>       0.18261922       0.92992735       0.64539431 </v>
    <v>       0.32213182       0.92989433       0.64633331 </v>
    <v>       0.46169660       0.92986879       0.64651303 </v>
    <v>       0.60141127       0.92989268       0.64585318 </v>
    <v>       0.74230911       0.92864919       0.64548881 </v>
    <v>       0.09649192       0.06941356       0.35311564 </v>
    <v>       0.23621290       0.07009199       0.35369957 </v>
    <v>       0.37575519       0.07012430       0.35373064 </v>
    <v>       0.51525004       0.07011455       0.35360691 </v>
    <v>       0.65416167       0.06973097       0.35415996 </v>
    <v>       0.11346781       0.56973098       0.85415996 </v>
    <v>       0.25237946       0.57011455       0.85360691 </v>
    <v>       0.39187428       0.57012431       0.85373064 </v>
    <v>       0.53141656       0.57009200       0.85369957 </v>
    <v>       0.67113753       0.56941357       0.85311564 </v>
    <v>       0.02532033       0.42864919       0.14548879 </v>
    <v>       0.16621824       0.42989268       0.14585316 </v>
    <v>       0.30593290       0.42986879       0.14651301 </v>
    <v>       0.44549764       0.42989433       0.14633329 </v>
    <v>       0.58501027       0.42992735       0.14539429 </v>
    <v>       0.72425687       0.42875908       0.14189587 </v>
    <v>       0.09649192       0.43058643       0.35311564 </v>
    <v>       0.23621290       0.42990800       0.35369957 </v>
    <v>       0.37575519       0.42987569       0.35373064 </v>
    <v>       0.51525004       0.42988545       0.35360691 </v>
    <v>       0.65416167       0.43026902       0.35415996 </v>
    <v>       0.04337256       0.57124092       0.64189589 </v>
    <v>       0.18261922       0.57007265       0.64539431 </v>
    <v>       0.32213182       0.57010567       0.64633331 </v>
    <v>       0.46169660       0.57013121       0.64651303 </v>
    <v>       0.60141127       0.57010732       0.64585318 </v>
    <v>       0.74230911       0.57135081       0.64548881 </v>
    <v>       0.01036963       0.75000002       0.61806615 </v>
    <v>       0.15126310       0.75000002       0.59111990 </v>
    <v>       0.29077395       0.75000002       0.59177583 </v>
    <v>       0.43033329       0.75000002       0.59192471 </v>
    <v>       0.57001941       0.75000002       0.59162543 </v>
    <v>       0.71035654       0.75000002       0.58260046 </v>
    <v>       0.12772718       0.25000000       0.40812269 </v>
    <v>       0.26756846       0.25000000       0.40835854 </v>
    <v>       0.40711638       0.25000000       0.40832121 </v>
    <v>       0.54659848       0.25000000       0.40804707 </v>
    <v>       0.68526468       0.25000000       0.40892750 </v>
    <v>       0.05727291       0.25000000       0.08260040 </v>
    <v>       0.19761006       0.25000000       0.09162537 </v>
    <v>       0.33729617       0.25000000       0.09192465 </v>
    <v>       0.47685549       0.25000000       0.09177577 </v>
    <v>       0.61636638       0.25000000       0.09111984 </v>
    <v>       0.75725979       0.25000000       0.11806609 </v>
    <v>       0.08236480       0.75000002       0.90892754 </v>
    <v>       0.22103099       0.75000002       0.90804711 </v>
    <v>       0.36051311       0.75000002       0.90832125 </v>
    <v>       0.50006097       0.75000002       0.90835858 </v>
    <v>       0.63990233       0.75000002       0.90812273 </v>
    <v>       0.02555811       0.25000000       0.96270519 </v>
    <v>       0.16682245       0.25000000       0.96398293 </v>
    <v>       0.30649648       0.25000000       0.96456403 </v>
    <v>       0.44606443       0.25000000       0.96434629 </v>
    <v>       0.58558241       0.25000000       0.96349488 </v>
    <v>       0.73142984       0.25000000       0.96168533 </v>
    <v>       0.11241582       0.75000002       0.03691460 </v>
    <v>       0.25181826       0.75000002       0.03557850 </v>
    <v>       0.39132437       0.75000002       0.03573267 </v>
    <v>       0.53087446       0.75000002       0.03574221 </v>
    <v>       0.67062339       0.75000002       0.03536881 </v>
    <v>       0.03619961       0.75000002       0.46168525 </v>
    <v>       0.18204710       0.75000002       0.46349480 </v>
    <v>       0.32156504       0.75000002       0.46434621 </v>
    <v>       0.46113302       0.75000002       0.46456395 </v>
    <v>       0.60080704       0.75000002       0.46398285 </v>
    <v>       0.74207138       0.75000002       0.46270510 </v>
    <v>       0.09700610       0.25000000       0.53536879 </v>
    <v>       0.23675502       0.25000000       0.53574220 </v>
    <v>       0.37630513       0.25000000       0.53573265 </v>
    <v>       0.51581121       0.25000000       0.53557848 </v>
    <v>       0.65521369       0.25000000       0.53691459 </v>
   </varray>
  </structure>
  <varray name="forces" >
   <v>       0.01883419      -0.00000000      -0.02956250 </v>
   <v>       0.03005489      -0.00000000      -0.02312959 </v>
   <v>       0.03295883       0.00000000      -0.02086674 </v>
   <v>       0.02994882      -0.00000000      -0.02189577 </v>
   <v>       0.03967914      -0.00000000      -0.02312265 </v>
   <v>       0.05349733       0.00000000      -0.02569727 </v>
   <v>      -0.03695884      -0.00000000       0.02476537 </v>
   <v>      -0.03439120       0.00000000       0.02904561 </v>
   <v>      -0.03725356       0.00000000       0.02235758 </v>
   <v>      -0.04088931       0.00000000       0.01662969 </v>
   <v>      -0.04010544      -0.00000000       0.01229426 </v>
   <v>      -0.05349733       0.00000000      -0.02569727 </v>
   <v>      -0.03967914       0.00000000      -0.02312265 </v>
   <v>      -0.02994882      -0.00000000      -0.02189577 </v>
   <v>      -0.03295883       0.00000000      -0.02086674 </v>
   <v>      -0.03005489       0.00000000      -0.02312959 </v>
   <v>      -0.01883419       0.00000000      -0.02956250 </v>
   <v>       0.04010544      -0.00000000       0.01229426 </v>
   <v>       0.04088931       0.00000000       0.01662969 </v>
   <v>       0.03725356       0.00000000       0.02235758 </v>
   <v>       0.03439120       0.00000000       0.02904561 </v>
   <v>       0.03695884      -0.00000000       0.02476537 </v>
   <v>       0.00389991      -0.00000000      -0.00894210 </v>
   <v>       0.01983225      -0.00000000       0.03051343 </v>
   <v>       0.00869351       0.00000000       0.02823453 </v>
   <v>       0.02074243      -0.00000000       0.03087316 </v>
   <v>       0.01018392       0.00000000       0.02603293 </v>
   <v>       0.01741731      -0.00000000       0.02643906 </v>
   <v>      -0.01300795      -0.00000000      -0.02334531 </v>
   <v>      -0.01270789      -0.00000000      -0.03117024 </v>
   <v>      -0.01628385      -0.00000000      -0.02521876 </v>
   <v>      -0.01314140      -0.00000000      -0.02768631 </v>
   <v>      -0.01810631       0.00000000      -0.02204659 </v>
   <v>      -0.01741731      -0.00000000       0.02643906 </v>
   <v>      -0.01018392       0.00000000       0.02603293 </v>
   <v>      -0.02074243      -0.00000000       0.03087316 </v>
   <v>      -0.00869351      -0.00000000       0.02823453 </v>
   <v>      -0.01983225       0.00000000       0.03051343 </v>
   <v>      -0.00389991       0.00000000      -0.00894210 </v>
   <v>       0.01810631       0.00000000      -0.02204659 </v>
   <v>       0.01314140      -0.00000000      -0.02768631 </v>
   <v>       0.01628385      -0.00000000      -0.02521876 </v>
   <v>       0.01270789      -0.00000000      -0.03117024 </v>
   <v>       0.01300795       0.00000000      -0.02334531 </v>
   <v>       0.02060012       0.00515409       0.00511715 </v>
   <v>       0.02628416       0.02865501      -0.00898030 </v>
   <v>       0.02601131       0.02480422      -0.01013141 </v>
   <v>       0.02355005       0.02730904      -0.00990844 </v>
   <v>       0.02088321       0.01982674      -0.00531035 </v>
   <v>       0.01404602       0.03691782      -0.00118183 </v>
   <v>      -0.02756566      -0.01886700       0.01232222 </v>
   <v>      -0.02199802      -0.02221809       0.01076156 </v>
   <v>      -0.02474044      -0.02225267       0.00564276 </v>
   <v>      -0.01852761      -0.02272204       0.01242004 </v>
   <v>      -0.03137034      -0.02935544       0.01257820 </v>
   <v>      -0.01404602      -0.03691782      -0.00118183 </v>
   <v>      -0.02088321      -0.01982674      -0.00531035 </v>
   <v>      -0.02355005      -0.02730904      -0.00990844 </v>
   <v>      -0.02601131      -0.02480422      -0.01013141 </v>
   <v>      -0.02628416      -0.02865501      -0.00898030 </v>
   <v>      -0.02060012      -0.00515409       0.00511715 </v>
   <v>       0.03137034       0.02935544       0.01257820 </v>
   <v>       0.01852761       0.02272204       0.01242004 </v>
   <v>       0.02474044       0.02225267       0.00564276 </v>
   <v>       0.02199802       0.02221809       0.01076156 </v>
   <v>       0.02756566       0.01886700       0.01232222 </v>
   <v>      -0.02756566       0.01886700       0.01232222 </v>
   <v>      -0.02199802       0.02221809       0.01076156 </v>
   <v>      -0.02474044       0.02225267       0.00564276 </v>
   <v>      -0.01852761       0.02272204       0.01242004 </v>
   <v>      -0.03137034       0.02935544       0.01257820 </v>
   <v>       0.02060012      -0.00515409       0.00511715 </v>
   <v>       0.02628416      -0.02865501      -0.00898030 </v>
   <v>       0.02601131      -0.02480422      -0.01013141 </v>
   <v>       0.02355005      -0.02730904      -0.00990844 </v>
   <v>       0.02088321      -0.01982674      -0.00531035 </v>
   <v>       0.01404602      -0.03691782      -0.00118183 </v>
   <v>       0.03137034      -0.02935544       0.01257820 </v>
   <v>       0.01852761      -0.02272204       0.01242004 </v>
   <v>       0.02474044      -0.02225267       0.00564276 </v>
   <v>       0.02199802      -0.02221809       0.01076156 </v>
   <v>       0.02756566      -0.01886700       0.01232222 </v>
   <v>      -0.01404602       0.03691782      -0.00118183 </v>
   <v>      -0.02088321       0.01982674      -0.00531035 </v>
   <v>      -0.02355005       0.02730904      -0.00990844 </v>
   <v>      -0.02601131       0.02480422      -0.01013141 </v>
   <v>      -0.02628416       0.02865501      -0.00898030 </v>
   <v>      -0.02060012       0.00515409       0.00511715 </v>
   <v>       0.02621853      -0.00000000       0.01211290 </v>
   <v>       0.00242451       0.00000000       0.01135119 </v>
   <v>      -0.00083250       0.00000000       0.00590952 </v>
   <v>      -0.01233921       0.00000000       0.01508122 </v>
   <v>      -0.00863858       0.00000000       0.01367809 </v>
   <v>      -0.01828107      -0.00000000       0.00367408 </v>
   <v>      -0.00181206       0.00000000      -0.01567985 </v>
   <v>      -0.01135381       0.00000000      -0.01387389 </v>
   <v>      -0.00822706       0.00000000      -0.00994049 </v>
   <v>      -0.00187631      -0.00000000      -0.01118688 </v>
   <v>       0.01083411       0.00000000      -0.00396024 </v>
   <v>       0.01828107       0.00000000       0.00367408 </v>
   <v>       0.00863858      -0.00000000       0.01367809 </v>
   <v>       0.01233921      -0.00000000       0.01508122 </v>
   <v>       0.00083250       0.00000000       0.00590952 </v>
   <v>      -0.00242451       0.00000000       0.01135119 </v>
   <v>      -0.02621853      -0.00000000       0.01211290 </v>
   <v>      -0.01083411      -0.00000000      -0.00396024 </v>
   <v>       0.00187631       0.00000000      -0.01118688 </v>
   <v>       0.00822706       0.00000000      -0.00994049 </v>
   <v>       0.01135381       0.00000000      -0.01387389 </v>
   <v>       0.00181206       0.00000000      -0.01567985 </v>
   <v>       0.00211685       0.00000000       0.00202600 </v>
   <v>      -0.00679720      -0.00000000       0.00159086 </v>
   <v>      -0.01283669       0.00000000      -0.00689990 </v>
   <v>      -0.00099059      -0.00000000       0.00002628 </v>
   <v>      -0.01214218      -0.00000000      -0.00855921 </v>
   <v>       0.00175985      -0.00000000      -0.00938563 </v>
   <v>       0.01667344      -0.00000000      -0.00192617 </v>
   <v>       0.01202560      -0.00000000       0.00511452 </v>
   <v>       0.00343306       0.00000000       0.00005762 </v>
   <v>       0.00913874      -0.00000000      -0.00229427 </v>
   <v>       0.01810868       0.00000000       0.00192327 </v>
   <v>      -0.00175985       0.00000000      -0.00938563 </v>
   <v>       0.01214218      -0.00000000      -0.00855921 </v>
   <v>       0.00099059       0.00000000       0.00002628 </v>
   <v>       0.01283669      -0.00000000      -0.00689990 </v>
   <v>       0.00679720      -0.00000000       0.00159086 </v>
   <v>      -0.00211685      -0.00000000       0.00202600 </v>
   <v>      -0.01810868      -0.00000000       0.00192327 </v>
   <v>      -0.00913874       0.00000000      -0.00229427 </v>
   <v>      -0.00343306       0.00000000       0.00005762 </v>
   <v>      -0.01202560      -0.00000000       0.00511452 </v>
   <v>      -0.01667344       0.00000000      -0.00192617 </v>
  </varray>
  <varray name="stress" >
   <v>      -0.42282866       0.00000000       0.00000000 </v>
   <v>       0.00000000      -0.56063154       0.00000000 </v>
   <v>       0.00000000       0.00000000      -0.69981831 </v>
  </varray>
  <energy>
   <i name="e_fr_energy">   -529.50533460 </i>
   <i name="e_wo_entrp">   -529.50533460 </i>
   <i name="e_0_energy">     -0.00000000 </i>
  </energy>
  <time name="totalsc"> 2436.05 2474.96</time>
  <eigenvalues>
   <array>
    <dimension dim="1">band</dimension>
    <dimension dim="2">kpoint</dimension>
    <dimension dim="3">spin</dimension>
    <field>eigene</field>
    <field>occ</field>
    <set>
     <set comment="spin 1">
      <set comment="kpoint 1">
       <r>  -26.6262    1.0000 </r>
       <r>  -26.6256    1.0000 </r>
       <r>  -25.6600    1.0000 </r>
       <r>  -25.6587    1.0000 </r>
       <r>  -25.6420    1.0000 </r>
       <r>  -25.6392    1.0000 </r>
       <r>  -25.6342    1.0000 </r>
       <r>  -25.6321    1.0000 </r>
       <r>  -25.5757    1.0000 </r>
       <r>  -25.5749    1.0000 </r>
       <r>  -25.5733    1.0000 </r>
       <r>  -25.5718    1.0000 </r>
       <r>  -25.5708    1.0000 </r>
       <r>  -25.5686    1.0000 </r>
       <r>  -25.5673    1.0000 </r>
       <r>  -25.5671    1.0000 </r>
       <r>  -25.5670    1.0000 </r>
       <r>  -25.5656    1.0000 </r>
       <r>  -25.5642    1.0000 </r>
       <r>  -25.5635    1.0000 </r>
       <r>  -25.5606    1.0000 </r>
       <r>  -25.5571    1.0000 </r>
       <r>  -25.5505    1.0000 </r>
       <r>  -25.5465    1.0000 </r>
       <r>  -25.4994    1.0000 </r>
       <r>  -25.4959    1.0000 </r>
       <r>  -25.4938    1.0000 </r>
       <r>  -25.4921    1.0000 </r>
       <r>  -25.4919    1.0000 </r>
       <r>  -25.4898    1.0000 </r>
       <r>  -25.4889    1.0000 </r>
       <r>  -25.4877    1.0000 </r>
       <r>  -25.4869    1.0000 </r>
       <r>  -25.4856    1.0000 </r>
       <r>  -25.4840    1.0000 </r>
       <r>  -25.4833    1.0000 </r>
       <r>  -25.4814    1.0000 </r>
       <r>  -25.4810    1.0000 </r>
       <r>  -25.4802    1.0000 </r>
       <r>  -25.4792    1.0000 </r>
       <r>  -25.4757    1.0000 </r>
       <r>  -25.4719    1.0000 </r>
       <r>  -25.4329    1.0000 </r>
       <r>  -25.4304    1.0000 </r>
       <r>  -11.9997    1.0000 </r>
       <r>  -11.9990    1.0000 </r>
       <r>  -11.9276    1.0000 </r>
       <r>  -11.9269    1.0000 </r>
       <r>  -11.8341    1.0000 </r>
       <r>  -11.8335    1.0000 </r>
       <r>  -11.2395    1.0000 </r>
       <r>  -11.2376    1.0000 </r>
       <r>  -11.1746    1.0000 </r>
       <r>  -11.1730    1.0000 </r>
       <r>  -11.1712    1.0000 </r>
       <r>  -11.1667    1.0000 </r>
       <r>  -11.1653    1.0000 </r>
       <r>  -11.1532    1.0000 </r>
       <r>  -11.1355    1.0000 </r>
       <r>  -11.1353    1.0000 </r>
       <r>  -11.1204    1.0000 </r>
       <r>  -11.1161    1.0000 </r>
       <r>  -11.1023    1.0000 </r>
       <r>  -11.1005    1.0000 </r>
       <r>  -11.0998    1.0000 </r>
       <r>  -11.0992    1.0000 </r>
       <r>  -11.0907    1.0000 </r>
       <r>  -11.0787    1.0000 </r>
       <r>  -11.0760    1.0000 </r>
       <r>  -11.0611    1.0000 </r>
       <r>  -11.0611    1.0000 </r>
       <r>  -11.0567    1.0000 </r>
       <r>  -11.0500    1.0000 </r>
       <r>  -11.0406    1.0000 </r>
       <r>  -11.0332    1.0000 </r>
       <r>  -11.0281    1.0000 </r>
       <r>  -11.0219    1.0000 </r>
       <r>  -11.0173    1.0000 </r>
       <r>  -11.0169    1.0000 </r>
       <r>  -11.0135    1.0000 </r>
       <r>  -11.0086    1.0000 </r>
       <r>  -11.0029    1.0000 </r>
       <r>  -10.9994    1.0000 </r>
       <r>  -10.9989    1.0000 </r>
       <r>  -10.9957    1.0000 </r>
       <r>  -10.9943    1.0000 </r>
       <r>  -10.9905    1.0000 </r>
       <r>  -10.9904    1.0000 </r>
       <r>  -10.9845    1.0000 </r>
       <r>  -10.9838    1.0000 </r>
       <r>  -10.9815    1.0000 </r>
       <r>  -10.9799    1.0000 </r>
       <r>  -10.9791    1.0000 </r>
       <r>  -10.9779    1.0000 </r>
       <r>  -10.9764    1.0000 </r>
       <r>  -10.9762    1.0000 </r>
       <r>  -10.9760    1.0000 </r>
       <r>  -10.9723    1.0000 </r>
       <r>  -10.9717    1.0000 </r>
       <r>  -10.9692    1.0000 </r>
       <r>  -10.9678    1.0000 </r>
       <r>  -10.9667    1.0000 </r>
       <r>  -10.9593    1.0000 </r>
       <r>  -10.9568    1.0000 </r>
       <r>  -10.9560    1.0000 </r>
       <r>  -10.9497    1.0000 </r>
       <r>  -10.9489    1.0000 </r>
       <r>  -10.9452    1.0000 </r>
       <r>  -10.9443    1.0000 </r>
       <r>  -10.9424    1.0000 </r>
       <r>  -10.9423    1.0000 </r>
       <r>  -10.9417    1.0000 </r>
       <r>  -10.9391    1.0000 </r>
       <r>  -10.9373    1.0000 </r>
       <r>  -10.9370    1.0000 </r>
       <r>  -10.9337    1.0000 </r>
       <r>  -10.9234    1.0000 </r>
       <r>  -10.9161    1.0000 </r>
       <r>  -10.9017    1.0000 </r>
       <r>  -10.8988    1.0000 </r>
       <r>  -10.8886    1.0000 </r>
       <r>  -10.8795    1.0000 </r>
       <r>  -10.8556    1.0000 </r>
       <r>  -10.8435    1.0000 </r>
       <r>  -10.8329    1.0000 </r>
       <r>  -10.8295    1.0000 </r>
       <r>  -10.8229    1.0000 </r>
       <r>  -10.8222    1.0000 </r>
       <r>  -10.8181    1.0000 </r>
       <r>  -10.8166    1.0000 </r>
       <r>  -10.8145    1.0000 </r>
       <r>  -10.8109    1.0000 </r>
       <r>  -10.8109    1.0000 </r>
       <r>  -10.8107    1.0000 </r>
       <r>  -10.8057    1.0000 </r>
       <r>  -10.8023    1.0000 </r>
       <r>  -10.7990    1.0000 </r>
       <r>  -10.7979    1.0000 </r>
       <r>  -10.7936    1.0000 </r>
       <r>  -10.7912    1.0000 </r>
       <r>  -10.7899    1.0000 </r>
       <r>  -10.7890    1.0000 </r>
       <r>  -10.7883    1.0000 </r>
       <r>  -10.7882    1.0000 </r>
       <r>  -10.7864    1.0000 </r>
       <r>  -10.7835    1.0000 </r>
       <r>  -10.7819    1.0000 </r>
       <r>  -10.7799    1.0000 </r>
       <r>  -10.7743    1.0000 </r>
       <r>  -10.7714    1.0000 </r>
       <r>  -10.7706    1.0000 </r>
       <r>  -10.7700    1.0000 </r>
       <r>  -10.7698    1.0000 </r>
       <r>  -10.7673    1.0000 </r>
       <r>  -10.7632    1.0000 </r>
       <r>  -10.7615    1.0000 </r>
       <r>  -10.7610    1.0000 </r>
       <r>  -10.7584    1.0000 </r>
       <r>  -10.7558    1.0000 </r>
       <r>  -10.7551    1.0000 </r>
       <r>  -10.7538    1.0000 </r>
       <r>  -10.7537    1.0000 </r>
       <r>  -10.7511    1.0000 </r>
       <r>  -10.7478    1.0000 </r>
       <r>  -10.7459    1.0000 </r>
       <r>  -10.7456    1.0000 </r>
       <r>  -10.7411    1.0000 </r>
       <r>  -10.7405    1.0000 </r>
       <r>  -10.7398    1.0000 </r>
       <r>  -10.7386    1.0000 </r>
       <r>  -10.7330    1.0000 </r>
       <r>  -10.7305    1.0000 </r>
       <r>  -10.7289    1.0000 </r>
       <r>  -10.7257    1.0000 </r>
       <r>  -10.7221    1.0000 </r>
       <r>  -10.7199    1.0000 </r>
       <r>   -8.8429    1.0000 </r>
       <r>   -8.8182    1.0000 </r>
       <r>   -8.7790    1.0000 </r>
       <r>   -8.7313    1.0000 </r>
       <r>   -8.6800    1.0000 </r>
       <r>   -8.6336    1.0000 </r>
       <r>   -8.5948    1.0000 </r>
       <r>   -8.5781    1.0000 </r>
       <r>   -8.5724    1.0000 </r>
       <r>   -8.5672    1.0000 </r>
       <r>   -8.5614    1.0000 </r>
       <r>   -8.5498    1.0000 </r>
       <r>   -8.5468    1.0000 </r>
       <r>   -8.5403    1.0000 </r>
       <r>   -8.5380    1.0000 </r>
[...]
       <r>   -19.2828     0.0000    88.0000 </r>
       <r>   -19.1669     0.0000    88.0000 </r>
       <r>   -19.0510     0.0000    88.0000 </r>
       <r>   -18.9351     0.0000    88.0000 </r>
       <r>   -18.8192     0.0000    88.0000 </r>
       <r>   -18.7033     0.0000    88.0000 </r>
       <r>   -18.5874     0.0000    88.0000 </r>
       <r>   -18.4715     0.0000    88.0000 </r>
       <r>   -18.3556     0.0000    88.0000 </r>
       <r>   -18.2397     0.0000    88.0000 </r>
       <r>   -18.1238     0.0000    88.0000 </r>
       <r>   -18.0079     0.0000    88.0000 </r>
       <r>   -17.8920     0.0000    88.0000 </r>
       <r>   -17.7761     0.0000    88.0000 </r>
       <r>   -17.6602     0.0000    88.0000 </r>
       <r>   -17.5443     0.0000    88.0000 </r>
       <r>   -17.4284     0.0000    88.0000 </r>
       <r>   -17.3126     0.0000    88.0000 </r>
       <r>   -17.1967     0.0000    88.0000 </r>
       <r>   -17.0808     0.0000    88.0000 </r>
       <r>   -16.9649     0.0000    88.0000 </r>
       <r>   -16.8490     0.0000    88.0000 </r>
       <r>   -16.7331     0.0000    88.0000 </r>
       <r>   -16.6172     0.0000    88.0000 </r>
       <r>   -16.5013     0.0000    88.0000 </r>
       <r>   -16.3854     0.0000    88.0000 </r>
       <r>   -16.2695     0.0000    88.0000 </r>
       <r>   -16.1536     0.0000    88.0000 </r>
       <r>   -16.0377     0.0000    88.0000 </r>
       <r>   -15.9218     0.0000    88.0000 </r>
       <r>   -15.8059     0.0000    88.0000 </r>
       <r>   -15.6900     0.0000    88.0000 </r>
       <r>   -15.5741     0.0000    88.0000 </r>
       <r>   -15.4582     0.0000    88.0000 </r>
       <r>   -15.3424     0.0000    88.0000 </r>
       <r>   -15.2265     0.0000    88.0000 </r>
       <r>   -15.1106     0.0000    88.0000 </r>
       <r>   -14.9947     0.0000    88.0000 </r>
       <r>   -14.8788     0.0000    88.0000 </r>
       <r>   -14.7629     0.0000    88.0000 </r>
       <r>   -14.6470     0.0000    88.0000 </r>
       <r>   -14.5311     0.0000    88.0000 </r>
       <r>   -14.4152     0.0000    88.0000 </r>
       <r>   -14.2993     0.0000    88.0000 </r>
       <r>   -14.1834     0.0000    88.0000 </r>
       <r>   -14.0675     0.0000    88.0000 </r>
       <r>   -13.9516     0.0000    88.0000 </r>
       <r>   -13.8357     0.0000    88.0000 </r>
       <r>   -13.7198     0.0000    88.0000 </r>
       <r>   -13.6039     0.0000    88.0000 </r>
       <r>   -13.4881     0.0000    88.0000 </r>
       <r>   -13.3722     0.0000    88.0000 </r>
       <r>   -13.2563     0.0000    88.0000 </r>
       <r>   -13.1404     0.0000    88.0000 </r>
       <r>   -13.0245     0.0000    88.0000 </r>
       <r>   -12.9086     0.0000    88.0000 </r>
       <r>   -12.7927     0.0000    88.0000 </r>
       <r>   -12.6768     0.0000    88.0000 </r>
       <r>   -12.5609     0.0000    88.0000 </r>
       <r>   -12.4450     0.0000    88.0000 </r>
       <r>   -12.3291     0.0000    88.0000 </r>
       <r>   -12.2132     0.0000    88.0000 </r>
       <r>   -12.0973     0.0000    88.0000 </r>
       <r>   -11.9814    33.3979    91.8706 </r>
       <r>   -11.8655    40.5444    96.6989 </r>
       <r>   -11.7496     0.0000   100.0000 </r>
       <r>   -11.6337     0.0000   100.0000 </r>
       <r>   -11.5179     0.0000   100.0000 </r>
       <r>   -11.4020     0.0000   100.0000 </r>
       <r>   -11.2861     0.0000   100.0000 </r>
       <r>   -11.1702   104.6577   112.1292 </r>
       <r>   -11.0543   258.3722   155.8438 </r>
       <r>   -10.9384   328.8443   213.0361 </r>
       <r>   -10.8225   266.5546   259.1171 </r>
       <r>   -10.7066   594.9611   350.9774 </r>
       <r>   -10.5907     0.0000   352.0000 </r>
       <r>   -10.4748     0.0000   352.0000 </r>
       <r>   -10.3589     0.0000   352.0000 </r>
       <r>   -10.2430     0.0000   352.0000 </r>
       <r>   -10.1271     0.0000   352.0000 </r>
       <r>   -10.0112     0.0000   352.0000 </r>
       <r>    -9.8953     0.0000   352.0000 </r>
       <r>    -9.7794     0.0000   352.0000 </r>
       <r>    -9.6635     0.0000   352.0000 </r>
       <r>    -9.5477     0.0000   352.0000 </r>
       <r>    -9.4318     0.0000   352.0000 </r>
       <r>    -9.3159     0.0000   352.0000 </r>
       <r>    -9.2000     0.0000   352.0000 </r>
       <r>    -9.0841     0.0000   352.0000 </r>
       <r>    -8.9682     0.0000   352.0000 </r>
       <r>    -8.8523     0.0903   352.0105 </r>
       <r>    -8.7364    10.6802   353.6628 </r>
       <r>    -8.6205    35.6826   358.6104 </r>
       <r>    -8.5046   245.6272   390.1917 </r>
       <r>    -8.3887     0.0000   392.0000 </r>
       <r>    -8.2728     0.0000   392.0000 </r>
       <r>    -8.1569    14.2328   393.6495 </r>
       <r>    -8.0410    14.4529   396.0000 </r>
       <r>    -7.9251     0.0000   396.0000 </r>
       <r>    -7.8092     0.0000   396.0000 </r>
       <r>    -7.6934     0.0000   396.0000 </r>
       <r>    -7.5775     0.0000   396.0000 </r>
       <r>    -7.4616     0.0000   396.0000 </r>
       <r>    -7.3457     0.0000   396.0000 </r>
       <r>    -7.2298     0.0000   396.0000 </r>
       <r>    -7.1139     0.0000   396.0000 </r>
       <r>    -6.9980     0.0000   396.0000 </r>
       <r>    -6.8821     0.0000   396.0000 </r>
       <r>    -6.7662     0.0000   396.0000 </r>
       <r>    -6.6503     0.0000   396.0000 </r>
       <r>    -6.5344     0.0000   396.0000 </r>
       <r>    -6.4185     0.0000   396.0000 </r>
       <r>    -6.3026     0.0000   396.0000 </r>
       <r>    -6.1867     0.0000   396.0000 </r>
       <r>    -6.0708     0.0000   396.0000 </r>
       <r>    -5.9549     0.0000   396.0000 </r>
       <r>    -5.8390     0.0000   396.0000 </r>
       <r>    -5.7232     0.0000   396.0000 </r>
       <r>    -5.6073     0.0000   396.0000 </r>
       <r>    -5.4914     0.0000   396.0000 </r>
       <r>    -5.3755     0.0000   396.0000 </r>
       <r>    -5.2596     0.0000   396.0000 </r>
       <r>    -5.1437     0.0000   396.0000 </r>
       <r>    -5.0278     0.0000   396.0000 </r>
       <r>    -4.9119     0.0000   396.0000 </r>
       <r>    -4.7960     0.0000   396.0000 </r>
       <r>    -4.6801     0.0000   396.0000 </r>
       <r>    -4.5642     0.0000   396.0000 </r>
       <r>    -4.4483     0.0000   396.0000 </r>
       <r>    -4.3324     0.0000   396.0000 </r>
       <r>    -4.2165     8.6142   396.9983 </r>
       <r>    -4.1006   103.0323   412.4658 </r>
       <r>    -3.9847    64.4806   424.8479 </r>
       <r>    -3.8688    56.5026   434.5483 </r>
       <r>    -3.7530   178.6731   459.1571 </r>
       <r>    -3.6371   172.1813   490.4548 </r>
       <r>    -3.5212    88.8818   510.8259 </r>
       <r>    -3.4053    31.5388   518.0552 </r>
       <r>    -3.2894    53.2059   524.6662 </r>
       <r>    -3.1735     5.5426   526.4674 </r>
       <r>    -3.0576     0.8629   528.0000 </r>
       <r>    -2.9417     0.0000   528.0000 </r>
       <r>    -2.8258     0.0000   528.0000 </r>
       <r>    -2.7099     0.0000   528.0000 </r>
       <r>    -2.5940     0.0000   528.0000 </r>
       <r>    -2.4781     0.0000   528.0000 </r>
       <r>    -2.3622     0.0000   528.0000 </r>
       <r>    -2.2463     0.0000   528.0000 </r>
       <r>    -2.1304     0.0000   528.0000 </r>
       <r>    -2.0145     0.0000   528.0000 </r>
       <r>    -1.8987     0.0000   528.0000 </r>
       <r>    -1.7828     0.0000   528.0000 </r>
       <r>    -1.6669     0.0000   528.0000 </r>
       <r>    -1.5510     1.7240   528.1998 </r>
       <r>    -1.4351     3.0423   528.6276 </r>
       <r>    -1.3192     3.7949   529.1648 </r>
       <r>    -1.2033     3.8423   529.7453 </r>
       <r>    -1.0874     3.2942   530.3568 </r>
       <r>    -0.9715     7.6125   531.5822 </r>
       <r>    -0.8556    11.9210   533.3316 </r>
       <r>    -0.7397    13.5040   535.4900 </r>
       <r>    -0.6238    14.4754   537.8526 </r>
       <r>    -0.5079    56.1782   545.6607 </r>
       <r>    -0.3920    62.9456   555.9700 </r>
       <r>    -0.2761    58.9468   565.7566 </r>
       <r>    -0.1602    55.3863   575.0439 </r>
       <r>    -0.0443    62.7579   585.6733 </r>
       <r>     0.0715    59.0010   595.1629 </r>
       <r>     0.1874    67.7956   605.6821 </r>
       <r>     0.3033    92.6768   619.7157 </r>
       <r>     0.4192   103.8659   636.9124 </r>
       <r>     0.5351   102.9148   656.2772 </r>
       <r>     0.6510   100.0806   673.9987 </r>
       <r>     0.7669   102.0998   689.9828 </r>
       <r>     0.8828    76.2134   702.0327 </r>
       <r>     0.9987   121.5766   720.0400 </r>
       <r>     1.1146    67.5038   735.5483 </r>
       <r>     1.2305    52.8895   744.0796 </r>
       <r>     1.3464    83.7881   755.7605 </r>
       <r>     1.4623    57.1542   765.8738 </r>
       <r>     1.5782    60.9260   776.2860 </r>
       <r>     1.6941    58.1866   786.1935 </r>
       <r>     1.8100    19.5787   791.6191 </r>
       <r>     1.9259     2.1565   791.9999 </r>
       <r>     2.0417     0.0000   792.0000 </r>
       <r>     2.1576     0.0000   792.0000 </r>
       <r>     2.2735     0.0000   792.0000 </r>
       <r>     2.3894     0.0000   792.0000 </r>
       <r>     2.5053     0.0000   792.0000 </r>
       <r>     2.6212     0.0184   792.0021 </r>
       <r>     2.7371    22.6375   794.8985 </r>
       <r>     2.8530    37.2046   801.1368 </r>
       <r>     2.9689    48.5407   808.5506 </r>
       <r>     3.0848    43.0196   816.5357 </r>
       <r>     3.2007    69.0004   826.8217 </r>
       <r>     3.3166    60.7233   837.1625 </r>
       <r>     3.4325    61.9662   847.4315 </r>
       <r>     3.5484    56.5406   856.8527 </r>
       <r>     3.6643    66.0881   867.4092 </r>
       <r>     3.7802    52.9420   877.0107 </r>
       <r>     3.8960    61.0129   886.8960 </r>
       <r>     4.0119    64.1081   897.8297 </r>
       <r>     4.1278    52.0889   907.9118 </r>
       <r>     4.2437    51.0796   916.6448 </r>
       <r>     4.3596    69.0558   928.5531 </r>
       <r>     4.4755    68.1329   940.4712 </r>
       <r>     4.5914    55.3277   950.8622 </r>
       <r>     4.7073    28.8790   956.4219 </r>
       <r>     4.8232    12.0163   958.9176 </r>
       <r>     4.9391     4.0800   959.8229 </r>
       <r>     5.0550     0.2157   960.0000 </r>
       <r>     5.1709     0.0000   960.0000 </r>
       <r>     5.2868     0.0000   960.0000 </r>
       <r>     5.4027     0.0000   960.0000 </r>
       <r>     5.5186     0.0000   960.0000 </r>
       <r>     5.6345     0.0000   960.0000 </r>
       <r>     5.7504     0.0000   960.0000 </r>
       <r>     5.8662     0.0000   960.0000 </r>
       <r>     5.9821     0.0000   960.0000 </r>
       <r>     6.0980     0.0000   960.0000 </r>
       <r>     6.2139     0.0000   960.0000 </r>
       <r>     6.3298     0.0000   960.0000 </r>
       <r>     6.4457     0.0000   960.0000 </r>
       <r>     6.5616     0.0000   960.0000 </r>
      </set>
     </set>
    </array>
   </total>
  </dos>
 </calculation>
 <structure name="finalpos" >
  <crystal>
   <varray name="basis" >
    <v>      64.05652147       0.00000000       0.00000000 </v>
    <v>       0.00000000       6.69415221       0.00000000 </v>
    <v>       0.00000000       0.00000000      11.46066234 </v>
   </varray>
   <i name="volume">   4914.37905373 </i>
   <varray name="rec_basis" >
    <v>       0.01561121       0.00000000       0.00000000 </v>
    <v>       0.00000000       0.14938411       0.00000000 </v>
    <v>       0.00000000       0.00000000       0.08725499 </v>
   </varray>
  </crystal>
  <varray name="positions" >
   <v>       0.00512463       0.25000000       0.70094999 </v>
   <v>       0.14196586       0.25000000       0.69046693 </v>
   <v>       0.28141227       0.25000000       0.69134330 </v>
   <v>       0.42095562       0.25000000       0.69149457 </v>
   <v>       0.56050418       0.25000000       0.69107740 </v>
   <v>       0.70166131       0.25000000       0.69289840 </v>
   <v>       0.13734084       0.75000002       0.30813091 </v>
   <v>       0.27691591       0.75000002       0.30862809 </v>
   <v>       0.41649203       0.75000002       0.30882602 </v>
   <v>       0.55606311       0.75000002       0.30875705 </v>
   <v>       0.69528265       0.75000002       0.30838312 </v>
   <v>       0.06596815       0.75000002       0.19289834 </v>
   <v>       0.20712534       0.75000002       0.19107734 </v>
   <v>       0.34667388       0.75000002       0.19149451 </v>
   <v>       0.48621723       0.75000002       0.19134324 </v>
   <v>       0.62566362       0.75000002       0.19046687 </v>
   <v>       0.76250485       0.75000002       0.20094993 </v>
   <v>       0.07234683       0.25000000       0.80838316 </v>
   <v>       0.21156639       0.25000000       0.80875709 </v>
   <v>       0.35113744       0.25000000       0.80882606 </v>
   <v>       0.49071353       0.25000000       0.80862813 </v>
   <v>       0.63028861       0.25000000       0.80813095 </v>
   <v>       0.02992874       0.75000002       0.91206780 </v>
   <v>       0.16227051       0.75000002       0.90581237 </v>
   <v>       0.30161379       0.75000002       0.90606786 </v>
   <v>       0.44107083       0.75000002       0.90602307 </v>
   <v>       0.58061037       0.75000002       0.90507927 </v>
   <v>       0.71936095       0.75000002       0.89563563 </v>
   <v>       0.11660403       0.25000000       0.09312781 </v>
   <v>       0.25668810       0.25000000       0.09403158 </v>
   <v>       0.39629820       0.25000000       0.09396790 </v>
   <v>       0.53581729       0.25000000       0.09389276 </v>
   <v>       0.67510328       0.25000000       0.09513974 </v>
   <v>       0.04826849       0.25000000       0.39563571 </v>
   <v>       0.18701912       0.25000000       0.40507935 </v>
   <v>       0.32655864       0.25000000       0.40602315 </v>
   <v>       0.46601571       0.25000000       0.40606794 </v>
   <v>       0.60535899       0.25000000       0.40581246 </v>
   <v>       0.73770070       0.25000000       0.41206788 </v>
   <v>       0.09252616       0.75000002       0.59513972 </v>
   <v>       0.23181217       0.75000002       0.59389274 </v>
   <v>       0.37133126       0.75000002       0.59396788 </v>
   <v>       0.51094140       0.75000002       0.59403156 </v>
   <v>       0.65102546       0.75000002       0.59312779 </v>
   <v>       0.02532033       0.07135080       0.14548879 </v>
   <v>       0.16621824       0.07010731       0.14585316 </v>
   <v>       0.30593290       0.07013120       0.14651301 </v>
   <v>       0.44549764       0.07010567       0.14633329 </v>
   <v>       0.58501027       0.07007264       0.14539429 </v>
   <v>       0.72425687       0.07124091       0.14189587 </v>
   <v>       0.11346781       0.93026902       0.85415996 </v>
   <v>       0.25237946       0.92988545       0.85360691 </v>
   <v>       0.39187428       0.92987569       0.85373064 </v>
   <v>       0.53141656       0.92990800       0.85369957 </v>
   <v>       0.67113753       0.93058643       0.85311564 </v>
   <v>       0.04337256       0.92875908       0.64189589 </v>
   <v>       0.18261922       0.92992735       0.64539431 </v>
   <v>       0.32213182       0.92989433       0.64633331 </v>
   <v>       0.46169660       0.92986879       0.64651303 </v>
   <v>       0.60141127       0.92989268       0.64585318 </v>
   <v>       0.74230911       0.92864919       0.64548881 </v>
   <v>       0.09649192       0.06941356       0.35311564 </v>
   <v>       0.23621290       0.07009199       0.35369957 </v>
   <v>       0.37575519       0.07012430       0.35373064 </v>
   <v>       0.51525004       0.07011455       0.35360691 </v>
   <v>       0.65416167       0.06973097       0.35415996 </v>
   <v>       0.11346781       0.56973098       0.85415996 </v>
   <v>       0.25237946       0.57011455       0.85360691 </v>
   <v>       0.39187428       0.57012431       0.85373064 </v>
   <v>       0.53141656       0.57009200       0.85369957 </v>
   <v>       0.67113753       0.56941357       0.85311564 </v>
   <v>       0.02532033       0.42864919       0.14548879 </v>
   <v>       0.16621824       0.42989268       0.14585316 </v>
   <v>       0.30593290       0.42986879       0.14651301 </v>
   <v>       0.44549764       0.42989433       0.14633329 </v>
   <v>       0.58501027       0.42992735       0.14539429 </v>
   <v>       0.72425687       0.42875908       0.14189587 </v>
   <v>       0.09649192       0.43058643       0.35311564 </v>
   <v>       0.23621290       0.42990800       0.35369957 </v>
   <v>       0.37575519       0.42987569       0.35373064 </v>
   <v>       0.51525004       0.42988545       0.35360691 </v>
   <v>       0.65416167       0.43026902       0.35415996 </v>
   <v>       0.04337256       0.57124092       0.64189589 </v>
   <v>       0.18261922       0.57007265       0.64539431 </v>
   <v>       0.32213182       0.57010567       0.64633331 </v>
   <v>       0.46169660       0.57013121       0.64651303 </v>
   <v>       0.60141127       0.57010732       0.64585318 </v>
   <v>       0.74230911       0.57135081       0.64548881 </v>
   <v>       0.01036963       0.75000002       0.61806615 </v>
   <v>       0.15126310       0.75000002       0.59111990 </v>
   <v>       0.29077395       0.75000002       0.59177583 </v>
   <v>       0.43033329       0.75000002       0.59192471 </v>
   <v>       0.57001941       0.75000002       0.59162543 </v>
   <v>       0.71035654       0.75000002       0.58260046 </v>
   <v>       0.12772718       0.25000000       0.40812269 </v>
   <v>       0.26756846       0.25000000       0.40835854 </v>
   <v>       0.40711638       0.25000000       0.40832121 </v>
   <v>       0.54659848       0.25000000       0.40804707 </v>
   <v>       0.68526468       0.25000000       0.40892750 </v>
   <v>       0.05727291       0.25000000       0.08260040 </v>
   <v>       0.19761006       0.25000000       0.09162537 </v>
   <v>       0.33729617       0.25000000       0.09192465 </v>
   <v>       0.47685549       0.25000000       0.09177577 </v>
   <v>       0.61636638       0.25000000       0.09111984 </v>
   <v>       0.75725979       0.25000000       0.11806609 </v>
   <v>       0.08236480       0.75000002       0.90892754 </v>
   <v>       0.22103099       0.75000002       0.90804711 </v>
   <v>       0.36051311       0.75000002       0.90832125 </v>
   <v>       0.50006097       0.75000002       0.90835858 </v>
   <v>       0.63990233       0.75000002       0.90812273 </v>
   <v>       0.02555811       0.25000000       0.96270519 </v>
   <v>       0.16682245       0.25000000       0.96398293 </v>
   <v>       0.30649648       0.25000000       0.96456403 </v>
   <v>       0.44606443       0.25000000       0.96434629 </v>
   <v>       0.58558241       0.25000000       0.96349488 </v>
   <v>       0.73142984       0.25000000       0.96168533 </v>
   <v>       0.11241582       0.75000002       0.03691460 </v>
   <v>       0.25181826       0.75000002       0.03557850 </v>
   <v>       0.39132437       0.75000002       0.03573267 </v>
   <v>       0.53087446       0.75000002       0.03574221 </v>
   <v>       0.67062339       0.75000002       0.03536881 </v>
   <v>       0.03619961       0.75000002       0.46168525 </v>
   <v>       0.18204710       0.75000002       0.46349480 </v>
   <v>       0.32156504       0.75000002       0.46434621 </v>
   <v>       0.46113302       0.75000002       0.46456395 </v>
   <v>       0.60080704       0.75000002       0.46398285 </v>
   <v>       0.74207138       0.75000002       0.46270510 </v>
   <v>       0.09700610       0.25000000       0.53536879 </v>
   <v>       0.23675502       0.25000000       0.53574220 </v>
   <v>       0.37630513       0.25000000       0.53573265 </v>
   <v>       0.51581121       0.25000000       0.53557848 </v>
   <v>       0.65521369       0.25000000       0.53691459 </v>
  </varray>
 </structure>
</modeling>
