 vasp.5.4.4.18Apr17-6-g9f103f2a35 (build Nov 21 2017 15:30:27) complex          
  
 executed on             LinuxIFC date 2020.11.09  11:55:50
 running on   64 total cores
 distrk:  each k-point on   32 cores,    2 groups
 distr:  one band on NCORES_PER_BAND=   4 cores,    8 groups


--------------------------------------------------------------------------------------------------------


 INCAR:
 POTCAR:   PAW_PBE Ba_sv 06Sep2000                
 POTCAR:   PAW_PBE Si 05Jan2001                   

 ----------------------------------------------------------------------------- 
|                                                                             |
|           W    W    AA    RRRRR   N    N  II  N    N   GGGG   !!!           |
|           W    W   A  A   R    R  NN   N  II  NN   N  G    G  !!!           |
|           W    W  A    A  R    R  N N  N  II  N N  N  G       !!!           |
|           W WW W  AAAAAA  RRRRR   N  N N  II  N  N N  G  GGG   !            |
|           WW  WW  A    A  R   R   N   NN  II  N   NN  G    G                |
|           W    W  A    A  R    R  N    N  II  N    N   GGGG   !!!           |
|                                                                             |
|      You have enabled k-point parallelism (KPAR>1).                         |
|      This developmental code was originally  written by Paul Kent at ORNL,  |
|      and carefully double checked in Vienna.                                |
|      GW as well as linear response parallelism added by Martijn Marsman     |
|      and Georg Kresse.                                                      |
|      Carefully verify results versus KPAR=1.                                |
|      Report problems to Paul Kent and Vienna.                               |
|                                                                             |
 ----------------------------------------------------------------------------- 


 ----------------------------------------------------------------------------- 
|                                                                             |
|  ADVICE TO THIS USER RUNNING 'VASP/VAMP'   (HEAR YOUR MASTER'S VOICE ...):  |
|                                                                             |
|      You have switched on vdW-DFT.                                          |
|      This routine was written and supplied by Jiri Klimes.                  |
|      We recommed that you carefully read and cite the following             |
|      publication                                                            |
|      J. Klimes, D.R. Bowler, A. Michelides                                  |
|        J. Phys.: Cond Matt. 22 022201 (2010)                                |
|      J. Klimes, D.R. Bowler, A. Michelides                                  |
|        Phys. Rev. B. 83, 195131 (2011)                                      |
|      and references therein.                                                |
|                                                                             |
 ----------------------------------------------------------------------------- 

 POTCAR:   PAW_PBE Ba_sv 06Sep2000                
   VRHFIN =Ba: 5s5p6s                                                           
   LEXCH  = PE                                                                  
   EATOM  =   700.2255 eV,   51.4651 Ry                                         
                                                                                
   TITEL  = PAW_PBE Ba_sv 06Sep2000                                             
   LULTRA =        F    use ultrasoft PP ?                                      
   IUNSCR =        1    unscreen: 0-lin 1-nonlin 2-no                           
   RPACOR =    2.400    partial core radius                                     
   POMASS =  137.327; ZVAL   =   10.000    mass and valenz                      
   RCORE  =    2.800    outmost cutoff radius                                   
   RWIGS  =    3.740; RWIGS  =    1.979    wigner-seitz radius (au A)           
   ENMAX  =  187.210; ENMIN  =  140.408 eV                                      
   RCLOC  =    2.516    cutoff for local pot                                    
   LCOR   =        T    correct aug charges                                     
   LPAW   =        T    paw PP                                                  
   EAUG   =  351.165                                                            
   DEXC   =     .000                                                            
   RMAX   =    3.370    core radius for proj-oper                               
   RAUG   =    1.300    factor for augmentation sphere                          
   RDEP   =    2.976    radius for radial grids                                 
   QCUT   =   -3.709; QGAM   =    7.419    optimization parameters              
                                                                                
   Description                                                                  
     l     E      TYP  RCUT    TYP  RCUT                                        
     0   .000     23  2.800                                                     
     0   .000     23  2.800                                                     
     1   .000     23  2.700                                                     
     1  2.000     23  2.700                                                     
     2   .000     23  2.700                                                     
     2   .000     23  2.700                                                     
  local pseudopotential read in
  partial core-charges read in
  atomic valenz-charges read in
  non local Contribution for L=           0  read in
    real space projection operators read in
  non local Contribution for L=           0  read in
    real space projection operators read in
  non local Contribution for L=           1  read in
    real space projection operators read in
  non local Contribution for L=           1  read in
    real space projection operators read in
  non local Contribution for L=           2  read in
    real space projection operators read in
  non local Contribution for L=           2  read in
    real space projection operators read in
    PAW grid and wavefunctions read in
 
   number of l-projection  operators is LMAX  =           6
   number of lm-projection operators is LMMAX =          18
 
 POTCAR:   PAW_PBE Si 05Jan2001                   
   VRHFIN =Si: s2p2                                                             
   LEXCH  = PE                                                                  
   EATOM  =   103.0669 eV,    7.5752 Ry                                         
                                                                                
   TITEL  = PAW_PBE Si 05Jan2001                                                
   LULTRA =        F    use ultrasoft PP ?                                      
   IUNSCR =        1    unscreen: 0-lin 1-nonlin 2-no                           
   RPACOR =    1.500    partial core radius                                     
   POMASS =   28.085; ZVAL   =    4.000    mass and valenz                      
   RCORE  =    1.900    outmost cutoff radius                                   
   RWIGS  =    2.480; RWIGS  =    1.312    wigner-seitz radius (au A)           
   ENMAX  =  245.345; ENMIN  =  184.009 eV                                      
   ICORE  =        2    local potential                                         
   LCOR   =        T    correct aug charges                                     
   LPAW   =        T    paw PP                                                  
   EAUG   =  322.069                                                            
   DEXC   =    -.007                                                            
   RMAX   =    2.944    core radius for proj-oper                               
   RAUG   =    1.300    factor for augmentation sphere                          
   RDEP   =    1.993    radius for radial grids                                 
   QCUT   =   -4.246; QGAM   =    8.493    optimization parameters              
                                                                                
   Description                                                                  
     l     E      TYP  RCUT    TYP  RCUT                                        
     0   .000     23  1.900                                                     
     0   .000     23  1.900                                                     
     1   .000     23  1.900                                                     
     1   .000     23  1.900                                                     
     2   .000      7  1.900                                                     
  local pseudopotential read in
  partial core-charges read in
  atomic valenz-charges read in
  non local Contribution for L=           0  read in
    real space projection operators read in
  non local Contribution for L=           0  read in
    real space projection operators read in
  non local Contribution for L=           1  read in
    real space projection operators read in
  non local Contribution for L=           1  read in
    real space projection operators read in
    PAW grid and wavefunctions read in
 
   number of l-projection  operators is LMAX  =           4
   number of lm-projection operators is LMMAX =           8
 
 Optimization of the real space projectors (new method)

 maximal supplied QI-value         = 13.42
 optimisation between [QCUT,QGAM] = [ 11.40, 22.81] = [ 36.42,145.68] Ry 
 Optimized for a Real-space Cutoff    1.56 Angstroem

   l    n(q)    QCUT    max X(q) W(low)/X(q) W(high)/X(q)  e(spline) 
   0     11    11.404     7.198    0.14E-04    0.26E-04    0.99E-07
   0     11    11.404    15.603    0.29E-04    0.72E-04    0.44E-06
   1     10    11.404     3.746    0.20E-04    0.24E-04    0.43E-07
   1     10    11.404     4.362    0.22E-03    0.97E-04    0.22E-06
   2     10    11.404     5.782    0.83E-04    0.62E-05    0.27E-06
   2     10    11.404    65.505    0.42E-03    0.31E-04    0.12E-05
 Optimization of the real space projectors (new method)

 maximal supplied QI-value         = 19.84
 optimisation between [QCUT,QGAM] = [ 11.31, 22.82] = [ 35.82,145.81] Ry 
 Optimized for a Real-space Cutoff    1.16 Angstroem

   l    n(q)    QCUT    max X(q) W(low)/X(q) W(high)/X(q)  e(spline) 
   0      8    11.310     8.708    0.14E-04    0.11E-04    0.43E-08
   0      8    11.310   106.241    0.27E-03    0.30E-03    0.38E-07
   1      7    11.310     5.901    0.82E-05    0.48E-04    0.19E-07
   1      7    11.310    73.241    0.27E-03    0.27E-03    0.74E-07

 ----------------------------------------------------------------------------- 
|                                                                             |
|  ADVICE TO THIS USER RUNNING 'VASP/VAMP'   (HEAR YOUR MASTER'S VOICE ...):  |
|                                                                             |
|      You enforced a specific xc-type in the INCAR file,                     |
|      a different type was found on the POTCAR file                          |
|          I HOPE YOU KNOW, WHAT YOU ARE  DOING                               |
|                                                                             |
 ----------------------------------------------------------------------------- 

 PAW_PBE Ba_sv 06Sep2000                :
 energy of atom  1       EATOM= -700.2255
 kinetic energy error for atom=    0.0005 (will be added to EATOM!!)
 PAW_PBE Si 05Jan2001                   :
 energy of atom  2       EATOM= -103.0669
 kinetic energy error for atom=    0.0006 (will be added to EATOM!!)
 
 
 POSCAR: ba8 si16                                
  positions in direct lattice
  velocities in cartesian coordinates
 exchange correlation table for  LEXCH =       43
   RHO(1)=    0.500       N(1)  =     2000
   RHO(2)=  100.500       N(2)  =     4000
 


--------------------------------------------------------------------------------------------------------


 ion  position               nearest neighbor table
   1  0.011  0.250  0.699-  31 3.26  18 3.34  14 3.34  25 3.46  25 3.46   7 4.41   7 4.41   8 4.44
                             3 4.52
   2  0.149  0.750  0.192-  27 3.38  15 3.40  17 3.40  13 3.42  16 3.42  35 3.49  32 3.57  26 3.58
                            26 3.58   7 3.92   8 4.19   8 4.19
   3  0.163  0.250  0.809-  26 3.26  18 3.39  14 3.39  22 3.43  20 3.43  33 3.48  31 3.52  27 3.56
                            27 3.56   9 4.32   9 4.32  11 4.32   7 4.43   7 4.43   1 4.52
   4  0.325  0.250  0.692-  29 3.38  22 3.40  20 3.40  24 3.42  21 3.42  33 3.49  34 3.57  28 3.58
                            28 3.58  12 3.92  10 4.19  10 4.19
   5  0.311  0.750  0.309-  28 3.26  19 3.39  23 3.39  15 3.43  17 3.43  35 3.48  36 3.52  29 3.56
                            29 3.56  11 4.32  11 4.32   9 4.32  12 4.43  12 4.43   6 4.52
   6  0.463  0.750  0.199-  36 3.26  19 3.34  23 3.34  30 3.46  30 3.46  12 4.41  12 4.41  10 4.44
                             5 4.52
   7  0.068  0.750  0.912-  31 3.38  31 3.38  27 3.39  14 3.41  18 3.41  13 3.42  16 3.42  25 3.58
                             2 3.92   1 4.41   1 4.41   3 4.43   3 4.43
   8  0.109  0.250  0.396-  17 3.34  15 3.34  16 3.42  13 3.42  32 3.47  32 3.47  18 3.51  14 3.51
                            33 3.52  26 3.59   2 4.19   2 4.19   1 4.44
   9  0.210  0.750  0.594-  33 3.38  33 3.38  20 3.44  22 3.44  14 3.44  18 3.44  15 3.46  17 3.46
                            27 3.63  28 3.89  32 3.94   3 4.32   3 4.32   5 4.32
  10  0.365  0.750  0.896-  20 3.34  22 3.34  21 3.42  24 3.42  34 3.47  34 3.47  19 3.51  23 3.51
                            35 3.52  28 3.59   4 4.19   4 4.19   6 4.44
  11  0.264  0.250  0.094-  35 3.38  35 3.38  17 3.44  15 3.44  23 3.44  19 3.44  22 3.46  20 3.46
                            29 3.63  26 3.89  34 3.94   5 4.32   5 4.32   3 4.32
  12  0.406  0.250  0.412-  36 3.38  36 3.38  29 3.39  23 3.41  19 3.41  24 3.42  21 3.42  30 3.58
                             4 3.92   6 4.41   6 4.41   5 4.43   5 4.43
  13  0.056  0.069  0.148-  16 2.39  31 2.41  26 2.48   8 3.42   7 3.42   2 3.42
  14  0.098  0.931  0.641-  18 2.39  32 2.43  25 2.44   1 3.34   3 3.39   7 3.41   9 3.44   8 3.51

  15  0.217  0.067  0.352-  29 2.41  17 2.42  33 2.42   8 3.34   2 3.40   5 3.43  11 3.44   9 3.46

  16  0.056  0.431  0.148-  13 2.39  31 2.41  26 2.48   8 3.42   7 3.42   2 3.42
  17  0.217  0.433  0.352-  29 2.41  15 2.42  33 2.42   8 3.34   2 3.40   5 3.43  11 3.44   9 3.46

  18  0.098  0.569  0.641-  14 2.39  32 2.43  25 2.44   1 3.34   3 3.39   7 3.41   9 3.44   8 3.51

  19  0.376  0.069  0.141-  23 2.39  34 2.43  30 2.44   6 3.34   5 3.39  12 3.41  11 3.44  10 3.51

  20  0.257  0.933  0.852-  27 2.41  22 2.42  35 2.42  10 3.34   4 3.40   3 3.43   9 3.44  11 3.46

  21  0.418  0.931  0.648-  24 2.39  36 2.41  28 2.48  10 3.42  12 3.42   4 3.42
  22  0.257  0.567  0.852-  27 2.41  20 2.42  35 2.42  10 3.34   4 3.40   3 3.43   9 3.44  11 3.46

  23  0.376  0.431  0.141-  19 2.39  34 2.43  30 2.44   6 3.34   5 3.39  12 3.41  11 3.44  10 3.51

  24  0.418  0.569  0.648-  21 2.39  36 2.41  28 2.48  10 3.42  12 3.42   4 3.42
  25  0.024  0.750  0.616-  32 2.43  14 2.44  18 2.44   1 3.46   1 3.46   7 3.58
  26  0.127  0.250  0.082-  31 2.45  16 2.48  13 2.48   3 3.26   2 3.58   2 3.58   8 3.59  11 3.89

  27  0.187  0.750  0.909-  20 2.41  22 2.41  35 2.41   2 3.38   7 3.39   3 3.56   3 3.56   9 3.63

  28  0.346  0.750  0.582-  36 2.45  21 2.48  24 2.48   5 3.26   4 3.58   4 3.58  10 3.59   9 3.89

  29  0.287  0.250  0.409-  17 2.41  15 2.41  33 2.41   4 3.38  12 3.39   5 3.56   5 3.56  11 3.63

  30  0.450  0.250  0.116-  34 2.43  23 2.44  19 2.44   6 3.46   6 3.46  12 3.58
  31  0.056  0.250  0.963-  16 2.41  13 2.41  26 2.45   1 3.26   7 3.38   7 3.38   3 3.52
  32  0.083  0.750  0.459-  14 2.43  18 2.43  25 2.43   8 3.47   8 3.47   2 3.57   9 3.94
  33  0.219  0.250  0.537-  29 2.41  17 2.42  15 2.42   9 3.38   9 3.38   3 3.48   4 3.49   8 3.52

  34  0.391  0.250  0.959-  23 2.43  19 2.43  30 2.43  10 3.47  10 3.47   4 3.57  11 3.94
  35  0.255  0.750  0.037-  27 2.41  20 2.42  22 2.42  11 3.38  11 3.38   5 3.48   2 3.49  10 3.52

  36  0.418  0.750  0.463-  21 2.41  24 2.41  28 2.45   6 3.26  12 3.38  12 3.38   5 3.52
 
  LATTYP: Found a simple orthorhombic cell.
 ALAT       =     6.6162644169
 B/A-ratio  =     1.7145772964
 C/A-ratio  =     4.3072897642
  
  Lattice vectors:
  
 A1 = (   0.0000000000,   6.6162644169,   0.0000000000)
 A2 = (   0.0000000000,   0.0000000000, -11.3440967564)
 A3 = ( -28.4981679999,   0.0000000000,   0.0000000000)


Analysis of symmetry for initial positions (statically):
=====================================================================
 Subroutine PRICEL returns:
 Original cell was already a primitive cell.
 

 Routine SETGRP: Setting up the symmetry group for a 
 simple orthorhombic supercell.


 Subroutine GETGRP returns: Found  4 space group operations
 (whereof  1 operations were pure point group operations)
 out of a pool of  8 trial point group operations.


The static configuration has the point symmetry C_1 .
 The point group associated with its full space group is C_2v.


Analysis of symmetry for dynamics (positions and initial velocities):
=====================================================================
 Subroutine PRICEL returns:
 Original cell was already a primitive cell.
 

 Routine SETGRP: Setting up the symmetry group for a 
 simple orthorhombic supercell.


 Subroutine GETGRP returns: Found  4 space group operations
 (whereof  1 operations were pure point group operations)
 out of a pool of  8 trial point group operations.


The dynamic configuration has the point symmetry C_1 .
 The point group associated with its full space group is C_2v.


 Subroutine INISYM returns: Found  4 space group operations
 (whereof  1 operations are pure point group operations),
 and found     1 'primitive' translations

 
 
 KPOINTS: k-points along high symmetry lines      
  interpolating k-points between supplied coordinates
  k-points in reciprocal lattice
Space group operators:
 irot       det(A)        alpha          n_x          n_y          n_z        tau_x        tau_y        tau_z
    1     1.000000     0.000000     1.000000     0.000000     0.000000     0.000000     0.000000     0.000000
    2    -1.000000   180.000000     1.000000     0.000000     0.000000    -0.526054     0.500000    -0.500000
    3     1.000000   180.000000     0.000000     0.000000     1.000000    -0.526054     0.000000    -0.500000
    4    -1.000000   180.000000     0.000000     1.000000     0.000000     0.000000     0.500000     0.000000


--------------------------------------------------------------------------------------------------------




 Dimension of arrays:
   k-points           NKPTS =     80   k-points in BZ     NKDIM =     80   number of bands    NBANDS=    136
   number of dos      NEDOS =    301   number of ions     NIONS =     36
   non local maximal  LDIM  =      6   non local SUM 2l+1 LMDIM =     18
   total plane-waves  NPLWV = 368640
   max r-space proj   IRMAX =   2812   max aug-charges    IRDMAX=  10987
   dimension x,y,z NGX =   160 NGY =   36 NGZ =   64
   dimension x,y,z NGXF=   320 NGYF=   72 NGZF=  128
   support grid    NGXF=   320 NGYF=   72 NGZF=  128
   ions per type =              12  24
   NGX,Y,Z   is equivalent  to a cutoff of   9.33,  9.05,  9.38 a.u.
   NGXF,Y,Z  is equivalent  to a cutoff of  18.67, 18.09, 18.76 a.u.

 SYSTEM =  unknown system                          
 POSCAR =  ba8 si16                                

 Startparameter for this run:
   NWRITE =      2    write-flag & timer
   PREC   = normal    normal or accurate (medium, high low for compatibility)
   ISTART =      0    job   : 0-new  1-cont  2-samecut
   ICHARG =     11    charge: 1-file 2-atom 10-const
   ISPIN  =      1    spin polarized calculation?
   LNONCOLLINEAR =      F non collinear calculations
   LSORBIT =      F    spin-orbit coupling
   INIWAV =      1    electr: 0-lowe 1-rand  2-diag
   LASPH  =      T    aspherical Exc in radial PAW
   METAGGA=      F    non-selfconsistent MetaGGA calc.

 Electronic Relaxation 1
   ENCUT  =  500.0 eV  36.75 Ry    6.06 a.u.  51.96 12.06 20.68*2*pi/ulx,y,z
   ENINI  =  500.0     initial cutoff
   ENAUG  =  351.2 eV  augmentation charge cutoff
   NELM   =    100;   NELMIN=  2; NELMDL= -5     # of ELM steps 
   EDIFF  = 0.1E-05   stopping-criterion for ELM
   LREAL  =      T    real-space projection
   NLSPLINE    = F    spline interpolate recip. space projectors
   LCOMPAT=      F    compatible to vasp.4.4
   GGA_COMPAT  = T    GGA compatible to vasp.4.4-vasp.4.6
   LMAXPAW     = -100 max onsite density
   LMAXMIX     =    2 max onsite mixed and CHGCAR
   VOSKOWN=      0    Vosko Wilk Nusair interpolation
   ROPT   =   -0.00050  -0.00050
 Ionic relaxation
   EDIFFG = -.1E-01   stopping-criterion for IOM
   NSW    =      0    number of steps for IOM
   NBLOCK =      1;   KBLOCK =      1    inner block; outer block 
   IBRION =     -1    ionic relax: 0-MD 1-quasi-New 2-CG
   NFREE  =      0    steps in history (QN), initial steepest desc. (CG)
   ISIF   =      2    stress and relaxation
   IWAVPR =     10    prediction:  0-non 1-charg 2-wave 3-comb
   ISYM   =      2    0-nonsym 1-usesym 2-fastsym
   LCORR  =      T    Harris-Foulkes like correction to forces

   POTIM  = 0.3000    time-step for ionic-motion
   TEIN   =    0.0    initial temperature
   TEBEG  =    0.0;   TEEND  =   0.0 temperature during run
   SMASS  =  -3.00    Nose mass-parameter (am)
   estimated Nose-frequenzy (Omega)   =  0.10E-29 period in steps =****** mass=  -0.186E-25a.u.
   SCALEE = 1.0000    scale energy and forces
   NPACO  =    256;   APACO  = 16.0  distance and # of slots for P.C.
   PSTRESS=    0.0 pullay stress

  Mass of Ions in am
   POMASS = 137.33 28.09
  Ionic Valenz
   ZVAL   =  10.00  4.00
  Atomic Wigner-Seitz radii
   RWIGS  =  -1.00 -1.00
  virtual crystal weights 
   VCA    =   1.00  1.00
   NELECT =     216.0000    total number of electrons
   NUPDOWN=      -1.0000    fix difference up-down

 DOS related values:
   EMIN   =  10.00;   EMAX   =-10.00  energy-range for DOS
   EFERMI =   0.00
   ISMEAR =     0;   SIGMA  =   0.01  broadening in eV -4-tet -1-fermi 0-gaus

 Electronic relaxation 2 (details)
   IALGO  =     38    algorithm
   LDIAG  =      T    sub-space diagonalisation (order eigenvalues)
   LSUBROT=      F    optimize rotation matrix (better conditioning)
   TURBO    =      0    0=normal 1=particle mesh
   IRESTART =      0    0=no restart 2=restart with 2 vectors
   NREBOOT  =      0    no. of reboots
   NMIN     =      0    reboot dimension
   EREF     =   0.00    reference energy to select bands
   IMIX   =      4    mixing-type and parameters
     AMIX     =   0.40;   BMIX     =  1.00
     AMIX_MAG =   1.60;   BMIX_MAG =  1.00
     AMIN     =   0.10
     WC   =   100.;   INIMIX=   1;  MIXPRE=   1;  MAXMIX= -45

 Intra band minimization:
   WEIMIN = 0.0000     energy-eigenvalue tresh-hold
   EBREAK =  0.18E-08  absolut break condition
   DEPER  =   0.30     relativ break condition  

   TIME   =   0.40     timestep for ELM

  volume/ion in A,a.u.               =      59.42       400.95
  Fermi-wavevector in a.u.,A,eV,Ry     =   0.762359  1.440650  7.907586  0.581191
  Thomas-Fermi vector in A             =   1.861803
 
 Write flags
   LWAVE        =      T    write WAVECAR
   LDOWNSAMPLE  =      F    k-point downsampling of WAVECAR
   LCHARG       =      T    write CHGCAR
   LVTOT        =      F    write LOCPOT, total local potential
   LVHAR        =      F    write LOCPOT, Hartree potential only
   LELF         =      F    write electronic localiz. function (ELF)
   LORBIT       =      0    0 simple, 1 ext, 2 COOP (PROOUT), +10 PAW based schemes


 Dipole corrections
   LMONO  =      F    monopole corrections only (constant potential shift)
   LDIPOL =      F    correct potential (dipole corrections)
   IDIPOL =      0    1-x, 2-y, 3-z, 4-all directions 
   EPSILON=  1.0000000 bulk dielectric constant

 Exchange correlation treatment:
   GGA     =    MK    GGA type
   LEXCH   =    43    internal setting for exchange type
   VOSKOWN=      0    Vosko Wilk Nusair interpolation
   LHFCALC =     F    Hartree Fock is set to
   LHFONE  =     F    Hartree Fock one center treatment
   AEXX    =    0.0000 exact exchange contribution

 vdW DFT:
   LUSE_VDW   =     T    switch on vdW DFT
   Zab_VDW    =******    correlation parameter
   PARAM1     =0.1234
   PARAM2     =0.7114
   PARAM3     =0.0000
   -- rVV10 --
   BPARAM     = 6.3000
   CPARAM     = 0.0093

 Linear response parameters
   LEPSILON=     F    determine dielectric tensor
   LRPA    =     F    only Hartree local field effects (RPA)
   LNABLA  =     F    use nabla operator in PAW spheres
   LVEL    =     F    velocity operator in full k-point grid
   LINTERFAST=   F  fast interpolation
   KINTER  =     0    interpolate to denser k-point grid
   CSHIFT  =0.1000    complex shift for real part using Kramers Kronig
   OMEGAMAX=  -1.0    maximum frequency
   DEG_THRESHOLD= 0.2000000E-02 threshold for treating states as degnerate
   RTIME   =   -0.100 relaxation time in fs
  (WPLASMAI=    0.000 imaginary part of plasma frequency in eV, 0.658/RTIME)
   DFIELD  = 0.0000000 0.0000000 0.0000000 field for delta impulse in time
 
 Orbital magnetization related:
   ORBITALMAG=     F  switch on orbital magnetization
   LCHIMAG   =     F  perturbation theory with respect to B field
   DQ        =  0.001000  dq finite difference perturbation B field
   LLRAUG    =     F  two centre corrections for induced B field



--------------------------------------------------------------------------------------------------------


 Static calculation
 charge density and potential remain constant during run
 non-spin polarized calculation
 Variant of blocked Davidson
 Davidson routine will perform the subspace rotation
 perform sub-space diagonalisation
    after iterative eigenvector-optimisation
 no mixing
 using additional bands           28
 real space projection scheme for non local part
 use partial core corrections
 calculate Harris-corrections to forces 
   (improved forces if not selfconsistent)
 use gradient corrections 
 WARNING: stress and forces are not correct
  (second derivative of E(xc) not defined)
 use of overlap-Matrix (Vanderbilt PP)
 Gauss-broadening in eV      SIGMA  =   0.01


--------------------------------------------------------------------------------------------------------


  energy-cutoff  :      500.00
  volume of cell :     2138.95
      direct lattice vectors                 reciprocal lattice vectors
    28.498168000  0.000000000  0.000000000     0.035089975  0.000000000  0.000000000
     0.000000000  6.616264417  0.000000000     0.000000000  0.151142690  0.000000000
     0.000000000  0.000000000 11.344096756     0.000000000  0.000000000  0.088151575

  length of vectors
    28.498168000  6.616264417 11.344096756     0.035089975  0.151142690  0.088151575


 
 k-points in units of 2pi/SCALE and weight: k-points along high symmetry lines      
   0.00000000  0.00000000  0.00000000       0.013
   0.00000000  0.00397744  0.00000000       0.013
   0.00000000  0.00795488  0.00000000       0.013
   0.00000000  0.01193232  0.00000000       0.013
   0.00000000  0.01590976  0.00000000       0.013
   0.00000000  0.01988720  0.00000000       0.013
   0.00000000  0.02386464  0.00000000       0.013
   0.00000000  0.02784207  0.00000000       0.013
   0.00000000  0.03181951  0.00000000       0.013
   0.00000000  0.03579695  0.00000000       0.013
   0.00000000  0.03977439  0.00000000       0.013
   0.00000000  0.04375183  0.00000000       0.013
   0.00000000  0.04772927  0.00000000       0.013
   0.00000000  0.05170671  0.00000000       0.013
   0.00000000  0.05568415  0.00000000       0.013
   0.00000000  0.05966159  0.00000000       0.013
   0.00000000  0.06363903  0.00000000       0.013
   0.00000000  0.06761647  0.00000000       0.013
   0.00000000  0.07159391  0.00000000       0.013
   0.00000000  0.07557134  0.00000000       0.013
   0.00000000  0.07557134  0.00000000       0.013
   0.00000000  0.07557134  0.00231978       0.013
   0.00000000  0.07557134  0.00463956       0.013
   0.00000000  0.07557134  0.00695933       0.013
   0.00000000  0.07557134  0.00927911       0.013
   0.00000000  0.07557134  0.01159889       0.013
   0.00000000  0.07557134  0.01391867       0.013
   0.00000000  0.07557134  0.01623845       0.013
   0.00000000  0.07557134  0.01855823       0.013
   0.00000000  0.07557134  0.02087800       0.013
   0.00000000  0.07557134  0.02319778       0.013
   0.00000000  0.07557134  0.02551756       0.013
   0.00000000  0.07557134  0.02783734       0.013
   0.00000000  0.07557134  0.03015712       0.013
   0.00000000  0.07557134  0.03247690       0.013
   0.00000000  0.07557134  0.03479667       0.013
   0.00000000  0.07557134  0.03711645       0.013
   0.00000000  0.07557134  0.03943623       0.013
   0.00000000  0.07557134  0.04175601       0.013
   0.00000000  0.07557134  0.04407579       0.013
   0.00000000  0.07557134  0.04407579       0.013
   0.00000000  0.07159391  0.04407579       0.013
   0.00000000  0.06761647  0.04407579       0.013
   0.00000000  0.06363903  0.04407579       0.013
   0.00000000  0.05966159  0.04407579       0.013
   0.00000000  0.05568415  0.04407579       0.013
   0.00000000  0.05170671  0.04407579       0.013
   0.00000000  0.04772927  0.04407579       0.013
   0.00000000  0.04375183  0.04407579       0.013
   0.00000000  0.03977439  0.04407579       0.013
   0.00000000  0.03579695  0.04407579       0.013
   0.00000000  0.03181951  0.04407579       0.013
   0.00000000  0.02784207  0.04407579       0.013
   0.00000000  0.02386464  0.04407579       0.013
   0.00000000  0.01988720  0.04407579       0.013
   0.00000000  0.01590976  0.04407579       0.013
   0.00000000  0.01193232  0.04407579       0.013
   0.00000000  0.00795488  0.04407579       0.013
   0.00000000  0.00397744  0.04407579       0.013
   0.00000000  0.00000000  0.04407579       0.013
   0.00000000  0.00000000  0.04407579       0.013
   0.00000000  0.00000000  0.04175601       0.013
   0.00000000  0.00000000  0.03943623       0.013
   0.00000000  0.00000000  0.03711645       0.013
   0.00000000  0.00000000  0.03479667       0.013
   0.00000000  0.00000000  0.03247690       0.013
   0.00000000  0.00000000  0.03015712       0.013
   0.00000000  0.00000000  0.02783734       0.013
   0.00000000  0.00000000  0.02551756       0.013
   0.00000000  0.00000000  0.02319778       0.013
   0.00000000  0.00000000  0.02087800       0.013
   0.00000000  0.00000000  0.01855823       0.013
   0.00000000  0.00000000  0.01623845       0.013
   0.00000000  0.00000000  0.01391867       0.013
   0.00000000  0.00000000  0.01159889       0.013
   0.00000000  0.00000000  0.00927911       0.013
   0.00000000  0.00000000  0.00695933       0.013
   0.00000000  0.00000000  0.00463956       0.013
   0.00000000  0.00000000  0.00231978       0.013
   0.00000000  0.00000000  0.00000000       0.013
 
 k-points in reciprocal lattice and weights: k-points along high symmetry lines      
   0.00000000  0.00000000  0.00000000       0.013
   0.00000000  0.02631579  0.00000000       0.013
   0.00000000  0.05263158  0.00000000       0.013
   0.00000000  0.07894737  0.00000000       0.013
   0.00000000  0.10526316  0.00000000       0.013
   0.00000000  0.13157895  0.00000000       0.013
   0.00000000  0.15789474  0.00000000       0.013
   0.00000000  0.18421053  0.00000000       0.013
   0.00000000  0.21052632  0.00000000       0.013
   0.00000000  0.23684211  0.00000000       0.013
   0.00000000  0.26315789  0.00000000       0.013
   0.00000000  0.28947368  0.00000000       0.013
   0.00000000  0.31578947  0.00000000       0.013
   0.00000000  0.34210526  0.00000000       0.013
   0.00000000  0.36842105  0.00000000       0.013
   0.00000000  0.39473684  0.00000000       0.013
   0.00000000  0.42105263  0.00000000       0.013
   0.00000000  0.44736842  0.00000000       0.013
   0.00000000  0.47368421  0.00000000       0.013
   0.00000000  0.50000000  0.00000000       0.013
   0.00000000  0.50000000  0.00000000       0.013
   0.00000000  0.50000000  0.02631579       0.013
   0.00000000  0.50000000  0.05263158       0.013
   0.00000000  0.50000000  0.07894737       0.013
   0.00000000  0.50000000  0.10526316       0.013
   0.00000000  0.50000000  0.13157895       0.013
   0.00000000  0.50000000  0.15789474       0.013
   0.00000000  0.50000000  0.18421053       0.013
   0.00000000  0.50000000  0.21052632       0.013
   0.00000000  0.50000000  0.23684211       0.013
   0.00000000  0.50000000  0.26315789       0.013
   0.00000000  0.50000000  0.28947368       0.013
   0.00000000  0.50000000  0.31578947       0.013
   0.00000000  0.50000000  0.34210526       0.013
   0.00000000  0.50000000  0.36842105       0.013
   0.00000000  0.50000000  0.39473684       0.013
   0.00000000  0.50000000  0.42105263       0.013
   0.00000000  0.50000000  0.44736842       0.013
   0.00000000  0.50000000  0.47368421       0.013
   0.00000000  0.50000000  0.50000000       0.013
   0.00000000  0.50000000  0.50000000       0.013
   0.00000000  0.47368421  0.50000000       0.013
   0.00000000  0.44736842  0.50000000       0.013
   0.00000000  0.42105263  0.50000000       0.013
   0.00000000  0.39473684  0.50000000       0.013
   0.00000000  0.36842105  0.50000000       0.013
   0.00000000  0.34210526  0.50000000       0.013
   0.00000000  0.31578947  0.50000000       0.013
   0.00000000  0.28947368  0.50000000       0.013
   0.00000000  0.26315789  0.50000000       0.013
   0.00000000  0.23684211  0.50000000       0.013
   0.00000000  0.21052632  0.50000000       0.013
   0.00000000  0.18421053  0.50000000       0.013
   0.00000000  0.15789474  0.50000000       0.013
   0.00000000  0.13157895  0.50000000       0.013
   0.00000000  0.10526316  0.50000000       0.013
   0.00000000  0.07894737  0.50000000       0.013
   0.00000000  0.05263158  0.50000000       0.013
   0.00000000  0.02631579  0.50000000       0.013
   0.00000000  0.00000000  0.50000000       0.013
   0.00000000  0.00000000  0.50000000       0.013
   0.00000000  0.00000000  0.47368421       0.013
   0.00000000  0.00000000  0.44736842       0.013
   0.00000000  0.00000000  0.42105263       0.013
   0.00000000  0.00000000  0.39473684       0.013
   0.00000000  0.00000000  0.36842105       0.013
   0.00000000  0.00000000  0.34210526       0.013
   0.00000000  0.00000000  0.31578947       0.013
   0.00000000  0.00000000  0.28947368       0.013
   0.00000000  0.00000000  0.26315789       0.013
   0.00000000  0.00000000  0.23684211       0.013
   0.00000000  0.00000000  0.21052632       0.013
   0.00000000  0.00000000  0.18421053       0.013
   0.00000000  0.00000000  0.15789474       0.013
   0.00000000  0.00000000  0.13157895       0.013
   0.00000000  0.00000000  0.10526316       0.013
   0.00000000  0.00000000  0.07894737       0.013
   0.00000000  0.00000000  0.05263158       0.013
   0.00000000  0.00000000  0.02631579       0.013
   0.00000000  0.00000000  0.00000000       0.013
 
 position of ions in fractional coordinates (direct lattice) 
   0.01073337  0.25000000  0.69854763
   0.14883996  0.75000002  0.19158653
   0.16319149  0.25000000  0.80928528
   0.32510640  0.25000000  0.69158659
   0.31075486  0.75000002  0.30928524
   0.46321298  0.75000002  0.19854756
   0.06812415  0.75000002  0.91201215
   0.10940214  0.25000000  0.39557986
   0.21002902  0.75000002  0.59426664
   0.36454421  0.75000002  0.89557978
   0.26391733  0.25000000  0.09426666
   0.40582220  0.25000000  0.41201223
   0.05587385  0.06921720  0.14752268
   0.09839559  0.93059491  0.64118670
   0.21727788  0.06728910  0.35242261
   0.05587385  0.43078280  0.14752268
   0.21727788  0.43271089  0.35242261
   0.09839559  0.56940509  0.64118670
   0.37555078  0.06940508  0.14118668
   0.25666847  0.93271089  0.85242261
   0.41807248  0.93078280  0.64752270
   0.25666847  0.56728911  0.85242261
   0.37555078  0.43059491  0.14118668
   0.41807248  0.56921720  0.64752270
   0.02431527  0.75000002  0.61591787
   0.12744717  0.25000000  0.08243347
   0.18711479  0.75000002  0.90913709
   0.34649919  0.75000002  0.58243353
   0.28683156  0.25000000  0.40913705
   0.44963108  0.25000000  0.11591781
   0.05588129  0.25000000  0.96301461
   0.08266022  0.75000002  0.45929822
   0.21915282  0.25000000  0.53704560
   0.39128615  0.25000000  0.95929830
   0.25479353  0.75000002  0.03704561
   0.41806504  0.75000002  0.46301453
 
 position of ions in cartesian coordinates  (Angst):
   0.30588138  1.65406610  7.92439186
   4.24166611  4.96219843  2.17337611
   4.65065848  1.65406610  9.18061052
   9.26493669  1.65406610  7.84542519
   8.85594433  4.96219843  3.50856168
  13.20072146  4.96219843  2.25234279
   1.94141360  4.96219843 10.34595406
   3.11776052  1.65406610  4.48749622
   5.98544233  4.96219843  6.74141829
  10.38884228  4.96219843 10.15954366
   7.52116047  1.65406610  1.06937014
  11.56518921  1.65406610  4.67390662
   1.59230245  0.45795927  1.67351152
   2.80409409  6.15706200  7.27368394
   6.19202153  0.44520246  3.99791620
   1.59230245  2.85017288  1.67351152
   6.19202153  2.86292969  3.99791620
   2.80409409  3.76733463  7.27368394
  10.70250919  0.45920236  1.60163533
   7.31458128  6.17106190  9.66996458
  11.91429988  6.15830509  7.34556013
   7.31458128  3.75333473  9.66996458
  10.70250919  2.84892979  1.60163533
  11.91429988  3.76609154  7.34556013
   0.69294060  4.96219843  6.98703188
   3.63201090  1.65406610  0.93513324
   5.33242880  4.96219843 10.31333915
   9.87459215  4.96219843  6.60718232
   8.17417401  1.65406610  4.64129031
  12.81366203  1.65406610  1.31498281
   1.59251452  1.65406610 10.92453091
   2.35566471  4.96219843  5.21032346
   6.24545394  1.65406610  6.09229722
  11.15093858  1.65406610 10.88237277
   7.26114887  4.96219843  0.42024902
  11.91408769  4.96219843  5.25248160
 


--------------------------------------------------------------------------------------------------------


 k-point  1 :   0.0000 0.0000 0.0000  plane waves:   54259
 k-point  2 :   0.0000 0.0263 0.0000  plane waves:   54241
 k-point  3 :   0.0000 0.0526 0.0000  plane waves:   54223
 k-point  4 :   0.0000 0.0789 0.0000  plane waves:   54226
 k-point  5 :   0.0000 0.1053 0.0000  plane waves:   54224
 k-point  6 :   0.0000 0.1316 0.0000  plane waves:   54250
 k-point  7 :   0.0000 0.1579 0.0000  plane waves:   54250
 k-point  8 :   0.0000 0.1842 0.0000  plane waves:   54276
 k-point  9 :   0.0000 0.2105 0.0000  plane waves:   54278
 k-point 10 :   0.0000 0.2368 0.0000  plane waves:   54312
 k-point 11 :   0.0000 0.2632 0.0000  plane waves:   54310
 k-point 12 :   0.0000 0.2895 0.0000  plane waves:   54308
 k-point 13 :   0.0000 0.3158 0.0000  plane waves:   54334
 k-point 14 :   0.0000 0.3421 0.0000  plane waves:   54366
 k-point 15 :   0.0000 0.3684 0.0000  plane waves:   54354
 k-point 16 :   0.0000 0.3947 0.0000  plane waves:   54358
 k-point 17 :   0.0000 0.4211 0.0000  plane waves:   54356
 k-point 18 :   0.0000 0.4474 0.0000  plane waves:   54362
 k-point 19 :   0.0000 0.4737 0.0000  plane waves:   54360
 k-point 20 :   0.0000 0.5000 0.0000  plane waves:   54364
 k-point 21 :   0.0000 0.5000 0.0000  plane waves:   54364
 k-point 22 :   0.0000 0.5000 0.0263  plane waves:   54352
 k-point 23 :   0.0000 0.5000 0.0526  plane waves:   54372
 k-point 24 :   0.0000 0.5000 0.0789  plane waves:   54340
 k-point 25 :   0.0000 0.5000 0.1053  plane waves:   54360
 k-point 26 :   0.0000 0.5000 0.1316  plane waves:   54360
 k-point 27 :   0.0000 0.5000 0.1579  plane waves:   54348
 k-point 28 :   0.0000 0.5000 0.1842  plane waves:   54342
 k-point 29 :   0.0000 0.5000 0.2105  plane waves:   54320
 k-point 30 :   0.0000 0.5000 0.2368  plane waves:   54330
 k-point 31 :   0.0000 0.5000 0.2632  plane waves:   54334
 k-point 32 :   0.0000 0.5000 0.2895  plane waves:   54318
 k-point 33 :   0.0000 0.5000 0.3158  plane waves:   54322
 k-point 34 :   0.0000 0.5000 0.3421  plane waves:   54330
 k-point 35 :   0.0000 0.5000 0.3684  plane waves:   54342
 k-point 36 :   0.0000 0.5000 0.3947  plane waves:   54338
 k-point 37 :   0.0000 0.5000 0.4211  plane waves:   54320
 k-point 38 :   0.0000 0.5000 0.4474  plane waves:   54314
 k-point 39 :   0.0000 0.5000 0.4737  plane waves:   54306
 k-point 40 :   0.0000 0.5000 0.5000  plane waves:   54280
 k-point 41 :   0.0000 0.5000 0.5000  plane waves:   54280
 k-point 42 :   0.0000 0.4737 0.5000  plane waves:   54304
 k-point 43 :   0.0000 0.4474 0.5000  plane waves:   54314
 k-point 44 :   0.0000 0.4211 0.5000  plane waves:   54332
 k-point 45 :   0.0000 0.3947 0.5000  plane waves:   54340
 k-point 46 :   0.0000 0.3684 0.5000  plane waves:   54320
 k-point 47 :   0.0000 0.3421 0.5000  plane waves:   54312
 k-point 48 :   0.0000 0.3158 0.5000  plane waves:   54316
 k-point 49 :   0.0000 0.2895 0.5000  plane waves:   54320
 k-point 50 :   0.0000 0.2632 0.5000  plane waves:   54324
 k-point 51 :   0.0000 0.2368 0.5000  plane waves:   54318
 k-point 52 :   0.0000 0.2105 0.5000  plane waves:   54328
 k-point 53 :   0.0000 0.1842 0.5000  plane waves:   54296
 k-point 54 :   0.0000 0.1579 0.5000  plane waves:   54308
 k-point 55 :   0.0000 0.1316 0.5000  plane waves:   54322
 k-point 56 :   0.0000 0.1053 0.5000  plane waves:   54304
 k-point 57 :   0.0000 0.0789 0.5000  plane waves:   54300
 k-point 58 :   0.0000 0.0526 0.5000  plane waves:   54278
 k-point 59 :   0.0000 0.0263 0.5000  plane waves:   54238
 k-point 60 :   0.0000 0.0000 0.5000  plane waves:   54266
 k-point 61 :   0.0000 0.0000 0.5000  plane waves:   54266
 k-point 62 :   0.0000 0.0000 0.4737  plane waves:   54264
 k-point 63 :   0.0000 0.0000 0.4474  plane waves:   54266
 k-point 64 :   0.0000 0.0000 0.4211  plane waves:   54264
 k-point 65 :   0.0000 0.0000 0.3947  plane waves:   54272
 k-point 66 :   0.0000 0.0000 0.3684  plane waves:   54260
 k-point 67 :   0.0000 0.0000 0.3421  plane waves:   54266
 k-point 68 :   0.0000 0.0000 0.3158  plane waves:   54237
 k-point 69 :   0.0000 0.0000 0.2895  plane waves:   54259
 k-point 70 :   0.0000 0.0000 0.2632  plane waves:   54249
 k-point 71 :   0.0000 0.0000 0.2368  plane waves:   54237
 k-point 72 :   0.0000 0.0000 0.2105  plane waves:   54225
 k-point 73 :   0.0000 0.0000 0.1842  plane waves:   54225
 k-point 74 :   0.0000 0.0000 0.1579  plane waves:   54221
 k-point 75 :   0.0000 0.0000 0.1316  plane waves:   54211
 k-point 76 :   0.0000 0.0000 0.1053  plane waves:   54223
 k-point 77 :   0.0000 0.0000 0.0789  plane waves:   54227
 k-point 78 :   0.0000 0.0000 0.0526  plane waves:   54241
 k-point 79 :   0.0000 0.0000 0.0263  plane waves:   54245
 k-point 80 :   0.0000 0.0000 0.0000  plane waves:   54259

 maximum and minimum number of plane-waves per node :     13649    13492

 maximum number of plane-waves:     54372
 maximum index in each direction: 
   IXMAX=   51   IYMAX=   12   IZMAX=   20
   IXMIN=  -51   IYMIN=  -12   IZMIN=  -21


 real space projection operators:
  total allocation   :       6187.89 KBytes
  max/ min on nodes  :       1559.73       1538.48


 parallel 3D FFT for wavefunctions:
    minimum data exchange during FFTs selected (reduces bandwidth)
 parallel 3D FFT for charge:
    minimum data exchange during FFTs selected (reduces bandwidth)


 total amount of memory used by VASP MPI-rank0   348139. kBytes
=======================================================================

   base      :      30000. kBytes
   nonlr-proj:       3629. kBytes
   fftplans  :       6007. kBytes
   grid      :       8947. kBytes
   one-center:        139. kBytes
   wavefun   :     299417. kBytes
 
     INWAV:  cpu time    0.0001: real time    0.0003
 initial charge density was supplied:
 number of electron     215.9999967 magnetization 
 keeping initial charge density in first step


--------------------------------------------------------------------------------------------------------


 Maximum index for non-local projection operator          686
 Maximum index for augmentation-charges          565 (set IRDMAX)


--------------------------------------------------------------------------------------------------------


 First call to EWALD:  gamma=   0.138
 Maximum number of real-space cells 2x 5x 3
 Maximum number of reciprocal cells 5x 2x 2

    FEWALD:  cpu time    0.3412: real time    0.3420


--------------------------------------- Iteration      1(   1)  ---------------------------------------


vdW kernel read from vdw_kernel.bindat
  0.0000  0.2424  0.5071  0.7962  1.1119  1.4567  1.8333  2.2446  2.6937  3.1842
  3.7199  4.3049  4.9438  5.6415  6.4036  7.2358  8.1446  9.1372 10.2212 11.4050
 12.6979 14.1099 15.6519 17.3360 19.1751 21.1837 23.3773 25.7729 28.3892 31.2465
 34.3669 37.7748 41.4965 45.5611 50.0000
 
    POTLOK:  cpu time    3.9757: real time    4.0103
    SETDIJ:  cpu time    0.0598: real time    0.0734
     EDDAV:  cpu time   30.2722: real time   30.6451
       DOS:  cpu time    0.0032: real time    0.0034
    --------------------------------------------
      LOOP:  cpu time   34.3109: real time   34.7322

 eigenvalue-minimisations  : 22288
 total energy-change (2. order) : 0.1600849E+04  (-0.7399890E+04)
 number of electron     215.9999967 magnetization 
 augmentation part      215.9999967 magnetization 

 Free energy of the ion-electron system (eV)
  ---------------------------------------------------
  alpha Z        PSCENC =       338.54127539
  Ewald energy   TEWEN  =     28239.97463073
  -Hartree energ DENC   =    -38094.84195003
  -exchange      EXHF   =         0.00000000
  -V(xc)+E(xc)   XCENC  =        72.38992308
  PAW double counting   =      5802.61893944    -5360.91758662
  entropy T*S    EENTRO =        -0.00088605
  eigenvalues    EBANDS =      -300.64302622
  atomic energy  EATOM  =     10903.72718121
  Solvation  Ediel_sol  =         0.00000000
  ---------------------------------------------------
  free energy    TOTEN  =      1600.84850092 eV

  energy without entropy =     1600.84938698  energy(sigma->0) =     1600.84894395


--------------------------------------------------------------------------------------------------------




--------------------------------------- Iteration      1(   2)  ---------------------------------------


     EDDAV:  cpu time   39.8844: real time   40.3700
       DOS:  cpu time    0.0013: real time    0.0013
    --------------------------------------------
      LOOP:  cpu time   39.8857: real time   40.3713

 eigenvalue-minimisations  : 31440
 total energy-change (2. order) :-0.1515443E+04  (-0.1469403E+04)
 number of electron     215.9999967 magnetization 
 augmentation part      215.9999967 magnetization 

 Free energy of the ion-electron system (eV)
  ---------------------------------------------------
  alpha Z        PSCENC =       338.54127539
  Ewald energy   TEWEN  =     28239.97463073
  -Hartree energ DENC   =    -38094.84195003
  -exchange      EXHF   =         0.00000000
  -V(xc)+E(xc)   XCENC  =        72.38992308
  PAW double counting   =      5802.61893944    -5360.91758662
  entropy T*S    EENTRO =        -0.00000000
  eigenvalues    EBANDS =     -1816.08709668
  atomic energy  EATOM  =     10903.72718121
  Solvation  Ediel_sol  =         0.00000000
  ---------------------------------------------------
  free energy    TOTEN  =        85.40531652 eV

  energy without entropy =       85.40531652  energy(sigma->0) =       85.40531652


--------------------------------------------------------------------------------------------------------




--------------------------------------- Iteration      1(   3)  ---------------------------------------


     EDDAV:  cpu time   36.4284: real time   36.8620
       DOS:  cpu time    0.0015: real time    0.0016
    --------------------------------------------
      LOOP:  cpu time   36.4299: real time   36.8635

 eigenvalue-minimisations  : 27424
 total energy-change (2. order) :-0.2162488E+03  (-0.2146145E+03)
 number of electron     215.9999967 magnetization 
 augmentation part      215.9999967 magnetization 

 Free energy of the ion-electron system (eV)
  ---------------------------------------------------
  alpha Z        PSCENC =       338.54127539
  Ewald energy   TEWEN  =     28239.97463073
  -Hartree energ DENC   =    -38094.84195003
  -exchange      EXHF   =         0.00000000
  -V(xc)+E(xc)   XCENC  =        72.38992308
  PAW double counting   =      5802.61893944    -5360.91758662
  entropy T*S    EENTRO =        -0.00000000
  eigenvalues    EBANDS =     -2032.33589497
  atomic energy  EATOM  =     10903.72718121
  Solvation  Ediel_sol  =         0.00000000
  ---------------------------------------------------
  free energy    TOTEN  =      -130.84348177 eV

  energy without entropy =     -130.84348177  energy(sigma->0) =     -130.84348177


--------------------------------------------------------------------------------------------------------




--------------------------------------- Iteration      1(   4)  ---------------------------------------


     EDDAV:  cpu time   40.7481: real time   41.2376
       DOS:  cpu time    0.0015: real time    0.0015
    --------------------------------------------
      LOOP:  cpu time   40.7496: real time   41.2390

 eigenvalue-minimisations  : 31880
 total energy-change (2. order) :-0.8706498E+01  (-0.8674065E+01)
 number of electron     215.9999967 magnetization 
 augmentation part      215.9999967 magnetization 

 Free energy of the ion-electron system (eV)
  ---------------------------------------------------
  alpha Z        PSCENC =       338.54127539
  Ewald energy   TEWEN  =     28239.97463073
  -Hartree energ DENC   =    -38094.84195003
  -exchange      EXHF   =         0.00000000
  -V(xc)+E(xc)   XCENC  =        72.38992308
  PAW double counting   =      5802.61893944    -5360.91758662
  entropy T*S    EENTRO =        -0.00000000
  eigenvalues    EBANDS =     -2041.04239311
  atomic energy  EATOM  =     10903.72718121
  Solvation  Ediel_sol  =         0.00000000
  ---------------------------------------------------
  free energy    TOTEN  =      -139.54997991 eV

  energy without entropy =     -139.54997991  energy(sigma->0) =     -139.54997991


--------------------------------------------------------------------------------------------------------




--------------------------------------- Iteration      1(   5)  ---------------------------------------


     EDDAV:  cpu time   43.2272: real time   43.7451
       DOS:  cpu time    0.0015: real time    0.0015
    --------------------------------------------
      LOOP:  cpu time   43.2288: real time   43.7467

 eigenvalue-minimisations  : 34168
 total energy-change (2. order) :-0.3288186E+00  (-0.3286750E+00)
 number of electron     215.9999967 magnetization 
 augmentation part      215.9999967 magnetization 

 Free energy of the ion-electron system (eV)
  ---------------------------------------------------
  alpha Z        PSCENC =       338.54127539
  Ewald energy   TEWEN  =     28239.97463073
  -Hartree energ DENC   =    -38094.84195003
  -exchange      EXHF   =         0.00000000
  -V(xc)+E(xc)   XCENC  =        72.38992308
  PAW double counting   =      5802.61893944    -5360.91758662
  entropy T*S    EENTRO =        -0.00000000
  eigenvalues    EBANDS =     -2041.37121169
  atomic energy  EATOM  =     10903.72718121
  Solvation  Ediel_sol  =         0.00000000
  ---------------------------------------------------
  free energy    TOTEN  =      -139.87879849 eV

  energy without entropy =     -139.87879849  energy(sigma->0) =     -139.87879849


--------------------------------------------------------------------------------------------------------




--------------------------------------- Iteration      1(   6)  ---------------------------------------


     EDDAV:  cpu time   39.7634: real time   40.2428
       DOS:  cpu time    0.0026: real time    0.0026
    --------------------------------------------
      LOOP:  cpu time   39.7660: real time   40.2454

 eigenvalue-minimisations  : 31248
 total energy-change (2. order) :-0.8522480E-02  (-0.8521022E-02)
 number of electron     215.9999967 magnetization 
 augmentation part      215.9999967 magnetization 

 Free energy of the ion-electron system (eV)
  ---------------------------------------------------
  alpha Z        PSCENC =       338.54127539
  Ewald energy   TEWEN  =     28239.97463073
  -Hartree energ DENC   =    -38094.84195003
  -exchange      EXHF   =         0.00000000
  -V(xc)+E(xc)   XCENC  =        72.38992308
  PAW double counting   =      5802.61893944    -5360.91758662
  entropy T*S    EENTRO =        -0.00000000
  eigenvalues    EBANDS =     -2041.37973417
  atomic energy  EATOM  =     10903.72718121
  Solvation  Ediel_sol  =         0.00000000
  ---------------------------------------------------
  free energy    TOTEN  =      -139.88732097 eV

  energy without entropy =     -139.88732097  energy(sigma->0) =     -139.88732097


--------------------------------------------------------------------------------------------------------




--------------------------------------- Iteration      1(   7)  ---------------------------------------


     EDDAV:  cpu time   43.4331: real time   43.9541
       DOS:  cpu time    0.0015: real time    0.0015
    --------------------------------------------
      LOOP:  cpu time   43.4345: real time   43.9556

 eigenvalue-minimisations  : 34208
 total energy-change (2. order) :-0.3238038E-03  (-0.3237675E-03)
 number of electron     215.9999967 magnetization 
 augmentation part      215.9999967 magnetization 

 Free energy of the ion-electron system (eV)
  ---------------------------------------------------
  alpha Z        PSCENC =       338.54127539
  Ewald energy   TEWEN  =     28239.97463073
  -Hartree energ DENC   =    -38094.84195003
  -exchange      EXHF   =         0.00000000
  -V(xc)+E(xc)   XCENC  =        72.38992308
  PAW double counting   =      5802.61893944    -5360.91758662
  entropy T*S    EENTRO =        -0.00000000
  eigenvalues    EBANDS =     -2041.38005798
  atomic energy  EATOM  =     10903.72718121
  Solvation  Ediel_sol  =         0.00000000
  ---------------------------------------------------
  free energy    TOTEN  =      -139.88764478 eV

  energy without entropy =     -139.88764478  energy(sigma->0) =     -139.88764478


--------------------------------------------------------------------------------------------------------




--------------------------------------- Iteration      1(   8)  ---------------------------------------


     EDDAV:  cpu time   37.2835: real time   37.7376
       DOS:  cpu time    0.0020: real time    0.0020
    --------------------------------------------
      LOOP:  cpu time   37.2855: real time   37.7396

 eigenvalue-minimisations  : 29024
 total energy-change (2. order) :-0.1399122E-04  (-0.1399053E-04)
 number of electron     215.9999967 magnetization 
 augmentation part      215.9999967 magnetization 

 Free energy of the ion-electron system (eV)
  ---------------------------------------------------
  alpha Z        PSCENC =       338.54127539
  Ewald energy   TEWEN  =     28239.97463073
  -Hartree energ DENC   =    -38094.84195003
  -exchange      EXHF   =         0.00000000
  -V(xc)+E(xc)   XCENC  =        72.38992308
  PAW double counting   =      5802.61893944    -5360.91758662
  entropy T*S    EENTRO =        -0.00000000
  eigenvalues    EBANDS =     -2041.38007197
  atomic energy  EATOM  =     10903.72718121
  Solvation  Ediel_sol  =         0.00000000
  ---------------------------------------------------
  free energy    TOTEN  =      -139.88765877 eV

  energy without entropy =     -139.88765877  energy(sigma->0) =     -139.88765877


--------------------------------------------------------------------------------------------------------




--------------------------------------- Iteration      1(   9)  ---------------------------------------


     EDDAV:  cpu time   32.9173: real time   33.3120
       DOS:  cpu time    0.0017: real time    0.0017
    --------------------------------------------
      LOOP:  cpu time   32.9190: real time   33.3137

 eigenvalue-minimisations  : 24032
 total energy-change (2. order) :-0.6576083E-06  (-0.6575112E-06)
 number of electron     215.9999967 magnetization 
 augmentation part      215.9999967 magnetization 

 Free energy of the ion-electron system (eV)
  ---------------------------------------------------
  alpha Z        PSCENC =       338.54127539
  Ewald energy   TEWEN  =     28239.97463073
  -Hartree energ DENC   =    -38094.84195003
  -exchange      EXHF   =         0.00000000
  -V(xc)+E(xc)   XCENC  =        72.38992308
  PAW double counting   =      5802.61893944    -5360.91758662
  entropy T*S    EENTRO =        -0.00000000
  eigenvalues    EBANDS =     -2041.38007262
  atomic energy  EATOM  =     10903.72718121
  Solvation  Ediel_sol  =         0.00000000
  ---------------------------------------------------
  free energy    TOTEN  =      -139.88765942 eV

  energy without entropy =     -139.88765942  energy(sigma->0) =     -139.88765942


--------------------------------------------------------------------------------------------------------




 average (electrostatic) potential at core
  the test charge radii are     1.2192  0.9892
  (the norm of the test charge is              1.0000)
       1 -40.7822       2 -39.5911       3 -39.5394       4 -39.5911       5 -39.5392
       6 -40.7817       7 -39.7585       8 -39.6926       9 -39.7487      10 -39.6923
      11 -39.7485      12 -39.7582      13 -88.4705      14 -88.7408      15 -88.7781
      16 -88.4705      17 -88.7781      18 -88.7408      19 -88.7405      20 -88.7783
      21 -88.4699      22 -88.7783      23 -88.7405      24 -88.4699      25 -88.8378
      26 -88.4403      27 -88.8801      28 -88.4402      29 -88.8800      30 -88.8375
      31 -88.4511      32 -88.8233      33 -88.7622      34 -88.8230      35 -88.7623
      36 -88.4506
 
 
 
 E-fermi :  -0.1863     XC(G=0):  -5.0330     alpha+bet : -5.0911


 k-point     1 :       0.0000    0.0000    0.0000
  band No.  band energies     occupation 
      1     -28.6394      2.00000
      2     -28.6390      2.00000
      3     -27.6558      2.00000
      4     -27.6554      2.00000
      5     -27.6339      2.00000
      6     -27.6321      2.00000
      7     -27.5872      2.00000
      8     -27.5869      2.00000
      9     -27.4886      2.00000
     10     -27.4884      2.00000
     11     -27.4555      2.00000
     12     -27.4540      2.00000
     13     -14.0164      2.00000
     14     -14.0159      2.00000
     15     -13.9430      2.00000
     16     -13.9425      2.00000
     17     -13.8534      2.00000
     18     -13.8529      2.00000
     19     -13.2851      2.00000
     20     -13.2490      2.00000
     21     -13.1615      2.00000
     22     -13.1361      2.00000
     23     -13.1256      2.00000
     24     -13.0701      2.00000
     25     -13.0650      2.00000
     26     -13.0510      2.00000
     27     -13.0274      2.00000
     28     -13.0270      2.00000
     29     -13.0266      2.00000
     30     -13.0007      2.00000
     31     -12.9984      2.00000
     32     -12.9784      2.00000
     33     -12.9765      2.00000
     34     -12.9730      2.00000
     35     -12.9715      2.00000
     36     -12.9284      2.00000
     37     -12.8651      2.00000
     38     -12.8344      2.00000
     39     -12.7967      2.00000
     40     -12.7901      2.00000
     41     -12.7744      2.00000
     42     -12.7730      2.00000
     43     -12.7650      2.00000
     44     -12.7500      2.00000
     45     -12.7437      2.00000
     46     -12.7331      2.00000
     47     -12.7170      2.00000
     48     -12.7134      2.00000
     49     -10.8341      2.00000
     50     -10.6323      2.00000
     51     -10.6285      2.00000
     52     -10.5952      2.00000
     53     -10.2182      2.00000
     54     -10.2118      2.00000
     55      -6.2303      2.00000
     56      -6.0712      2.00000
     57      -6.0188      2.00000
     58      -5.8949      2.00000
     59      -5.8943      2.00000
     60      -5.8585      2.00000
     61      -5.8525      2.00000
     62      -5.8015      2.00000
     63      -5.7135      2.00000
     64      -5.7108      2.00000
     65      -5.7040      2.00000
     66      -5.6833      2.00000
     67      -5.5417      2.00000
     68      -5.5045      2.00000
     69      -5.4629      2.00000
     70      -5.4009      2.00000
     71      -5.1717      2.00000
     72      -5.1706      2.00000
     73      -3.3839      2.00000
     74      -2.8848      2.00000
     75      -2.5946      2.00000
     76      -2.5723      2.00000
     77      -2.3304      2.00000
     78      -2.2252      2.00000
     79      -2.0974      2.00000
     80      -1.9547      2.00000
     81      -1.8161      2.00000
     82      -1.7376      2.00000
     83      -1.7053      2.00000
     84      -1.6909      2.00000
     85      -1.6077      2.00000
     86      -1.5112      2.00000
     87      -1.5026      2.00000
     88      -1.4543      2.00000
     89      -1.4493      2.00000
     90      -1.4346      2.00000
     91      -1.2522      2.00000
     92      -1.1868      2.00000
     93      -1.1745      2.00000
     94      -1.1159      2.00000
     95      -1.0984      2.00000
     96      -1.0319      2.00000
     97      -1.0255      2.00000
     98      -0.8456      2.00000
     99      -0.7386      2.00000
    100      -0.7308      2.00000
    101      -0.7254      2.00000
    102      -0.6922      2.00000
    103      -0.6435      2.00000
    104      -0.6378      2.00000
    105      -0.4459      2.00000
    106      -0.4225      2.00000
    107      -0.3397      2.00000
    108      -0.2985      2.00000
    109       1.0000      0.00000
    110       1.0480      0.00000
    111       1.1333      0.00000
    112       1.1436      0.00000
    113       1.1660      0.00000
    114       1.2908      0.00000
    115       1.3459      0.00000
    116       1.3721      0.00000
    117       1.3988      0.00000
    118       1.5251      0.00000
    119       1.5905      0.00000
    120       1.6414      0.00000
    121       1.7863      0.00000
    122       1.8089      0.00000
    123       1.8404      0.00000
    124       1.9091      0.00000
    125       2.0662      0.00000
    126       2.1426      0.00000
    127       2.2300      0.00000
    128       2.2349      0.00000
    129       2.3502      0.00000
    130       2.3873      0.00000
    131       2.5447      0.00000
    132       2.5604      0.00000
    133       2.7366      0.00000
    134       2.7897      0.00000
    135       2.8185      0.00000
    136       2.8886      0.00000

 k-point     2 :       0.0000    0.0263    0.0000
  band No.  band energies     occupation 
      1     -28.6394      2.00000
      2     -28.6390      2.00000
      3     -27.6558      2.00000
      4     -27.6554      2.00000
      5     -27.6339      2.00000
      6     -27.6321      2.00000
      7     -27.5872      2.00000
      8     -27.5869      2.00000
      9     -27.4886      2.00000
     10     -27.4884      2.00000
     11     -27.4555      2.00000
     12     -27.4540      2.00000
     13     -14.0163      2.00000
     14     -14.0158      2.00000
     15     -13.9431      2.00000
     16     -13.9425      2.00000
     17     -13.8536      2.00000
     18     -13.8531      2.00000
     19     -13.2851      2.00000
     20     -13.2489      2.00000
     21     -13.1630      2.00000
     22     -13.1366      2.00000
     23     -13.1243      2.00000
     24     -13.0696      2.00000
     25     -13.0653      2.00000
     26     -13.0517      2.00000
     27     -13.0292      2.00000
     28     -13.0282      2.00000
     29     -13.0255      2.00000
     30     -13.0017      2.00000
     31     -12.9993      2.00000
     32     -12.9808      2.00000
     33     -12.9783      2.00000
     34     -12.9724      2.00000
     35     -12.9665      2.00000
     36     -12.9277      2.00000
     37     -12.8645      2.00000
     38     -12.8342      2.00000
     39     -12.7965      2.00000
     40     -12.7901      2.00000
     41     -12.7749      2.00000
     42     -12.7730      2.00000
     43     -12.7644      2.00000
     44     -12.7502      2.00000
     45     -12.7433      2.00000
     46     -12.7331      2.00000
     47     -12.7169      2.00000
     48     -12.7136      2.00000
     49     -10.8329      2.00000
     50     -10.6321      2.00000
     51     -10.6279      2.00000
     52     -10.5949      2.00000
     53     -10.2177      2.00000
     54     -10.2113      2.00000
     55      -6.2285      2.00000
     56      -6.0705      2.00000
     57      -6.0176      2.00000
     58      -5.9074      2.00000
     59      -5.8819      2.00000
     60      -5.8579      2.00000
     61      -5.8517      2.00000
     62      -5.8029      2.00000
     63      -5.7206      2.00000
     64      -5.7062      2.00000
     65      -5.7027      2.00000
     66      -5.6855      2.00000
     67      -5.5403      2.00000
     68      -5.5036      2.00000
     69      -5.4622      2.00000
     70      -5.4012      2.00000
     71      -5.1742      2.00000
     72      -5.1722      2.00000
     73      -3.3775      2.00000
     74      -2.8800      2.00000
     75      -2.5916      2.00000
     76      -2.5689      2.00000
     77      -2.3300      2.00000
     78      -2.2235      2.00000
     79      -2.0953      2.00000
     80      -1.9547      2.00000
     81      -1.8192      2.00000
     82      -1.7373      2.00000
     83      -1.7228      2.00000
     84      -1.6725      2.00000
     85      -1.6044      2.00000
     86      -1.5117      2.00000
     87      -1.5104      2.00000
     88      -1.4631      2.00000
     89      -1.4493      2.00000
     90      -1.4258      2.00000
     91      -1.2535      2.00000
     92      -1.1859      2.00000
     93      -1.1779      2.00000
     94      -1.1257      2.00000
     95      -1.0881      2.00000
     96      -1.0311      2.00000
     97      -1.0250      2.00000
     98      -0.8447      2.00000
     99      -0.7455      2.00000
    100      -0.7294      2.00000
    101      -0.7270      2.00000
    102      -0.6904      2.00000
    103      -0.6496      2.00000
    104      -0.6356      2.00000
    105      -0.4495      2.00000
    106      -0.4157      2.00000
    107      -0.3444      2.00000
    108      -0.2962      2.00000
    109       0.9959      0.00000
    110       1.0454      0.00000
    111       1.1376      0.00000
    112       1.1421      0.00000
    113       1.1621      0.00000
    114       1.2847      0.00000
    115       1.3531      0.00000
    116       1.3601      0.00000
    117       1.4102      0.00000
    118       1.5250      0.00000
    119       1.5933      0.00000
    120       1.6411      0.00000
    121       1.7772      0.00000
    122       1.7974      0.00000
    123       1.8440      0.00000
    124       1.9157      0.00000
    125       2.0553      0.00000
    126       2.1520      0.00000
    127       2.2309      0.00000
    128       2.2342      0.00000
    129       2.3371      0.00000
    130       2.4074      0.00000
    131       2.5450      0.00000
    132       2.5598      0.00000
    133       2.7228      0.00000
    134       2.7763      0.00000
    135       2.8130      0.00000
    136       2.8312      0.00000

 k-point     3 :       0.0000    0.0526    0.0000
  band No.  band energies     occupation 
      1     -28.6394      2.00000
      2     -28.6389      2.00000
      3     -27.6558      2.00000
      4     -27.6554      2.00000
      5     -27.6339      2.00000
      6     -27.6321      2.00000
      7     -27.5871      2.00000
      8     -27.5868      2.00000
      9     -27.4887      2.00000
     10     -27.4885      2.00000
     11     -27.4555      2.00000
     12     -27.4541      2.00000
     13     -14.0162      2.00000
     14     -14.0157      2.00000
     15     -13.9432      2.00000
     16     -13.9427      2.00000
     17     -13.8543      2.00000
     18     -13.8538      2.00000
     19     -13.2850      2.00000
     20     -13.2487      2.00000
     21     -13.1667      2.00000
     22     -13.1380      2.00000
     23     -13.1209      2.00000
     24     -13.0682      2.00000
     25     -13.0669      2.00000
     26     -13.0533      2.00000
     27     -13.0327      2.00000
     28     -13.0305      2.00000
     29     -13.0249      2.00000
     30     -13.0053      2.00000
     31     -13.0022      2.00000
     32     -12.9821      2.00000
     33     -12.9806      2.00000
     34     -12.9712      2.00000
     35     -12.9586      2.00000
     36     -12.9259      2.00000
     37     -12.8627      2.00000
     38     -12.8338      2.00000
     39     -12.7958      2.00000
     40     -12.7901      2.00000
     41     -12.7761      2.00000
     42     -12.7728      2.00000
     43     -12.7630      2.00000
     44     -12.7505      2.00000
     45     -12.7423      2.00000
     46     -12.7332      2.00000
     47     -12.7167      2.00000
     48     -12.7142      2.00000
     49     -10.8291      2.00000
     50     -10.6315      2.00000
     51     -10.6263      2.00000
     52     -10.5941      2.00000
     53     -10.2163      2.00000
     54     -10.2101      2.00000
     55      -6.2231      2.00000
     56      -6.0684      2.00000
     57      -6.0141      2.00000
     58      -5.9203      2.00000
     59      -5.8693      2.00000
     60      -5.8560      2.00000
     61      -5.8493      2.00000
     62      -5.8068      2.00000
     63      -5.7318      2.00000
     64      -5.7021      2.00000
     65      -5.6994      2.00000
     66      -5.6916      2.00000
     67      -5.5363      2.00000
     68      -5.5009      2.00000
     69      -5.4601      2.00000
     70      -5.4023      2.00000
     71      -5.1814      2.00000
     72      -5.1768      2.00000
     73      -3.3583      2.00000
     74      -2.8658      2.00000
     75      -2.5828      2.00000
     76      -2.5588      2.00000
     77      -2.3289      2.00000
     78      -2.2186      2.00000
     79      -2.0892      2.00000
     80      -1.9546      2.00000
     81      -1.8291      2.00000
     82      -1.7423      2.00000
     83      -1.7367      2.00000
     84      -1.6495      2.00000
     85      -1.5952      2.00000
     86      -1.5284      2.00000
     87      -1.5132      2.00000
     88      -1.4861      2.00000
     89      -1.4399      2.00000
     90      -1.4174      2.00000
     91      -1.2571      2.00000
     92      -1.1884      2.00000
     93      -1.1834      2.00000
     94      -1.1391      2.00000
     95      -1.0731      2.00000
     96      -1.0289      2.00000
     97      -1.0236      2.00000
     98      -0.8430      2.00000
     99      -0.7553      2.00000
    100      -0.7368      2.00000
    101      -0.7317      2.00000
    102      -0.6837      2.00000
    103      -0.6650      2.00000
    104      -0.6304      2.00000
    105      -0.4538      2.00000
    106      -0.4023      2.00000
    107      -0.3561      2.00000
    108      -0.2912      2.00000
    109       0.9807      0.00000
    110       1.0424      0.00000
    111       1.1320      0.00000
    112       1.1489      0.00000
    113       1.1562      0.00000
    114       1.2743      0.00000
    115       1.3384      0.00000
    116       1.3682      0.00000
    117       1.4282      0.00000
    118       1.5257      0.00000
    119       1.5997      0.00000
    120       1.6378      0.00000
    121       1.7571      0.00000
    122       1.7686      0.00000
    123       1.8522      0.00000
    124       1.9321      0.00000
    125       2.0318      0.00000
    126       2.1711      0.00000
    127       2.2191      0.00000
    128       2.2448      0.00000
    129       2.3241      0.00000
    130       2.4378      0.00000
    131       2.5461      0.00000
    132       2.5625      0.00000
    133       2.6807      0.00000
    134       2.7699      0.00000
    135       2.8041      0.00000
    136       2.9070      0.00000

 k-point     4 :       0.0000    0.0789    0.0000
  band No.  band energies     occupation 
      1     -28.6394      2.00000
      2     -28.6389      2.00000
      3     -27.6558      2.00000
      4     -27.6554      2.00000
      5     -27.6338      2.00000
      6     -27.6321      2.00000
      7     -27.5870      2.00000
      8     -27.5867      2.00000
      9     -27.4887      2.00000
     10     -27.4886      2.00000
     11     -27.4555      2.00000
     12     -27.4541      2.00000
     13     -14.0159      2.00000
     14     -14.0154      2.00000
     15     -13.9434      2.00000
     16     -13.9429      2.00000
     17     -13.8555      2.00000
     18     -13.8550      2.00000
     19     -13.2849      2.00000
     20     -13.2483      2.00000
     21     -13.1716      2.00000
     22     -13.1401      2.00000
     23     -13.1166      2.00000
     24     -13.0708      2.00000
     25     -13.0662      2.00000
     26     -13.0549      2.00000
     27     -13.0369      2.00000
     28     -13.0339      2.00000
     29     -13.0246      2.00000
     30     -13.0101      2.00000
     31     -13.0077      2.00000
     32     -12.9860      2.00000
     33     -12.9769      2.00000
     34     -12.9697      2.00000
     35     -12.9508      2.00000
     36     -12.9242      2.00000
     37     -12.8599      2.00000
     38     -12.8332      2.00000
     39     -12.7947      2.00000
     40     -12.7902      2.00000
     41     -12.7773      2.00000
     42     -12.7725      2.00000
     43     -12.7613      2.00000
     44     -12.7507      2.00000
     45     -12.7410      2.00000
     46     -12.7333      2.00000
     47     -12.7164      2.00000
     48     -12.7150      2.00000
     49     -10.8230      2.00000
     50     -10.6307      2.00000
     51     -10.6235      2.00000
     52     -10.5927      2.00000
     53     -10.2140      2.00000
     54     -10.2080      2.00000
     55      -6.2144      2.00000
     56      -6.0650      2.00000
     57      -6.0091      2.00000
     58      -5.9328      2.00000
     59      -5.8569      2.00000
     60      -5.8531      2.00000
     61      -5.8450      2.00000
     62      -5.8123      2.00000
     63      -5.7461      2.00000
     64      -5.7025      2.00000
     65      -5.6988      2.00000
     66      -5.6935      2.00000
     67      -5.5301      2.00000
     68      -5.4966      2.00000
     69      -5.4567      2.00000
     70      -5.4039      2.00000
     71      -5.1931      2.00000
     72      -5.1841      2.00000
     73      -3.3273      2.00000
     74      -2.8425      2.00000
     75      -2.5684      2.00000
     76      -2.5421      2.00000
     77      -2.3270      2.00000
     78      -2.2112      2.00000
     79      -2.0792      2.00000
     80      -1.9545      2.00000
     81      -1.8451      2.00000
     82      -1.7561      2.00000
     83      -1.7358      2.00000
     84      -1.6284      2.00000
     85      -1.5814      2.00000
     86      -1.5508      2.00000
     87      -1.5152      2.00000
     88      -1.5123      2.00000
     89      -1.4320      2.00000
     90      -1.4139      2.00000
     91      -1.2625      2.00000
     92      -1.2055      2.00000
     93      -1.1790      2.00000
     94      -1.1507      2.00000
     95      -1.0607      2.00000
     96      -1.0254      2.00000
     97      -1.0197      2.00000
     98      -0.8436      2.00000
     99      -0.7636      2.00000
    100      -0.7546      2.00000
    101      -0.7380      2.00000
    102      -0.6883      2.00000
    103      -0.6746      2.00000
    104      -0.6215      2.00000
    105      -0.4553      2.00000
    106      -0.3880      2.00000
    107      -0.3719      2.00000
    108      -0.2862      2.00000
    109       0.9538      0.00000
    110       1.0427      0.00000
    111       1.1081      0.00000
    112       1.1542      0.00000
    113       1.1643      0.00000
    114       1.2676      0.00000
    115       1.3149      0.00000
    116       1.3858      0.00000
    117       1.4416      0.00000
    118       1.5288      0.00000
    119       1.6036      0.00000
    120       1.6272      0.00000
    121       1.7316      0.00000
    122       1.7420      0.00000
    123       1.8626      0.00000
    124       1.9536      0.00000
    125       2.0060      0.00000
    126       2.1895      0.00000
    127       2.2016      0.00000
    128       2.2577      0.00000
    129       2.3192      0.00000
    130       2.4614      0.00000
    131       2.5378      0.00000
    132       2.5565      0.00000
    133       2.6415      0.00000
    134       2.7169      0.00000
    135       2.8337      0.00000
    136       2.8758      0.00000

 k-point     5 :       0.0000    0.1053    0.0000
  band No.  band energies     occupation 
      1     -28.6394      2.00000
      2     -28.6389      2.00000
      3     -27.6558      2.00000
      4     -27.6554      2.00000
      5     -27.6338      2.00000
      6     -27.6321      2.00000
      7     -27.5869      2.00000
      8     -27.5866      2.00000
      9     -27.4889      2.00000
     10     -27.4887      2.00000
     11     -27.4555      2.00000
     12     -27.4542      2.00000
     13     -14.0156      2.00000
     14     -14.0151      2.00000
     15     -13.9437      2.00000
     16     -13.9432      2.00000
     17     -13.8571      2.00000
     18     -13.8566      2.00000
     19     -13.2849      2.00000
     20     -13.2478      2.00000
     21     -13.1769      2.00000
     22     -13.1427      2.00000
     23     -13.1119      2.00000
     24     -13.0777      2.00000
     25     -13.0639      2.00000
     26     -13.0566      2.00000
     27     -13.0409      2.00000
     28     -13.0378      2.00000
     29     -13.0248      2.00000
     30     -13.0157      2.00000
     31     -13.0138      2.00000
     32     -12.9895      2.00000
     33     -12.9717      2.00000
     34     -12.9682      2.00000
     35     -12.9436      2.00000
     36     -12.9230      2.00000
     37     -12.8562      2.00000
     38     -12.8326      2.00000
     39     -12.7929      2.00000
     40     -12.7903      2.00000
     41     -12.7779      2.00000
     42     -12.7720      2.00000
     43     -12.7597      2.00000
     44     -12.7508      2.00000
     45     -12.7396      2.00000
     46     -12.7334      2.00000
     47     -12.7160      2.00000
     48     -12.7158      2.00000
     49     -10.8148      2.00000
     50     -10.6296      2.00000
     51     -10.6197      2.00000
     52     -10.5908      2.00000
     53     -10.2109      2.00000
     54     -10.2052      2.00000
     55      -6.2024      2.00000
     56      -6.0606      2.00000
     57      -6.0040      2.00000
     58      -5.9436      2.00000
     59      -5.8499      2.00000
     60      -5.8460      2.00000
     61      -5.8378      2.00000
     62      -5.8184      2.00000
     63      -5.7629      2.00000
     64      -5.7150      2.00000
     65      -5.6960      2.00000
     66      -5.6881      2.00000
     67      -5.5222      2.00000
     68      -5.4909      2.00000
     69      -5.4523      2.00000
     70      -5.4058      2.00000
     71      -5.2086      2.00000
     72      -5.1940      2.00000
     73      -3.2854      2.00000
     74      -2.8108      2.00000
[...]
     34     -12.9730      2.00000
     35     -12.9715      2.00000
     36     -12.9284      2.00000
     37     -12.8651      2.00000
     38     -12.8344      2.00000
     39     -12.7967      2.00000
     40     -12.7901      2.00000
     41     -12.7744      2.00000
     42     -12.7730      2.00000
     43     -12.7650      2.00000
     44     -12.7500      2.00000
     45     -12.7437      2.00000
     46     -12.7331      2.00000
     47     -12.7170      2.00000
     48     -12.7134      2.00000
     49     -10.8341      2.00000
     50     -10.6323      2.00000
     51     -10.6285      2.00000
     52     -10.5952      2.00000
     53     -10.2182      2.00000
     54     -10.2118      2.00000
     55      -6.2303      2.00000
     56      -6.0712      2.00000
     57      -6.0188      2.00000
     58      -5.8949      2.00000
     59      -5.8943      2.00000
     60      -5.8585      2.00000
     61      -5.8525      2.00000
     62      -5.8015      2.00000
     63      -5.7135      2.00000
     64      -5.7108      2.00000
     65      -5.7040      2.00000
     66      -5.6833      2.00000
     67      -5.5417      2.00000
     68      -5.5045      2.00000
     69      -5.4629      2.00000
     70      -5.4009      2.00000
     71      -5.1717      2.00000
     72      -5.1706      2.00000
     73      -3.3839      2.00000
     74      -2.8848      2.00000
     75      -2.5946      2.00000
     76      -2.5723      2.00000
     77      -2.3304      2.00000
     78      -2.2252      2.00000
     79      -2.0974      2.00000
     80      -1.9547      2.00000
     81      -1.8161      2.00000
     82      -1.7376      2.00000
     83      -1.7053      2.00000
     84      -1.6909      2.00000
     85      -1.6077      2.00000
     86      -1.5112      2.00000
     87      -1.5026      2.00000
     88      -1.4543      2.00000
     89      -1.4493      2.00000
     90      -1.4346      2.00000
     91      -1.2522      2.00000
     92      -1.1868      2.00000
     93      -1.1745      2.00000
     94      -1.1159      2.00000
     95      -1.0984      2.00000
     96      -1.0319      2.00000
     97      -1.0255      2.00000
     98      -0.8456      2.00000
     99      -0.7386      2.00000
    100      -0.7308      2.00000
    101      -0.7254      2.00000
    102      -0.6922      2.00000
    103      -0.6435      2.00000
    104      -0.6378      2.00000
    105      -0.4459      2.00000
    106      -0.4225      2.00000
    107      -0.3397      2.00000
    108      -0.2985      2.00000
    109       1.0000      0.00000
    110       1.0480      0.00000
    111       1.1333      0.00000
    112       1.1436      0.00000
    113       1.1660      0.00000
    114       1.2908      0.00000
    115       1.3459      0.00000
    116       1.3721      0.00000
    117       1.3988      0.00000
    118       1.5251      0.00000
    119       1.5905      0.00000
    120       1.6414      0.00000
    121       1.7863      0.00000
    122       1.8089      0.00000
    123       1.8404      0.00000
    124       1.9091      0.00000
    125       2.0662      0.00000
    126       2.1426      0.00000
    127       2.2300      0.00000
    128       2.2349      0.00000
    129       2.3502      0.00000
    130       2.3872      0.00000
    131       2.5445      0.00000
    132       2.5615      0.00000
    133       2.7427      0.00000
    134       2.7765      0.00000
    135       2.8288      0.00000
    136       2.8844      0.00000


--------------------------------------------------------------------------------------------------------


 soft charge-density along one line, spin component           1
         0         1         2         3         4         5         6         7         8         9
 total charge-density along one line
 
 pseudopotential strength for first ion, spin component:           1
  4.401  -5.369   0.000  -0.008  -0.019   0.000  -0.005  -0.016
 -5.369  -2.769  -0.000   0.001   0.002   0.000  -0.001  -0.003
  0.000  -0.000  -6.930   0.000  -0.000   1.745   0.000  -0.000
 -0.008   0.001   0.000  -6.925  -0.001   0.000   1.758  -0.003
 -0.019   0.002  -0.000  -0.001  -6.924  -0.000  -0.003   1.759
  0.000   0.000   1.745   0.000  -0.000   7.288   0.000  -0.000
 -0.005  -0.001   0.000   1.758  -0.003   0.000   7.290  -0.000
 -0.016  -0.003  -0.000  -0.003   1.759  -0.000  -0.000   7.290
 -0.000   0.000  -0.010   0.000   0.000  -0.007   0.000   0.000
  0.000  -0.000  -0.003   0.000   0.000  -0.001   0.000   0.000
  0.002  -0.001  -0.000  -0.004   0.006  -0.000  -0.003   0.004
 -0.002   0.001   0.000  -0.010  -0.003   0.000  -0.007  -0.002
  0.004  -0.002  -0.000  -0.000  -0.009  -0.000  -0.000  -0.006
  0.000   0.000   0.000  -0.000  -0.000   0.000  -0.000  -0.000
 -0.000  -0.000   0.000  -0.000  -0.000   0.000  -0.000  -0.000
 -0.000  -0.000   0.000   0.000  -0.000   0.000   0.000  -0.000
  0.000   0.000  -0.000   0.000   0.000  -0.000   0.000   0.000
 -0.000  -0.000   0.000   0.000   0.000   0.000   0.000   0.000
 total augmentation occupancy for first ion, spin component:           1
  2.355  -0.912   0.000   0.000   0.000   0.000   0.000   0.000   0.000   0.000   0.000   0.000   0.000   0.000   0.000   0.000
 -0.912   2.345   0.000   0.000   0.000   0.000   0.000   0.000   0.000   0.000   0.000   0.000   0.000   0.000   0.000   0.000
  0.000   0.000   2.000   0.000   0.000   0.000   0.000   0.000   0.000   0.000   0.000   0.000   0.000   0.000   0.000   0.000
  0.000   0.000   0.000   2.000   0.000   0.000   0.000   0.000   0.000   0.000   0.000   0.000   0.000   0.000   0.000   0.000
  0.000   0.000   0.000   0.000   2.000   0.000   0.000   0.000   0.000   0.000   0.000   0.000   0.000   0.000   0.000   0.000
  0.000   0.000   0.000   0.000   0.000   0.000   0.000   0.000   0.000   0.000   0.000   0.000   0.000   0.000   0.000   0.000
  0.000   0.000   0.000   0.000   0.000   0.000   0.000   0.000   0.000   0.000   0.000   0.000   0.000   0.000   0.000   0.000
  0.000   0.000   0.000   0.000   0.000   0.000   0.000   0.000   0.000   0.000   0.000   0.000   0.000   0.000   0.000   0.000
  0.000   0.000   0.000   0.000   0.000   0.000   0.000   0.000   0.002   0.000   0.000   0.000   0.000   0.000   0.000   0.000
  0.000   0.000   0.000   0.000   0.000   0.000   0.000   0.000   0.000   0.002   0.000   0.000   0.000   0.000   0.000   0.000
  0.000   0.000   0.000   0.000   0.000   0.000   0.000   0.000   0.000   0.000   0.002   0.000   0.000   0.000   0.000   0.000
  0.000   0.000   0.000   0.000   0.000   0.000   0.000   0.000   0.000   0.000   0.000   0.002   0.000   0.000   0.000   0.000
  0.000   0.000   0.000   0.000   0.000   0.000   0.000   0.000   0.000   0.000   0.000   0.000   0.002   0.000   0.000   0.000
  0.000   0.000   0.000   0.000   0.000   0.000   0.000   0.000   0.000   0.000   0.000   0.000   0.000   0.000   0.000   0.000
  0.000   0.000   0.000   0.000   0.000   0.000   0.000   0.000   0.000   0.000   0.000   0.000   0.000   0.000   0.000   0.000
  0.000   0.000   0.000   0.000   0.000   0.000   0.000   0.000   0.000   0.000   0.000   0.000   0.000   0.000   0.000   0.000
  0.000   0.000   0.000   0.000   0.000   0.000   0.000   0.000   0.000   0.000   0.000   0.000   0.000   0.000   0.000   0.000
  0.000   0.000   0.000   0.000   0.000   0.000   0.000   0.000   0.000   0.000   0.000   0.000   0.000   0.000   0.000   0.000


------------------------ aborting loop because EDIFF is reached ----------------------------------------


    CHARGE:  cpu time    1.5150: real time    1.5484
    FORLOC:  cpu time    0.0167: real time    0.0167
    FORNL :  cpu time    6.4341: real time    6.5822
    STRESS:  cpu time   19.2855: real time   19.6650
    FORCOR:  cpu time    2.7105: real time    2.7169
    FORHAR:  cpu time    0.0369: real time    0.0370
    OFIELD:  cpu time    0.0002: real time    0.0002

  FORCE on cell =-STRESS in cart. coord.  units (eV):
  Direction    XX          YY          ZZ          XY          YZ          ZX
  --------------------------------------------------------------------------------------
  Alpha Z   338.54128   338.54128   338.54128
  Ewald  -40697.18148 34696.36341 34240.76545    -0.00003     0.00001    -0.00012
  Hartree-35961.89310 37211.20030 36852.84827     0.00000     0.00000     0.00001
  E(xc)    -697.59713  -699.13809  -699.18015    -0.00000     0.00000    -0.00001
  Local   74441.13390-74143.97096-73319.62911     0.00002    -0.00001     0.00007
  n-local   506.25465   508.81842   510.81285    -0.00001    -0.00000     0.00276
  augment  -251.39800  -251.97656  -251.95736    -0.00000     0.00000     0.00034
  Kinetic  2321.73537  2339.26961  2327.19764    -0.00001     0.00000    -0.00018
  Fock        0.00000     0.00000     0.00000     0.00000     0.00000     0.00000
  -------------------------------------------------------------------------------------
  Total      -0.40452    -0.89259    -0.60114     0.00000     0.00000     0.00000
  in kB      -0.30300    -0.66859    -0.45029     0.00000     0.00000     0.00000
  external pressure =       -0.47 kB  Pullay stress =        0.00 kB


 VOLUME and BASIS-vectors are now :
 -----------------------------------------------------------------------------
  energy-cutoff  :      500.00
  volume of cell :     2138.95
      direct lattice vectors                 reciprocal lattice vectors
    28.498168000  0.000000000  0.000000000     0.035089975  0.000000000  0.000000000
     0.000000000  6.616264417  0.000000000     0.000000000  0.151142690  0.000000000
     0.000000000  0.000000000 11.344096756     0.000000000  0.000000000  0.088151575

  length of vectors
    28.498168000  6.616264417 11.344096756     0.035089975  0.151142690  0.088151575


 FORCES acting on ions
    electron-ion (+dipol)            ewald-force                    non-local-force                 convergence-correction
 -----------------------------------------------------------------------------------------------
   0.115E+04 -.958E-04 0.350E+02   -.114E+04 0.108E-04 -.339E+02   -.383E+01 -.179E-21 -.119E+01   -.107E+00 -.866E-05 0.305E-01
   0.518E+03 -.161E-03 -.252E+02   -.518E+03 -.195E-04 0.248E+02   -.300E-01 -.388E-21 0.342E+00   -.122E+00 0.407E-04 -.186E-01
   0.403E+03 -.746E-04 0.890E+00   -.403E+03 0.149E-04 -.393E+00   0.447E+00 0.263E-21 -.554E+00   -.108E+00 -.125E-04 0.692E-01
   -.518E+03 -.774E-04 -.252E+02   0.518E+03 0.141E-04 0.248E+02   0.300E-01 -.242E-21 0.342E+00   0.125E+00 -.118E-04 -.178E-01
   -.403E+03 -.156E-03 0.891E+00   0.403E+03 -.203E-04 -.393E+00   -.447E+00 0.301E-21 -.554E+00   0.111E+00 0.411E-04 0.687E-01
   -.115E+04 -.129E-03 0.350E+02   0.114E+04 -.139E-04 -.339E+02   0.383E+01 -.253E-21 -.119E+01   0.110E+00 0.377E-04 0.307E-01
   0.961E+03 -.151E-03 -.461E+02   -.960E+03 -.183E-04 0.458E+02   -.875E+00 -.128E-21 0.974E-01   -.182E+00 0.388E-04 0.208E+00
   0.784E+03 -.107E-03 0.116E+02   -.783E+03 0.144E-04 -.119E+02   -.114E+01 0.632E-21 0.369E+00   -.149E+00 -.118E-04 -.673E-01
   0.136E+03 -.152E-03 0.158E+02   -.137E+03 -.179E-04 -.156E+02   0.610E+00 0.642E-22 -.140E+00   0.411E-01 0.392E-04 -.475E-01
   -.784E+03 -.138E-03 0.116E+02   0.783E+03 -.149E-04 -.119E+02   0.114E+01 -.630E-21 0.369E+00   0.152E+00 0.386E-04 -.676E-01
   -.136E+03 -.793E-04 0.158E+02   0.137E+03 0.171E-04 -.156E+02   -.610E+00 0.438E-22 -.140E+00   -.378E-01 -.141E-04 -.467E-01
   -.961E+03 -.789E-04 -.461E+02   0.960E+03 0.165E-04 0.458E+02   0.875E+00 0.159E-21 0.974E-01   0.186E+00 -.134E-04 0.209E+00
   0.446E+03 0.357E+02 -.437E+02   -.445E+03 -.373E+02 0.446E+02   -.521E+00 0.155E+01 -.826E+00   -.849E-01 0.305E-01 -.301E-01
   0.293E+03 -.281E+02 0.680E+01   -.292E+03 0.294E+02 -.614E+01   -.482E+00 -.134E+01 -.656E+00   -.429E-01 0.218E-01 -.146E-01
   0.614E+02 0.325E+02 0.178E+02   -.619E+02 -.339E+02 -.184E+02   0.537E+00 0.145E+01 0.651E+00   -.523E-01 -.252E-02 -.175E-01
   0.446E+03 -.357E+02 -.437E+02   -.445E+03 0.373E+02 0.446E+02   -.521E+00 -.155E+01 -.826E+00   -.849E-01 -.306E-01 -.301E-01
   0.614E+02 -.325E+02 0.178E+02   -.619E+02 0.339E+02 -.184E+02   0.537E+00 -.145E+01 0.651E+00   -.523E-01 0.251E-02 -.175E-01
   0.293E+03 0.281E+02 0.680E+01   -.292E+03 -.294E+02 -.614E+01   -.482E+00 0.134E+01 -.656E+00   -.429E-01 -.218E-01 -.146E-01
   -.293E+03 0.281E+02 0.680E+01   0.292E+03 -.294E+02 -.614E+01   0.482E+00 0.134E+01 -.656E+00   0.424E-01 -.218E-01 -.147E-01
   -.614E+02 -.325E+02 0.178E+02   0.619E+02 0.339E+02 -.184E+02   -.537E+00 -.145E+01 0.651E+00   0.526E-01 0.278E-02 -.174E-01
   -.446E+03 -.357E+02 -.437E+02   0.445E+03 0.373E+02 0.446E+02   0.521E+00 -.155E+01 -.826E+00   0.857E-01 -.305E-01 -.300E-01
   -.614E+02 0.325E+02 0.178E+02   0.619E+02 -.339E+02 -.184E+02   -.537E+00 0.145E+01 0.651E+00   0.526E-01 -.278E-02 -.174E-01
   -.293E+03 -.281E+02 0.680E+01   0.292E+03 0.294E+02 -.614E+01   0.482E+00 -.134E+01 -.656E+00   0.424E-01 0.218E-01 -.147E-01
   -.446E+03 0.357E+02 -.437E+02   0.445E+03 -.373E+02 0.446E+02   0.521E+00 0.155E+01 -.826E+00   0.857E-01 0.305E-01 -.300E-01
   0.488E+03 -.743E-05 0.325E+02   -.489E+03 -.717E-05 -.319E+02   0.159E+01 -.952E-22 -.507E+00   -.977E-01 0.536E-05 -.599E-01
   0.213E+03 0.536E-05 -.124E+02   -.211E+03 0.831E-05 0.118E+02   -.208E+01 0.205E-21 0.584E+00   -.922E-01 -.700E-05 -.344E-03
   0.145E+03 -.109E-05 -.426E+01   -.146E+03 -.787E-05 0.485E+01   0.190E+01 0.138E-21 -.647E+00   -.274E-01 0.743E-05 0.483E-01
   -.213E+03 -.503E-05 -.124E+02   0.211E+03 -.794E-05 0.118E+02   0.208E+01 -.136E-21 0.584E+00   0.928E-01 0.702E-05 -.613E-03
   -.145E+03 -.200E-05 -.426E+01   0.146E+03 0.806E-05 0.485E+01   -.190E+01 -.188E-21 -.647E+00   0.269E-01 -.684E-05 0.477E-01
   -.488E+03 -.445E-05 0.325E+02   0.489E+03 0.743E-05 -.319E+02   -.159E+01 -.413E-22 -.507E+00   0.985E-01 -.602E-05 -.601E-01
   0.423E+03 0.385E-05 0.259E+01   -.423E+03 0.822E-05 -.413E+01   0.220E+00 0.127E-21 0.149E+01   -.599E-01 -.652E-05 0.607E-01
   0.367E+03 -.223E-04 0.641E+02   -.366E+03 -.784E-05 -.662E+02   -.706E+00 0.477E-21 0.209E+01   -.903E-01 0.602E-05 -.504E-01
   0.488E+02 -.211E-05 -.351E+02   -.490E+02 0.880E-05 0.367E+02   0.180E+00 -.154E-21 -.156E+01   0.194E-01 -.710E-05 0.756E-02
   -.367E+03 0.229E-04 0.641E+02   0.366E+03 0.758E-05 -.662E+02   0.706E+00 -.313E-21 0.209E+01   0.906E-01 -.620E-05 -.507E-01
   -.488E+02 0.829E-05 -.351E+02   0.490E+02 -.924E-05 0.367E+02   -.180E+00 -.371E-21 -.156E+01   -.195E-01 0.750E-05 0.810E-02
   -.423E+03 0.143E-04 0.259E+01   0.423E+03 -.822E-05 -.413E+01   -.220E+00 -.258E-21 0.149E+01   0.605E-01 0.661E-05 0.609E-01
 -----------------------------------------------------------------------------------------------
   -.389E-03 -.154E-02 0.249E+01   0.119E-11 0.250E-13 -.102E-12   0.278E-16 -.609E-21 -.258E+01   0.245E-01 0.155E-03 0.113E+00
 
 
 POSITION                                       TOTAL-FORCE (eV/Angst)
 -----------------------------------------------------------------------------------
      0.30588      1.65407      7.92439         0.037070     -0.000000     -0.046200
      4.24167      4.96220      2.17338        -0.060501      0.000000     -0.027962
      4.65066      1.65407      9.18061         0.038319     -0.000000      0.012234
      9.26494      1.65407      7.84543         0.060501      0.000000     -0.027962
      8.85594      4.96220      3.50856        -0.038319      0.000000      0.012234
     13.20072      4.96220      2.25234        -0.037070      0.000000     -0.046200
      1.94141      4.96220     10.34595         0.010797     -0.000000      0.002008
      3.11776      1.65407      4.48750        -0.024444      0.000000      0.040402
      5.98544      4.96220      6.74142         0.010912     -0.000000     -0.032169
     10.38884      4.96220     10.15954         0.024444     -0.000000      0.040402
      7.52116      1.65407      1.06937        -0.010912      0.000000     -0.032169
     11.56519      1.65407      4.67391        -0.010797      0.000000      0.002008
      1.59230      0.45796      1.67351         0.020374      0.017476     -0.001979
      2.80409      6.15706      7.27368        -0.021747     -0.036753     -0.007415
      6.19202      0.44520      3.99792         0.020907      0.024408      0.015344
      1.59230      2.85017      1.67351         0.020374     -0.017476     -0.001979
      6.19202      2.86293      3.99792         0.020907     -0.024408      0.015344
      2.80409      3.76733      7.27368        -0.021747      0.036753     -0.007415
     10.70251      0.45920      1.60164         0.021747      0.036753     -0.007415
      7.31458      6.17106      9.66996        -0.020907     -0.024408      0.015344
     11.91430      6.15831      7.34556        -0.020374     -0.017476     -0.001979
      7.31458      3.75333      9.66996        -0.020907      0.024408      0.015344
     10.70251      2.84893      1.60164         0.021747     -0.036753     -0.007415
     11.91430      3.76609      7.34556        -0.020374      0.017476     -0.001979
      0.69294      4.96220      6.98703         0.016767      0.000000      0.039861
      3.63201      1.65407      0.93513         0.023436     -0.000000      0.003411
      5.33243      4.96220     10.31334        -0.015227     -0.000000     -0.013158
      9.87459      4.96220      6.60718        -0.023436     -0.000000      0.003411
      8.17417      1.65407      4.64129         0.015227     -0.000000     -0.013158
     12.81366      1.65407      1.31498        -0.016767     -0.000000      0.039861
      1.59251      1.65407     10.92453         0.004959     -0.000000      0.001543
      2.35566      4.96220      5.21032        -0.007545      0.000000     -0.009479
      6.24545      1.65407      6.09230        -0.022758     -0.000000      0.017609
     11.15094      1.65407     10.88237         0.007545      0.000000     -0.009479
      7.26115      4.96220      0.42025         0.022758     -0.000000      0.017609
     11.91409      4.96220      5.25248        -0.004959     -0.000000      0.001543
 -----------------------------------------------------------------------------------
    total drift:                                0.024124     -0.001383      0.020254


--------------------------------------------------------------------------------------------------------



  FREE ENERGIE OF THE ION-ELECTRON SYSTEM (eV)
  ---------------------------------------------------
  free  energy   TOTEN  =      -139.88765942 eV

  energy  without entropy=     -139.88765942  energy(sigma->0) =     -139.88765942
 


--------------------------------------------------------------------------------------------------------


    POTLOK:  cpu time    3.4086: real time    3.4167


--------------------------------------------------------------------------------------------------------


 writing wavefunctions
     LOOP+:  cpu time  418.1794: real time  434.9714
    4ORBIT:  cpu time    0.0001: real time    0.0003

 total amount of memory used by VASP MPI-rank0   348139. kBytes
=======================================================================

   base      :      30000. kBytes
   nonlr-proj:       3629. kBytes
   fftplans  :       6007. kBytes
   grid      :       8947. kBytes
   one-center:        139. kBytes
   wavefun   :     299417. kBytes
 
  
  
 General timing and accounting informations for this job:
 ========================================================
  
                  Total CPU time used (sec):      466.607
                            User time (sec):      452.255
                          System time (sec):       14.353
                         Elapsed time (sec):      486.119
  
                   Maximum memory used (kb):      596704.
                   Average memory used (kb):           0.
  
                          Minor page faults:        33936
                          Major page faults:          273
                 Voluntary context switches:       600235
