<?xml version="1.0" encoding="ISO-8859-1"?>
<modeling>
 <generator>
  <i name="program" type="string">vasp </i>
  <i name="version" type="string">5.4.4.18Apr17-6-g9f103f2a35  </i>
  <i name="subversion" type="string">(build Nov 21 2017 15:30:27) complex            parallel </i>
  <i name="platform" type="string">LinuxIFC </i>
  <i name="date" type="string">2020 11 09 </i>
  <i name="time" type="string">11:55:50 </i>
 </generator>
 <incar>
  <i type="string" name="PREC">normal</i>
  <i type="int" name="ICHARG">    11</i>
  <i type="int" name="NELM">   100</i>
  <i name="EDIFF">      0.00000100</i>
  <i name="EDIFFG">     -0.01000000</i>
  <i name="ENCUT">    500.00000000</i>
  <i name="POTIM">      0.30000000</i>
  <i type="string" name="LREAL"> Auto       ! Projection in reciprocal s</i>
  <i type="int" name="ISMEAR">     0</i>
  <i name="SIGMA">      0.01000000</i>
  <i type="logical" name="LWAVE"> T  </i>
  <i type="logical" name="LCHARG"> T  </i>
  <i type="logical" name="LASPH"> T  </i>
  <v type="int" name="KPOINT_BSE">    -1     0     0     0</v>
  <i type="int" name="NELM">   100</i>
  <i type="string" name="GGA"> MK</i>
  <i name="PARAM1">      0.12340000</i>
  <i name="PARAM2">      0.71135700</i>
  <i type="logical" name="LUSE_VDW"> T  </i>
  <i name="Zab_VDW">     -1.88670000</i>
  <i name="AGGAC">      0.00000000</i>
  <i type="logical" name="LASPH"> T  </i>
 </incar>
 <structure name="primitive_cell" >
  <crystal>
   <varray name="basis" >
    <v>      28.49816800       0.00000000       0.00000000 </v>
    <v>       0.00000000       6.61626442       0.00000000 </v>
    <v>       0.00000000       0.00000000      11.34409676 </v>
   </varray>
   <i name="volume">   2138.94549401 </i>
   <varray name="rec_basis" >
    <v>       0.03508997       0.00000000       0.00000000 </v>
    <v>       0.00000000       0.15114269       0.00000000 </v>
    <v>       0.00000000       0.00000000       0.08815158 </v>
   </varray>
  </crystal>
  <varray name="positions" >
   <v>       0.01073337       0.25000000      -0.30145237 </v>
   <v>       0.05588129       0.25000000      -0.03698539 </v>
   <v>       0.09839559      -0.43059491      -0.35881330 </v>
   <v>       0.09839559      -0.06940509      -0.35881330 </v>
   <v>       0.02431527      -0.24999998      -0.38408213 </v>
   <v>       0.06812415      -0.24999998      -0.08798785 </v>
   <v>       0.10940214       0.25000000       0.39557986 </v>
   <v>       0.16319149       0.25000000      -0.19071472 </v>
   <v>       0.08266022      -0.24999998       0.45929822 </v>
   <v>       0.05587385       0.43078280       0.14752268 </v>
   <v>       0.05587385       0.06921720       0.14752268 </v>
   <v>       0.12744717       0.25000000       0.08243347 </v>
   <v>       0.21915282       0.25000000      -0.46295440 </v>
   <v>       0.18711479      -0.24999998      -0.09086291 </v>
   <v>       0.21002902      -0.24999998      -0.40573336 </v>
   <v>       0.21727788       0.43271089       0.35242261 </v>
   <v>       0.21727788       0.06728910       0.35242261 </v>
   <v>       0.25666847      -0.43271089      -0.14757739 </v>
   <v>       0.25666847      -0.06728911      -0.14757739 </v>
   <v>       0.14883996      -0.24999998       0.19158653 </v>
   <v>       0.26391733       0.25000000       0.09426666 </v>
   <v>       0.28683156       0.25000000       0.40913705 </v>
   <v>       0.25479353      -0.24999998       0.03704561 </v>
   <v>       0.32510640       0.25000000      -0.30841341 </v>
   <v>       0.31075486      -0.24999998       0.30928524 </v>
   <v>       0.34649919      -0.24999998      -0.41756647 </v>
   <v>       0.36454421      -0.24999998      -0.10442022 </v>
   <v>       0.39128615       0.25000000      -0.04070170 </v>
   <v>       0.37555078       0.43059491       0.14118668 </v>
   <v>       0.37555078       0.06940508       0.14118668 </v>
   <v>       0.40582220       0.25000000       0.41201223 </v>
   <v>       0.41807248      -0.43078280      -0.35247730 </v>
   <v>       0.41807248      -0.06921720      -0.35247730 </v>
   <v>       0.41806504      -0.24999998       0.46301453 </v>
   <v>       0.44963108       0.25000000       0.11591781 </v>
   <v>       0.46321298      -0.24999998       0.19854756 </v>
  </varray>
 </structure>
 <varray name="primitive_index" >
  <v type="int" >        1 </v>
  <v type="int" >       31 </v>
  <v type="int" >       18 </v>
  <v type="int" >       14 </v>
  <v type="int" >       25 </v>
  <v type="int" >        7 </v>
  <v type="int" >        8 </v>
  <v type="int" >        3 </v>
  <v type="int" >       32 </v>
  <v type="int" >       16 </v>
  <v type="int" >       13 </v>
  <v type="int" >       26 </v>
  <v type="int" >       33 </v>
  <v type="int" >       27 </v>
  <v type="int" >        9 </v>
  <v type="int" >       17 </v>
  <v type="int" >       15 </v>
  <v type="int" >       22 </v>
  <v type="int" >       20 </v>
  <v type="int" >        2 </v>
  <v type="int" >       11 </v>
  <v type="int" >       29 </v>
  <v type="int" >       35 </v>
  <v type="int" >        4 </v>
  <v type="int" >        5 </v>
  <v type="int" >       28 </v>
  <v type="int" >       10 </v>
  <v type="int" >       34 </v>
  <v type="int" >       23 </v>
  <v type="int" >       19 </v>
  <v type="int" >       12 </v>
  <v type="int" >       24 </v>
  <v type="int" >       21 </v>
  <v type="int" >       36 </v>
  <v type="int" >       30 </v>
  <v type="int" >        6 </v>
 </varray>
 <kpoints>
  <generation param="listgenerated">
   <i name="divisions" type="int">      20 </i>
   <v>       0.00000000       0.00000000       0.00000000 </v>
   <v>       0.00000000       0.50000000       0.00000000 </v>
   <v>       0.00000000       0.50000000       0.50000000 </v>
   <v>       0.00000000       0.00000000       0.50000000 </v>
   <v>       0.00000000       0.00000000       0.00000000 </v>
  </generation>
  <varray name="kpointlist" >
   <v>       0.00000000       0.00000000       0.00000000 </v>
   <v>       0.00000000       0.02631579       0.00000000 </v>
   <v>       0.00000000       0.05263158       0.00000000 </v>
   <v>       0.00000000       0.07894737       0.00000000 </v>
   <v>       0.00000000       0.10526316       0.00000000 </v>
   <v>       0.00000000       0.13157895       0.00000000 </v>
   <v>       0.00000000       0.15789474       0.00000000 </v>
   <v>       0.00000000       0.18421053       0.00000000 </v>
   <v>       0.00000000       0.21052632       0.00000000 </v>
   <v>       0.00000000       0.23684211       0.00000000 </v>
   <v>       0.00000000       0.26315789       0.00000000 </v>
   <v>       0.00000000       0.28947368       0.00000000 </v>
   <v>       0.00000000       0.31578947       0.00000000 </v>
   <v>       0.00000000       0.34210526       0.00000000 </v>
   <v>       0.00000000       0.36842105       0.00000000 </v>
   <v>       0.00000000       0.39473684       0.00000000 </v>
   <v>       0.00000000       0.42105263       0.00000000 </v>
   <v>       0.00000000       0.44736842       0.00000000 </v>
   <v>       0.00000000       0.47368421       0.00000000 </v>
   <v>       0.00000000       0.50000000       0.00000000 </v>
   <v>       0.00000000       0.50000000       0.00000000 </v>
   <v>       0.00000000       0.50000000       0.02631579 </v>
   <v>       0.00000000       0.50000000       0.05263158 </v>
   <v>       0.00000000       0.50000000       0.07894737 </v>
   <v>       0.00000000       0.50000000       0.10526316 </v>
   <v>       0.00000000       0.50000000       0.13157895 </v>
   <v>       0.00000000       0.50000000       0.15789474 </v>
   <v>       0.00000000       0.50000000       0.18421053 </v>
   <v>       0.00000000       0.50000000       0.21052632 </v>
   <v>       0.00000000       0.50000000       0.23684211 </v>
   <v>       0.00000000       0.50000000       0.26315789 </v>
   <v>       0.00000000       0.50000000       0.28947368 </v>
   <v>       0.00000000       0.50000000       0.31578947 </v>
   <v>       0.00000000       0.50000000       0.34210526 </v>
   <v>       0.00000000       0.50000000       0.36842105 </v>
   <v>       0.00000000       0.50000000       0.39473684 </v>
   <v>       0.00000000       0.50000000       0.42105263 </v>
   <v>       0.00000000       0.50000000       0.44736842 </v>
   <v>       0.00000000       0.50000000       0.47368421 </v>
   <v>       0.00000000       0.50000000       0.50000000 </v>
   <v>       0.00000000       0.50000000       0.50000000 </v>
   <v>       0.00000000       0.47368421       0.50000000 </v>
   <v>       0.00000000       0.44736842       0.50000000 </v>
   <v>       0.00000000       0.42105263       0.50000000 </v>
   <v>       0.00000000       0.39473684       0.50000000 </v>
   <v>       0.00000000       0.36842105       0.50000000 </v>
   <v>       0.00000000       0.34210526       0.50000000 </v>
   <v>       0.00000000       0.31578947       0.50000000 </v>
   <v>       0.00000000       0.28947368       0.50000000 </v>
   <v>       0.00000000       0.26315789       0.50000000 </v>
   <v>       0.00000000       0.23684211       0.50000000 </v>
   <v>       0.00000000       0.21052632       0.50000000 </v>
   <v>       0.00000000       0.18421053       0.50000000 </v>
   <v>       0.00000000       0.15789474       0.50000000 </v>
   <v>       0.00000000       0.13157895       0.50000000 </v>
   <v>       0.00000000       0.10526316       0.50000000 </v>
   <v>       0.00000000       0.07894737       0.50000000 </v>
   <v>       0.00000000       0.05263158       0.50000000 </v>
   <v>       0.00000000       0.02631579       0.50000000 </v>
   <v>       0.00000000       0.00000000       0.50000000 </v>
   <v>       0.00000000       0.00000000       0.50000000 </v>
   <v>       0.00000000       0.00000000       0.47368421 </v>
   <v>       0.00000000       0.00000000       0.44736842 </v>
   <v>       0.00000000       0.00000000       0.42105263 </v>
   <v>       0.00000000       0.00000000       0.39473684 </v>
   <v>       0.00000000       0.00000000       0.36842105 </v>
   <v>       0.00000000       0.00000000       0.34210526 </v>
   <v>       0.00000000       0.00000000       0.31578947 </v>
   <v>       0.00000000       0.00000000       0.28947368 </v>
   <v>       0.00000000       0.00000000       0.26315789 </v>
   <v>       0.00000000       0.00000000       0.23684211 </v>
   <v>       0.00000000       0.00000000       0.21052632 </v>
   <v>       0.00000000       0.00000000       0.18421053 </v>
   <v>       0.00000000       0.00000000       0.15789474 </v>
   <v>       0.00000000       0.00000000       0.13157895 </v>
   <v>       0.00000000       0.00000000       0.10526316 </v>
   <v>       0.00000000       0.00000000       0.07894737 </v>
   <v>       0.00000000       0.00000000       0.05263158 </v>
   <v>       0.00000000       0.00000000       0.02631579 </v>
   <v>       0.00000000       0.00000000       0.00000000 </v>
  </varray>
  <varray name="weights" >
   <v>       0.01250000 </v>
   <v>       0.01250000 </v>
   <v>       0.01250000 </v>
   <v>       0.01250000 </v>
   <v>       0.01250000 </v>
   <v>       0.01250000 </v>
   <v>       0.01250000 </v>
   <v>       0.01250000 </v>
   <v>       0.01250000 </v>
   <v>       0.01250000 </v>
   <v>       0.01250000 </v>
   <v>       0.01250000 </v>
   <v>       0.01250000 </v>
   <v>       0.01250000 </v>
   <v>       0.01250000 </v>
   <v>       0.01250000 </v>
   <v>       0.01250000 </v>
   <v>       0.01250000 </v>
   <v>       0.01250000 </v>
   <v>       0.01250000 </v>
   <v>       0.01250000 </v>
   <v>       0.01250000 </v>
   <v>       0.01250000 </v>
   <v>       0.01250000 </v>
   <v>       0.01250000 </v>
   <v>       0.01250000 </v>
   <v>       0.01250000 </v>
   <v>       0.01250000 </v>
   <v>       0.01250000 </v>
   <v>       0.01250000 </v>
   <v>       0.01250000 </v>
   <v>       0.01250000 </v>
   <v>       0.01250000 </v>
   <v>       0.01250000 </v>
   <v>       0.01250000 </v>
   <v>       0.01250000 </v>
   <v>       0.01250000 </v>
   <v>       0.01250000 </v>
   <v>       0.01250000 </v>
   <v>       0.01250000 </v>
   <v>       0.01250000 </v>
   <v>       0.01250000 </v>
   <v>       0.01250000 </v>
   <v>       0.01250000 </v>
   <v>       0.01250000 </v>
   <v>       0.01250000 </v>
   <v>       0.01250000 </v>
   <v>       0.01250000 </v>
   <v>       0.01250000 </v>
   <v>       0.01250000 </v>
   <v>       0.01250000 </v>
   <v>       0.01250000 </v>
   <v>       0.01250000 </v>
   <v>       0.01250000 </v>
   <v>       0.01250000 </v>
   <v>       0.01250000 </v>
   <v>       0.01250000 </v>
   <v>       0.01250000 </v>
   <v>       0.01250000 </v>
   <v>       0.01250000 </v>
   <v>       0.01250000 </v>
   <v>       0.01250000 </v>
   <v>       0.01250000 </v>
   <v>       0.01250000 </v>
   <v>       0.01250000 </v>
   <v>       0.01250000 </v>
   <v>       0.01250000 </v>
   <v>       0.01250000 </v>
   <v>       0.01250000 </v>
   <v>       0.01250000 </v>
   <v>       0.01250000 </v>
   <v>       0.01250000 </v>
   <v>       0.01250000 </v>
   <v>       0.01250000 </v>
   <v>       0.01250000 </v>
   <v>       0.01250000 </v>
   <v>       0.01250000 </v>
   <v>       0.01250000 </v>
   <v>       0.01250000 </v>
   <v>       0.01250000 </v>
  </varray>
 </kpoints>
 <parameters>
  <separator name="general" >
   <i type="string" name="SYSTEM">unknown system</i>
   <i type="logical" name="LCOMPAT"> F  </i>
  </separator>
  <separator name="electronic" >
   <i type="string" name="PREC">normal</i>
   <i name="ENMAX">    500.00000000</i>
   <i name="ENAUG">    351.16500000</i>
   <i name="EDIFF">      0.00000100</i>
   <i type="int" name="IALGO">    38</i>
   <i type="int" name="IWAVPR">    10</i>
   <i type="int" name="NBANDS">   136</i>
   <i name="NELECT">    216.00000000</i>
   <i type="int" name="TURBO">     0</i>
   <i type="int" name="IRESTART">     0</i>
   <i type="int" name="NREBOOT">     0</i>
   <i type="int" name="NMIN">     0</i>
   <i name="EREF">      0.00000000</i>
   <separator name="electronic smearing" >
    <i type="int" name="ISMEAR">     0</i>
    <i name="SIGMA">      0.01000000</i>
    <i name="KSPACING">      0.50000000</i>
    <i type="logical" name="KGAMMA"> T  </i>
   </separator>
   <separator name="electronic projectors" >
    <i type="logical" name="LREAL"> T  </i>
    <v name="ROPT">     -0.00050000     -0.00050000</v>
    <i type="int" name="LMAXPAW">  -100</i>
    <i type="int" name="LMAXMIX">     2</i>
    <i type="logical" name="NLSPLINE"> F  </i>
   </separator>
   <separator name="electronic startup" >
    <i type="int" name="ISTART">     0</i>
    <i type="int" name="ICHARG">    11</i>
    <i type="int" name="INIWAV">     1</i>
   </separator>
   <separator name="electronic spin" >
    <i type="int" name="ISPIN">     1</i>
    <i type="logical" name="LNONCOLLINEAR"> F  </i>
    <v name="MAGMOM">      1.00000000      1.00000000      1.00000000      1.00000000      1.00000000      1.00000000      1.00000000      1.00000000      1.00000000      1.00000000      1.00000000      1.00000000      1.00000000      1.00000000      1.00000000      1.00000000      1.00000000      1.00000000      1.00000000      1.00000000
      1.00000000      1.00000000      1.00000000      1.00000000      1.00000000      1.00000000      1.00000000      1.00000000      1.00000000      1.00000000      1.00000000      1.00000000      1.00000000      1.00000000      1.00000000      1.00000000</v>
    <i name="NUPDOWN">     -1.00000000</i>
    <i type="logical" name="LSORBIT"> F  </i>
    <v name="SAXIS">      0.00000000      0.00000000      1.00000000</v>
    <i type="logical" name="LSPIRAL"> F  </i>
    <v name="QSPIRAL">      0.00000000      0.00000000      0.00000000</v>
    <i type="logical" name="LZEROZ"> F  </i>
   </separator>
   <separator name="electronic exchange-correlation" >
    <i type="logical" name="LASPH"> T  </i>
    <i type="logical" name="LMETAGGA"> F  </i>
   </separator>
   <separator name="electronic convergence" >
    <i type="int" name="NELM">   100</i>
    <i type="int" name="NELMDL">    -5</i>
    <i type="int" name="NELMIN">     2</i>
    <i name="ENINI">    500.00000000</i>
    <separator name="electronic convergence detail" >
     <i type="logical" name="LDIAG"> T  </i>
     <i type="logical" name="LSUBROT"> F  </i>
     <i name="WEIMIN">      0.00000000</i>
     <i name="EBREAK">      0.00000000</i>
     <i name="DEPER">      0.30000000</i>
     <i type="int" name="NRMM">     4</i>
     <i name="TIME">      0.40000000</i>
    </separator>
   </separator>
   <separator name="electronic mixer" >
    <i name="AMIX">      0.40000000</i>
    <i name="BMIX">      1.00000000</i>
    <i name="AMIN">      0.10000000</i>
    <i name="AMIX_MAG">      1.60000000</i>
    <i name="BMIX_MAG">      1.00000000</i>
    <separator name="electronic mixer details" >
     <i type="int" name="IMIX">     4</i>
     <i type="logical" name="MIXFIRST"> F  </i>
     <i type="int" name="MAXMIX">   -45</i>
     <i name="WC">    100.00000000</i>
     <i type="int" name="INIMIX">     1</i>
     <i type="int" name="MIXPRE">     1</i>
     <i type="int" name="MREMOVE">     5</i>
    </separator>
   </separator>
   <separator name="electronic dipolcorrection" >
    <i type="logical" name="LDIPOL"> F  </i>
    <i type="logical" name="LMONO"> F  </i>
    <i type="int" name="IDIPOL">     0</i>
    <i name="EPSILON">      1.00000000</i>
    <v name="DIPOL">   -100.00000000   -100.00000000   -100.00000000</v>
    <i name="EFIELD">      0.00000000</i>
   </separator>
  </separator>
  <separator name="grids" >
   <i type="int" name="NGX">   160</i>
   <i type="int" name="NGY">    36</i>
   <i type="int" name="NGZ">    64</i>
   <i type="int" name="NGXF">   320</i>
   <i type="int" name="NGYF">    72</i>
   <i type="int" name="NGZF">   128</i>
   <i type="logical" name="ADDGRID"> F  </i>
  </separator>
  <separator name="ionic" >
   <i type="int" name="NSW">     0</i>
   <i type="int" name="IBRION">    -1</i>
   <i type="int" name="MDALGO">     0</i>
   <i type="int" name="ISIF">     2</i>
   <i name="PSTRESS">      0.00000000</i>
   <i name="EDIFFG">     -0.01000000</i>
   <i type="int" name="NFREE">     0</i>
   <i name="POTIM">      0.30000000</i>
   <i name="SMASS">     -3.00000000</i>
   <i name="SCALEE">      1.00000000</i>
  </separator>
  <separator name="ionic md" >
   <i name="TEBEG">      0.00010000</i>
   <i name="TEEND">      0.00010000</i>
   <i type="int" name="NBLOCK">     1</i>
   <i type="int" name="KBLOCK">     1</i>
   <i type="int" name="NPACO">   256</i>
   <i name="APACO">     16.00000000</i>
  </separator>
  <separator name="symmetry" >
   <i type="int" name="ISYM">     2</i>
   <i name="SYMPREC">      0.00001000</i>
  </separator>
  <separator name="dos" >
   <i type="int" name="LORBIT">     0</i>
   <v name="RWIGS">     -1.00000000     -1.00000000</v>
   <i type="int" name="NEDOS">   301</i>
   <i name="EMIN">     10.00000000</i>
   <i name="EMAX">    -10.00000000</i>
   <i name="EFERMI">      0.00000000</i>
  </separator>
  <separator name="writing" >
   <i type="int" name="NWRITE">     2</i>
   <i type="logical" name="LWAVE"> T  </i>
   <i type="logical" name="LDOWNSAMPLE"> F  </i>
   <i type="logical" name="LCHARG"> T  </i>
   <i type="logical" name="LPARD"> F  </i>
   <i type="logical" name="LVTOT"> F  </i>
   <i type="logical" name="LVHAR"> F  </i>
   <i type="logical" name="LELF"> F  </i>
   <i type="logical" name="LOPTICS"> F  </i>
   <v name="STM">      0.00000000      0.00000000      0.00000000      0.00000000      0.00000000      0.00000000      0.00000000</v>
  </separator>
  <separator name="performance" >
   <i type="int" name="NPAR">     8</i>
   <i type="int" name="NSIM">     4</i>
   <i type="int" name="NBLK">    -1</i>
   <i type="logical" name="LPLANE"> T  </i>
   <i type="logical" name="LSCALAPACK"> T  </i>
   <i type="logical" name="LSCAAWARE"> F  </i>
   <i type="logical" name="LSCALU"> F  </i>
   <i type="logical" name="LASYNC"> F  </i>
   <i type="logical" name="LORBITALREAL"> F  </i>
  </separator>
  <separator name="miscellaneous" >
   <i type="int" name="IDIOT">     3</i>
   <i type="int" name="ISPECIAL">     0</i>
   <i type="logical" name="LMUSIC"> F  </i>
   <v name="POMASS">    137.32700000     28.08500000</v>
   <v name="DARWINR">      0.00000000      0.00000000</v>
   <v name="DARWINV">      1.00000000      1.00000000</v>
   <i type="logical" name="LCORR"> T  </i>
  </separator>
  <i type="logical" name="GGA_COMPAT"> T  </i>
  <i type="logical" name="LBERRY"> F  </i>
  <i type="int" name="ICORELEVEL">     0</i>
  <i type="logical" name="LDAU"> F  </i>
  <i type="int" name="I_CONSTRAINED_M">     0</i>
  <separator name="electronic exchange-correlation" >
   <i type="string" name="GGA">MK</i>
   <i type="int" name="VOSKOWN">     0</i>
   <i type="logical" name="LHFCALC"> F  </i>
   <i type="string" name="PRECFOCK"></i>
   <i type="logical" name="LSYMGRAD"> F  </i>
   <i type="logical" name="LHFONE"> F  </i>
   <i type="logical" name="LRHFCALC"> F  </i>
   <i type="logical" name="LTHOMAS"> F  </i>
   <i type="logical" name="LMODELHF"> F  </i>
   <i name="ENCUT4O">     -1.00000000</i>
   <i type="int" name="EXXOEP">     0</i>
   <i type="int" name="FOURORBIT">     0</i>
   <i name="AEXX">      0.00000000</i>
   <i name="HFALPHA">      0.00000000</i>
   <i name="MCALPHA">      0.00000000</i>
   <i name="ALDAX">      1.00000000</i>
   <i name="AGGAX">      1.00000000</i>
   <i name="ALDAC">      1.00000000</i>
   <i name="AGGAC">      0.00000000</i>
   <i type="int" name="NKREDX">     1</i>
   <i type="int" name="NKREDY">     1</i>
   <i type="int" name="NKREDZ">     1</i>
   <i type="logical" name="SHIFTRED"> F  </i>
   <i type="logical" name="ODDONLY"> F  </i>
   <i type="logical" name="EVENONLY"> F  </i>
   <i type="int" name="LMAXFOCK">     0</i>
   <i type="int" name="NMAXFOCKAE">     0</i>
   <i type="logical" name="LFOCKAEDFT"> F  </i>
   <i name="HFSCREEN">      0.00000000</i>
   <i name="HFSCREENC">      0.00000000</i>
   <i type="int" name="NBANDSGWLOW">     0</i>
  </separator>
  <separator name="vdW DFT" >
   <i type="logical" name="LUSE_VDW"> T  </i>
   <i name="Zab_VDW">     -1.88670000</i>
   <i name="PARAM1">      0.12340000</i>
   <i name="PARAM2">      0.71135700</i>
   <i name="PARAM3">      0.00000000</i>
  </separator>
  <separator name="model GW" >
   <i type="int" name="MODEL_GW">     0</i>
   <i name="MODEL_EPS0">     35.64909157</i>
   <i name="MODEL_ALPHA">      1.00000000</i>
  </separator>
  <separator name="linear response parameters" >
   <i type="logical" name="LEPSILON"> F  </i>
   <i type="logical" name="LRPA"> F  </i>
   <i type="logical" name="LNABLA"> F  </i>
   <i type="logical" name="LVEL"> F  </i>
   <i type="int" name="KINTER">     0</i>
   <i name="CSHIFT">      0.10000000</i>
   <i name="OMEGAMAX">     -1.00000000</i>
   <i name="DEG_THRESHOLD">      0.00200000</i>
   <i name="RTIME">     -0.10000000</i>
   <i name="WPLASMAI">      0.00000000</i>
   <v name="DFIELD">      0.00000000      0.00000000      0.00000000</v>
   <v name="WPLASMA">      0.00000000      0.00000000      0.00000000      0.00000000      0.00000000      0.00000000      0.00000000      0.00000000      0.00000000</v>
  </separator>
  <separator name="orbital magnetization" >
   <i type="logical" name="NUCIND"> F  </i>
   <v name="MAGPOS">      0.00000000      0.00000000      0.00000000</v>
   <i type="logical" name="LNICSALL"> T  </i>
   <i type="logical" name="ORBITALMAG"> F  </i>
   <i type="logical" name="LMAGBLOCH"> F  </i>
   <i type="logical" name="LCHIMAG"> F  </i>
   <i type="logical" name="LGAUGE"> T  </i>
   <i type="int" name="MAGATOM">     0</i>
   <v name="MAGDIPOL">      0.00000000      0.00000000      0.00000000</v>
   <v name="AVECCONST">      0.00000000      0.00000000      0.00000000</v>
  </separator>
  <separator name="response functions" >
   <i type="logical" name="LADDER"> F  </i>
   <i type="logical" name="LRPAFORCE"> F  </i>
   <i type="logical" name="LFXC"> F  </i>
   <i type="logical" name="LHARTREE"> T  </i>
   <i type="int" name="IBSE">     0</i>
   <v type="int" name="KPOINT">    -1     0     0     0</v>
   <i type="logical" name="LTCTE"> F  </i>
   <i type="logical" name="LTETE"> F  </i>
   <i type="logical" name="LTRIPLET"> F  </i>
   <i type="logical" name="LFXCEPS"> F  </i>
   <i type="logical" name="LFXHEG"> F  </i>
   <i type="int" name="NATURALO">     2</i>
   <i type="logical" name="L2ORDER"> F  </i>
   <i type="logical" name="LMP2LT"> F  </i>
   <i type="logical" name="LUSEW"> F  </i>
   <i name="ENCUTGW">     -2.00000000</i>
   <i name="ENCUTGWSOFT">     -2.00000000</i>
   <i name="ENCUTLF">     -1.00000000</i>
   <i type="int" name="LMAXMP2">    -1</i>
   <i name="SCISSOR">      0.00000000</i>
   <i type="int" name="NOMEGA">     0</i>
   <i type="int" name="NOMEGAR">     0</i>
   <i type="int" name="NBANDSGW">    -1</i>
   <i type="int" name="NBANDSO">    -1</i>
   <i type="int" name="NBANDSV">    -1</i>
   <i type="int" name="NELM">   100</i>
   <i type="int" name="NELMHF">     1</i>
   <i type="int" name="DIM">     3</i>
   <i type="int" name="ANTIRES">     0</i>
   <i name="OMEGAMAX">    -30.00000000</i>
   <i name="OMEGAMIN">    -30.00000000</i>
   <i name="OMEGATL">   -200.00000000</i>
   <i type="int" name="OMEGAGRID">   140</i>
   <i name="CSHIFT">     -0.10000000</i>
   <i type="logical" name="SELFENERGY"> F  </i>
   <i type="logical" name="LSPECTRAL"> F  </i>
   <i type="logical" name="LSPECTRALGW"> F  </i>
   <i type="logical" name="LSINGLES"> F  </i>
   <i type="logical" name="LFERMIGW"> F  </i>
   <i type="logical" name="ODDONLYGW"> F  </i>
   <i type="logical" name="EVENONLYGW"> F  </i>
   <i type="int" name="NKREDLFX">     1</i>
   <i type="int" name="NKREDLFY">     1</i>
   <i type="int" name="NKREDLFZ">     1</i>
   <i type="int" name="MAXMEM">  2800</i>
   <i type="int" name="TELESCOPE">     0</i>
   <i type="int" name="TAUPAR">     1</i>
   <i type="int" name="OMEGAPAR">    -1</i>
   <i name="LAMBDA">      1.00000000</i>
  </separator>
  <separator name="External order field" >
   <i name="OFIELD_KAPPA">      0.00000000</i>
   <v name="OFIELD_K">      0.00000000      0.00000000      0.00000000</v>
   <i name="OFIELD_Q6_NEAR">      0.00000000</i>
   <i name="OFIELD_Q6_FAR">      0.00000000</i>
   <i name="OFIELD_A">      0.00000000</i>
  </separator>
 </parameters>
 <atominfo>
  <atoms>      36 </atoms>
  <types>       2 </types>
  <array name="atoms" >
   <dimension dim="1">ion</dimension>
   <field type="string">element</field>
   <field type="int">atomtype</field>
   <set>
    <rc><c>Ba</c><c>   1</c></rc>
    <rc><c>Ba</c><c>   1</c></rc>
    <rc><c>Ba</c><c>   1</c></rc>
    <rc><c>Ba</c><c>   1</c></rc>
    <rc><c>Ba</c><c>   1</c></rc>
    <rc><c>Ba</c><c>   1</c></rc>
    <rc><c>Ba</c><c>   1</c></rc>
    <rc><c>Ba</c><c>   1</c></rc>
    <rc><c>Ba</c><c>   1</c></rc>
    <rc><c>Ba</c><c>   1</c></rc>
    <rc><c>Ba</c><c>   1</c></rc>
    <rc><c>Ba</c><c>   1</c></rc>
    <rc><c>Si</c><c>   2</c></rc>
    <rc><c>Si</c><c>   2</c></rc>
    <rc><c>Si</c><c>   2</c></rc>
    <rc><c>Si</c><c>   2</c></rc>
    <rc><c>Si</c><c>   2</c></rc>
    <rc><c>Si</c><c>   2</c></rc>
    <rc><c>Si</c><c>   2</c></rc>
    <rc><c>Si</c><c>   2</c></rc>
    <rc><c>Si</c><c>   2</c></rc>
    <rc><c>Si</c><c>   2</c></rc>
    <rc><c>Si</c><c>   2</c></rc>
    <rc><c>Si</c><c>   2</c></rc>
    <rc><c>Si</c><c>   2</c></rc>
    <rc><c>Si</c><c>   2</c></rc>
    <rc><c>Si</c><c>   2</c></rc>
    <rc><c>Si</c><c>   2</c></rc>
    <rc><c>Si</c><c>   2</c></rc>
    <rc><c>Si</c><c>   2</c></rc>
    <rc><c>Si</c><c>   2</c></rc>
    <rc><c>Si</c><c>   2</c></rc>
    <rc><c>Si</c><c>   2</c></rc>
    <rc><c>Si</c><c>   2</c></rc>
    <rc><c>Si</c><c>   2</c></rc>
    <rc><c>Si</c><c>   2</c></rc>
   </set>
  </array>
  <array name="atomtypes" >
   <dimension dim="1">type</dimension>
   <field type="int">atomspertype</field>
   <field type="string">element</field>
   <field>mass</field>
   <field>valence</field>
   <field type="string">pseudopotential</field>
   <set>
    <rc><c>  12</c><c>Ba</c><c>    137.32700000</c><c>     10.00000000</c><c> PAW_PBE Ba_sv 06Sep2000                </c></rc>
    <rc><c>  24</c><c>Si</c><c>     28.08500000</c><c>      4.00000000</c><c> PAW_PBE Si 05Jan2001                   </c></rc>
   </set>
  </array>
 </atominfo>
 <structure name="initialpos" >
  <crystal>
   <varray name="basis" >
    <v>      28.49816800       0.00000000       0.00000000 </v>
    <v>       0.00000000       6.61626442       0.00000000 </v>
    <v>       0.00000000       0.00000000      11.34409676 </v>
   </varray>
   <i name="volume">   2138.94549401 </i>
   <varray name="rec_basis" >
    <v>       0.03508997       0.00000000       0.00000000 </v>
    <v>       0.00000000       0.15114269       0.00000000 </v>
    <v>       0.00000000       0.00000000       0.08815158 </v>
   </varray>
  </crystal>
  <varray name="positions" >
   <v>       0.01073337       0.25000000       0.69854763 </v>
   <v>       0.14883996       0.75000002       0.19158653 </v>
   <v>       0.16319149       0.25000000       0.80928528 </v>
   <v>       0.32510640       0.25000000       0.69158659 </v>
   <v>       0.31075486       0.75000002       0.30928524 </v>
   <v>       0.46321298       0.75000002       0.19854756 </v>
   <v>       0.06812415       0.75000002       0.91201215 </v>
   <v>       0.10940214       0.25000000       0.39557986 </v>
   <v>       0.21002902       0.75000002       0.59426664 </v>
   <v>       0.36454421       0.75000002       0.89557978 </v>
   <v>       0.26391733       0.25000000       0.09426666 </v>
   <v>       0.40582220       0.25000000       0.41201223 </v>
   <v>       0.05587385       0.06921720       0.14752268 </v>
   <v>       0.09839559       0.93059491       0.64118670 </v>
   <v>       0.21727788       0.06728910       0.35242261 </v>
   <v>       0.05587385       0.43078280       0.14752268 </v>
   <v>       0.21727788       0.43271089       0.35242261 </v>
   <v>       0.09839559       0.56940509       0.64118670 </v>
   <v>       0.37555078       0.06940508       0.14118668 </v>
   <v>       0.25666847       0.93271089       0.85242261 </v>
   <v>       0.41807248       0.93078280       0.64752270 </v>
   <v>       0.25666847       0.56728911       0.85242261 </v>
   <v>       0.37555078       0.43059491       0.14118668 </v>
   <v>       0.41807248       0.56921720       0.64752270 </v>
   <v>       0.02431527       0.75000002       0.61591787 </v>
   <v>       0.12744717       0.25000000       0.08243347 </v>
   <v>       0.18711479       0.75000002       0.90913709 </v>
   <v>       0.34649919       0.75000002       0.58243353 </v>
   <v>       0.28683156       0.25000000       0.40913705 </v>
   <v>       0.44963108       0.25000000       0.11591781 </v>
   <v>       0.05588129       0.25000000       0.96301461 </v>
   <v>       0.08266022       0.75000002       0.45929822 </v>
   <v>       0.21915282       0.25000000       0.53704560 </v>
   <v>       0.39128615       0.25000000       0.95929830 </v>
   <v>       0.25479353       0.75000002       0.03704561 </v>
   <v>       0.41806504       0.75000002       0.46301453 </v>
  </varray>
 </structure>
 <calculation>
  <scstep>
   <time name="dav">   30.27   30.65</time>
   <time name="total">   34.31   34.73</time>
   <energy>
    <i name="alphaZ">    338.54127539 </i>
    <i name="ewald">  28239.97463073 </i>
    <i name="hartreedc"> -38094.84195003 </i>
    <i name="XCdc">     72.38992308 </i>
    <i name="pawpsdc">   5802.61893944 </i>
    <i name="pawaedc">  -5360.91758662 </i>
    <i name="eentropy">     -0.00088605 </i>
    <i name="bandstr">   -300.64302622 </i>
    <i name="atom">  10903.72718121 </i>
    <i name="e_fr_energy">   1600.84850092 </i>
    <i name="e_wo_entrp">   1600.84938698 </i>
    <i name="e_0_energy">   1600.84894395 </i>
   </energy>
  </scstep>
  <scstep>
   <time name="dav">   39.88   40.37</time>
   <time name="total">   39.89   40.37</time>
   <energy>
    <i name="e_fr_energy">     85.40531652 </i>
    <i name="e_wo_entrp">     85.40531652 </i>
    <i name="e_0_energy">     85.40531652 </i>
   </energy>
  </scstep>
  <scstep>
   <time name="dav">   36.43   36.86</time>
   <time name="total">   36.43   36.86</time>
   <energy>
    <i name="e_fr_energy">   -130.84348177 </i>
    <i name="e_wo_entrp">   -130.84348177 </i>
    <i name="e_0_energy">   -130.84348177 </i>
   </energy>
  </scstep>
  <scstep>
   <time name="dav">   40.75   41.24</time>
   <time name="total">   40.75   41.24</time>
   <energy>
    <i name="e_fr_energy">   -139.54997991 </i>
    <i name="e_wo_entrp">   -139.54997991 </i>
    <i name="e_0_energy">   -139.54997991 </i>
   </energy>
  </scstep>
  <scstep>
   <time name="dav">   43.23   43.75</time>
   <time name="total">   43.23   43.75</time>
   <energy>
    <i name="e_fr_energy">   -139.87879849 </i>
    <i name="e_wo_entrp">   -139.87879849 </i>
    <i name="e_0_energy">   -139.87879849 </i>
   </energy>
  </scstep>
  <scstep>
   <time name="dav">   39.76   40.24</time>
   <time name="total">   39.77   40.25</time>
   <energy>
    <i name="e_fr_energy">   -139.88732097 </i>
    <i name="e_wo_entrp">   -139.88732097 </i>
    <i name="e_0_energy">   -139.88732097 </i>
   </energy>
  </scstep>
  <scstep>
   <time name="dav">   43.43   43.95</time>
   <time name="total">   43.43   43.96</time>
   <energy>
    <i name="e_fr_energy">   -139.88764478 </i>
    <i name="e_wo_entrp">   -139.88764478 </i>
    <i name="e_0_energy">   -139.88764478 </i>
   </energy>
  </scstep>
  <scstep>
   <time name="dav">   37.28   37.74</time>
   <time name="total">   37.29   37.74</time>
   <energy>
    <i name="e_fr_energy">   -139.88765877 </i>
    <i name="e_wo_entrp">   -139.88765877 </i>
    <i name="e_0_energy">   -139.88765877 </i>
   </energy>
  </scstep>
  <scstep>
   <time name="dav">   32.92   33.31</time>
   <time name="total">   32.92   33.31</time>
   <energy>
    <i name="alphaZ">    338.54127539 </i>
    <i name="ewald">  28239.97463073 </i>
    <i name="hartreedc"> -38094.84195003 </i>
    <i name="XCdc">     72.38992308 </i>
    <i name="pawpsdc">   5802.61893944 </i>
    <i name="pawaedc">  -5360.91758662 </i>
    <i name="eentropy">     -0.00000000 </i>
    <i name="bandstr">  -2041.38007262 </i>
    <i name="atom">  10903.72718121 </i>
    <i name="e_fr_energy">   -139.88765942 </i>
    <i name="e_wo_entrp">   -139.88765942 </i>
    <i name="e_0_energy">   -139.88765942 </i>
   </energy>
  </scstep>
  <structure>
   <crystal>
    <varray name="basis" >
     <v>      28.49816800       0.00000000       0.00000000 </v>
     <v>       0.00000000       6.61626442       0.00000000 </v>
     <v>       0.00000000       0.00000000      11.34409676 </v>
    </varray>
    <i name="volume">   2138.94549401 </i>
    <varray name="rec_basis" >
     <v>       0.03508997       0.00000000       0.00000000 </v>
     <v>       0.00000000       0.15114269       0.00000000 </v>
     <v>       0.00000000       0.00000000       0.08815158 </v>
    </varray>
   </crystal>
   <varray name="positions" >
    <v>       0.01073337       0.25000000       0.69854763 </v>
    <v>       0.14883996       0.75000002       0.19158653 </v>
    <v>       0.16319149       0.25000000       0.80928528 </v>
    <v>       0.32510640       0.25000000       0.69158659 </v>
    <v>       0.31075486       0.75000002       0.30928524 </v>
    <v>       0.46321298       0.75000002       0.19854756 </v>
    <v>       0.06812415       0.75000002       0.91201215 </v>
    <v>       0.10940214       0.25000000       0.39557986 </v>
    <v>       0.21002902       0.75000002       0.59426664 </v>
    <v>       0.36454421       0.75000002       0.89557978 </v>
    <v>       0.26391733       0.25000000       0.09426666 </v>
    <v>       0.40582220       0.25000000       0.41201223 </v>
    <v>       0.05587385       0.06921720       0.14752268 </v>
    <v>       0.09839559       0.93059491       0.64118670 </v>
    <v>       0.21727788       0.06728910       0.35242261 </v>
    <v>       0.05587385       0.43078280       0.14752268 </v>
    <v>       0.21727788       0.43271089       0.35242261 </v>
    <v>       0.09839559       0.56940509       0.64118670 </v>
    <v>       0.37555078       0.06940508       0.14118668 </v>
    <v>       0.25666847       0.93271089       0.85242261 </v>
    <v>       0.41807248       0.93078280       0.64752270 </v>
    <v>       0.25666847       0.56728911       0.85242261 </v>
    <v>       0.37555078       0.43059491       0.14118668 </v>
    <v>       0.41807248       0.56921720       0.64752270 </v>
    <v>       0.02431527       0.75000002       0.61591787 </v>
    <v>       0.12744717       0.25000000       0.08243347 </v>
    <v>       0.18711479       0.75000002       0.90913709 </v>
    <v>       0.34649919       0.75000002       0.58243353 </v>
    <v>       0.28683156       0.25000000       0.40913705 </v>
    <v>       0.44963108       0.25000000       0.11591781 </v>
    <v>       0.05588129       0.25000000       0.96301461 </v>
    <v>       0.08266022       0.75000002       0.45929822 </v>
    <v>       0.21915282       0.25000000       0.53704560 </v>
    <v>       0.39128615       0.25000000       0.95929830 </v>
    <v>       0.25479353       0.75000002       0.03704561 </v>
    <v>       0.41806504       0.75000002       0.46301453 </v>
   </varray>
  </structure>
  <varray name="forces" >
   <v>       0.03707011      -0.00000000      -0.04620043 </v>
   <v>      -0.06050088       0.00000000      -0.02796201 </v>
   <v>       0.03831906      -0.00000000       0.01223369 </v>
   <v>       0.06050088       0.00000000      -0.02796201 </v>
   <v>      -0.03831906       0.00000000       0.01223369 </v>
   <v>      -0.03707011       0.00000000      -0.04620043 </v>
   <v>       0.01079705      -0.00000000       0.00200829 </v>
   <v>      -0.02444382       0.00000000       0.04040219 </v>
   <v>       0.01091159      -0.00000000      -0.03216858 </v>
   <v>       0.02444382      -0.00000000       0.04040219 </v>
   <v>      -0.01091159       0.00000000      -0.03216858 </v>
   <v>      -0.01079705       0.00000000       0.00200829 </v>
   <v>       0.02037402       0.01747588      -0.00197917 </v>
   <v>      -0.02174722      -0.03675318      -0.00741536 </v>
   <v>       0.02090673       0.02440804       0.01534421 </v>
   <v>       0.02037402      -0.01747588      -0.00197917 </v>
   <v>       0.02090673      -0.02440804       0.01534421 </v>
   <v>      -0.02174722       0.03675318      -0.00741536 </v>
   <v>       0.02174722       0.03675318      -0.00741536 </v>
   <v>      -0.02090673      -0.02440804       0.01534421 </v>
   <v>      -0.02037402      -0.01747588      -0.00197917 </v>
   <v>      -0.02090673       0.02440804       0.01534421 </v>
   <v>       0.02174722      -0.03675318      -0.00741536 </v>
   <v>      -0.02037402       0.01747588      -0.00197917 </v>
   <v>       0.01676691       0.00000000       0.03986139 </v>
   <v>       0.02343645      -0.00000000       0.00341122 </v>
   <v>      -0.01522726      -0.00000000      -0.01315805 </v>
   <v>      -0.02343645      -0.00000000       0.00341122 </v>
   <v>       0.01522726      -0.00000000      -0.01315805 </v>
   <v>      -0.01676691      -0.00000000       0.03986139 </v>
   <v>       0.00495949      -0.00000000       0.00154283 </v>
   <v>      -0.00754518       0.00000000      -0.00947901 </v>
   <v>      -0.02275818      -0.00000000       0.01760912 </v>
   <v>       0.00754518       0.00000000      -0.00947901 </v>
   <v>       0.02275818      -0.00000000       0.01760912 </v>
   <v>      -0.00495949      -0.00000000       0.00154283 </v>
  </varray>
  <varray name="stress" >
   <v>      -0.30300406       0.00000000       0.00000000 </v>
   <v>       0.00000000      -0.66859202       0.00000000 </v>
   <v>       0.00000000       0.00000000      -0.45028709 </v>
  </varray>
  <energy>
   <i name="e_fr_energy">   -139.88765942 </i>
   <i name="e_wo_entrp">   -139.88765942 </i>
   <i name="e_0_energy">     -0.00000000 </i>
  </energy>
  <time name="totalsc">  418.18  434.97</time>
  <eigenvalues>
   <array>
    <dimension dim="1">band</dimension>
    <dimension dim="2">kpoint</dimension>
    <dimension dim="3">spin</dimension>
    <field>eigene</field>
    <field>occ</field>
    <set>
     <set comment="spin 1">
      <set comment="kpoint 1">
       <r>  -28.6394    1.0000 </r>
       <r>  -28.6390    1.0000 </r>
       <r>  -27.6558    1.0000 </r>
       <r>  -27.6554    1.0000 </r>
       <r>  -27.6339    1.0000 </r>
       <r>  -27.6321    1.0000 </r>
       <r>  -27.5872    1.0000 </r>
       <r>  -27.5869    1.0000 </r>
       <r>  -27.4886    1.0000 </r>
       <r>  -27.4884    1.0000 </r>
       <r>  -27.4555    1.0000 </r>
       <r>  -27.4540    1.0000 </r>
       <r>  -14.0164    1.0000 </r>
       <r>  -14.0159    1.0000 </r>
       <r>  -13.9430    1.0000 </r>
       <r>  -13.9425    1.0000 </r>
       <r>  -13.8534    1.0000 </r>
       <r>  -13.8529    1.0000 </r>
       <r>  -13.2851    1.0000 </r>
       <r>  -13.2490    1.0000 </r>
       <r>  -13.1615    1.0000 </r>
       <r>  -13.1361    1.0000 </r>
       <r>  -13.1256    1.0000 </r>
       <r>  -13.0701    1.0000 </r>
       <r>  -13.0650    1.0000 </r>
       <r>  -13.0510    1.0000 </r>
       <r>  -13.0274    1.0000 </r>
       <r>  -13.0270    1.0000 </r>
       <r>  -13.0266    1.0000 </r>
       <r>  -13.0007    1.0000 </r>
       <r>  -12.9984    1.0000 </r>
       <r>  -12.9784    1.0000 </r>
       <r>  -12.9765    1.0000 </r>
       <r>  -12.9730    1.0000 </r>
       <r>  -12.9715    1.0000 </r>
       <r>  -12.9284    1.0000 </r>
       <r>  -12.8651    1.0000 </r>
       <r>  -12.8344    1.0000 </r>
       <r>  -12.7967    1.0000 </r>
       <r>  -12.7901    1.0000 </r>
       <r>  -12.7744    1.0000 </r>
       <r>  -12.7730    1.0000 </r>
       <r>  -12.7650    1.0000 </r>
       <r>  -12.7500    1.0000 </r>
       <r>  -12.7437    1.0000 </r>
       <r>  -12.7331    1.0000 </r>
       <r>  -12.7170    1.0000 </r>
       <r>  -12.7134    1.0000 </r>
       <r>  -10.8341    1.0000 </r>
       <r>  -10.6323    1.0000 </r>
       <r>  -10.6285    1.0000 </r>
       <r>  -10.5952    1.0000 </r>
       <r>  -10.2182    1.0000 </r>
       <r>  -10.2118    1.0000 </r>
       <r>   -6.2303    1.0000 </r>
       <r>   -6.0712    1.0000 </r>
       <r>   -6.0188    1.0000 </r>
       <r>   -5.8949    1.0000 </r>
       <r>   -5.8943    1.0000 </r>
       <r>   -5.8585    1.0000 </r>
       <r>   -5.8525    1.0000 </r>
       <r>   -5.8015    1.0000 </r>
       <r>   -5.7135    1.0000 </r>
       <r>   -5.7108    1.0000 </r>
       <r>   -5.7040    1.0000 </r>
       <r>   -5.6833    1.0000 </r>
       <r>   -5.5417    1.0000 </r>
       <r>   -5.5045    1.0000 </r>
       <r>   -5.4629    1.0000 </r>
       <r>   -5.4009    1.0000 </r>
       <r>   -5.1717    1.0000 </r>
       <r>   -5.1706    1.0000 </r>
       <r>   -3.3839    1.0000 </r>
       <r>   -2.8848    1.0000 </r>
       <r>   -2.5946    1.0000 </r>
       <r>   -2.5723    1.0000 </r>
       <r>   -2.3304    1.0000 </r>
       <r>   -2.2252    1.0000 </r>
       <r>   -2.0974    1.0000 </r>
       <r>   -1.9547    1.0000 </r>
       <r>   -1.8161    1.0000 </r>
       <r>   -1.7376    1.0000 </r>
       <r>   -1.7053    1.0000 </r>
       <r>   -1.6909    1.0000 </r>
       <r>   -1.6077    1.0000 </r>
       <r>   -1.5112    1.0000 </r>
       <r>   -1.5026    1.0000 </r>
       <r>   -1.4543    1.0000 </r>
       <r>   -1.4493    1.0000 </r>
       <r>   -1.4346    1.0000 </r>
       <r>   -1.2522    1.0000 </r>
       <r>   -1.1868    1.0000 </r>
       <r>   -1.1745    1.0000 </r>
       <r>   -1.1159    1.0000 </r>
       <r>   -1.0984    1.0000 </r>
       <r>   -1.0319    1.0000 </r>
       <r>   -1.0255    1.0000 </r>
       <r>   -0.8456    1.0000 </r>
       <r>   -0.7386    1.0000 </r>
       <r>   -0.7308    1.0000 </r>
       <r>   -0.7254    1.0000 </r>
       <r>   -0.6922    1.0000 </r>
       <r>   -0.6435    1.0000 </r>
       <r>   -0.6378    1.0000 </r>
       <r>   -0.4459    1.0000 </r>
       <r>   -0.4225    1.0000 </r>
       <r>   -0.3397    1.0000 </r>
       <r>   -0.2985    1.0000 </r>
       <r>    1.0000    0.0000 </r>
       <r>    1.0480    0.0000 </r>
       <r>    1.1333    0.0000 </r>
       <r>    1.1436    0.0000 </r>
       <r>    1.1660    0.0000 </r>
       <r>    1.2908    0.0000 </r>
       <r>    1.3459    0.0000 </r>
       <r>    1.3721    0.0000 </r>
       <r>    1.3988    0.0000 </r>
       <r>    1.5251    0.0000 </r>
       <r>    1.5905    0.0000 </r>
       <r>    1.6414    0.0000 </r>
       <r>    1.7863    0.0000 </r>
       <r>    1.8089    0.0000 </r>
       <r>    1.8404    0.0000 </r>
       <r>    1.9091    0.0000 </r>
       <r>    2.0662    0.0000 </r>
       <r>    2.1426    0.0000 </r>
       <r>    2.2300    0.0000 </r>
       <r>    2.2349    0.0000 </r>
       <r>    2.3502    0.0000 </r>
       <r>    2.3873    0.0000 </r>
       <r>    2.5447    0.0000 </r>
       <r>    2.5604    0.0000 </r>
       <r>    2.7366    0.0000 </r>
       <r>    2.7897    0.0000 </r>
       <r>    2.8185    0.0000 </r>
       <r>    2.8886    0.0000 </r>
      </set>
      <set comment="kpoint 2">
       <r>  -28.6394    1.0000 </r>
       <r>  -28.6390    1.0000 </r>
       <r>  -27.6558    1.0000 </r>
       <r>  -27.6554    1.0000 </r>
       <r>  -27.6339    1.0000 </r>
       <r>  -27.6321    1.0000 </r>
       <r>  -27.5872    1.0000 </r>
       <r>  -27.5869    1.0000 </r>
       <r>  -27.4886    1.0000 </r>
       <r>  -27.4884    1.0000 </r>
       <r>  -27.4555    1.0000 </r>
       <r>  -27.4540    1.0000 </r>
       <r>  -14.0163    1.0000 </r>
       <r>  -14.0158    1.0000 </r>
       <r>  -13.9431    1.0000 </r>
       <r>  -13.9425    1.0000 </r>
       <r>  -13.8536    1.0000 </r>
       <r>  -13.8531    1.0000 </r>
       <r>  -13.2851    1.0000 </r>
       <r>  -13.2489    1.0000 </r>
       <r>  -13.1630    1.0000 </r>
       <r>  -13.1366    1.0000 </r>
       <r>  -13.1243    1.0000 </r>
       <r>  -13.0696    1.0000 </r>
       <r>  -13.0653    1.0000 </r>
       <r>  -13.0517    1.0000 </r>
       <r>  -13.0292    1.0000 </r>
       <r>  -13.0282    1.0000 </r>
       <r>  -13.0255    1.0000 </r>
       <r>  -13.0017    1.0000 </r>
       <r>  -12.9993    1.0000 </r>
       <r>  -12.9808    1.0000 </r>
       <r>  -12.9783    1.0000 </r>
       <r>  -12.9724    1.0000 </r>
       <r>  -12.9665    1.0000 </r>
       <r>  -12.9277    1.0000 </r>
       <r>  -12.8645    1.0000 </r>
       <r>  -12.8342    1.0000 </r>
       <r>  -12.7965    1.0000 </r>
       <r>  -12.7901    1.0000 </r>
       <r>  -12.7749    1.0000 </r>
       <r>  -12.7730    1.0000 </r>
       <r>  -12.7644    1.0000 </r>
       <r>  -12.7502    1.0000 </r>
       <r>  -12.7433    1.0000 </r>
       <r>  -12.7331    1.0000 </r>
       <r>  -12.7169    1.0000 </r>
       <r>  -12.7136    1.0000 </r>
       <r>  -10.8329    1.0000 </r>
       <r>  -10.6321    1.0000 </r>
       <r>  -10.6279    1.0000 </r>
       <r>  -10.5949    1.0000 </r>
       <r>  -10.2177    1.0000 </r>
       <r>  -10.2113    1.0000 </r>
       <r>   -6.2285    1.0000 </r>
       <r>   -6.0705    1.0000 </r>
       <r>   -6.0176    1.0000 </r>
       <r>   -5.9074    1.0000 </r>
       <r>   -5.8819    1.0000 </r>
       <r>   -5.8579    1.0000 </r>
       <r>   -5.8517    1.0000 </r>
       <r>   -5.8029    1.0000 </r>
       <r>   -5.7206    1.0000 </r>
       <r>   -5.7062    1.0000 </r>
       <r>   -5.7027    1.0000 </r>
       <r>   -5.6855    1.0000 </r>
       <r>   -5.5403    1.0000 </r>
       <r>   -5.5036    1.0000 </r>
       <r>   -5.4622    1.0000 </r>
       <r>   -5.4012    1.0000 </r>
       <r>   -5.1742    1.0000 </r>
       <r>   -5.1722    1.0000 </r>
       <r>   -3.3775    1.0000 </r>
       <r>   -2.8800    1.0000 </r>
       <r>   -2.5916    1.0000 </r>
       <r>   -2.5689    1.0000 </r>
       <r>   -2.3300    1.0000 </r>
       <r>   -2.2235    1.0000 </r>
       <r>   -2.0953    1.0000 </r>
       <r>   -1.9547    1.0000 </r>
       <r>   -1.8192    1.0000 </r>
       <r>   -1.7373    1.0000 </r>
       <r>   -1.7228    1.0000 </r>
       <r>   -1.6725    1.0000 </r>
       <r>   -1.6044    1.0000 </r>
       <r>   -1.5117    1.0000 </r>
       <r>   -1.5104    1.0000 </r>
       <r>   -1.4631    1.0000 </r>
       <r>   -1.4493    1.0000 </r>
       <r>   -1.4258    1.0000 </r>
       <r>   -1.2535    1.0000 </r>
       <r>   -1.1859    1.0000 </r>
       <r>   -1.1779    1.0000 </r>
       <r>   -1.1257    1.0000 </r>
       <r>   -1.0881    1.0000 </r>
       <r>   -1.0311    1.0000 </r>
       <r>   -1.0250    1.0000 </r>
       <r>   -0.8447    1.0000 </r>
       <r>   -0.7455    1.0000 </r>
       <r>   -0.7294    1.0000 </r>
       <r>   -0.7270    1.0000 </r>
       <r>   -0.6904    1.0000 </r>
       <r>   -0.6496    1.0000 </r>
       <r>   -0.6356    1.0000 </r>
       <r>   -0.4495    1.0000 </r>
       <r>   -0.4157    1.0000 </r>
       <r>   -0.3444    1.0000 </r>
       <r>   -0.2962    1.0000 </r>
       <r>    0.9959    0.0000 </r>
       <r>    1.0454    0.0000 </r>
       <r>    1.1376    0.0000 </r>
       <r>    1.1421    0.0000 </r>
       <r>    1.1621    0.0000 </r>
       <r>    1.2847    0.0000 </r>
       <r>    1.3531    0.0000 </r>
       <r>    1.3601    0.0000 </r>
       <r>    1.4102    0.0000 </r>
       <r>    1.5250    0.0000 </r>
       <r>    1.5933    0.0000 </r>
       <r>    1.6411    0.0000 </r>
       <r>    1.7772    0.0000 </r>
       <r>    1.7974    0.0000 </r>
       <r>    1.8440    0.0000 </r>
       <r>    1.9157    0.0000 </r>
       <r>    2.0553    0.0000 </r>
       <r>    2.1520    0.0000 </r>
       <r>    2.2309    0.0000 </r>
       <r>    2.2342    0.0000 </r>
       <r>    2.3371    0.0000 </r>
       <r>    2.4074    0.0000 </r>
       <r>    2.5450    0.0000 </r>
       <r>    2.5598    0.0000 </r>
       <r>    2.7228    0.0000 </r>
       <r>    2.7763    0.0000 </r>
       <r>    2.8130    0.0000 </r>
       <r>    2.8312    0.0000 </r>
      </set>
      <set comment="kpoint 3">
       <r>  -28.6394    1.0000 </r>
       <r>  -28.6389    1.0000 </r>
       <r>  -27.6558    1.0000 </r>
       <r>  -27.6554    1.0000 </r>
       <r>  -27.6339    1.0000 </r>
       <r>  -27.6321    1.0000 </r>
       <r>  -27.5871    1.0000 </r>
       <r>  -27.5868    1.0000 </r>
       <r>  -27.4887    1.0000 </r>
       <r>  -27.4885    1.0000 </r>
       <r>  -27.4555    1.0000 </r>
       <r>  -27.4541    1.0000 </r>
       <r>  -14.0162    1.0000 </r>
       <r>  -14.0157    1.0000 </r>
       <r>  -13.9432    1.0000 </r>
       <r>  -13.9427    1.0000 </r>
       <r>  -13.8543    1.0000 </r>
       <r>  -13.8538    1.0000 </r>
       <r>  -13.2850    1.0000 </r>
       <r>  -13.2487    1.0000 </r>
       <r>  -13.1667    1.0000 </r>
       <r>  -13.1380    1.0000 </r>
       <r>  -13.1209    1.0000 </r>
       <r>  -13.0682    1.0000 </r>
       <r>  -13.0669    1.0000 </r>
       <r>  -13.0533    1.0000 </r>
       <r>  -13.0327    1.0000 </r>
       <r>  -13.0305    1.0000 </r>
       <r>  -13.0249    1.0000 </r>
       <r>  -13.0053    1.0000 </r>
       <r>  -13.0022    1.0000 </r>
       <r>  -12.9821    1.0000 </r>
       <r>  -12.9806    1.0000 </r>
       <r>  -12.9712    1.0000 </r>
       <r>  -12.9586    1.0000 </r>
       <r>  -12.9259    1.0000 </r>
       <r>  -12.8627    1.0000 </r>
       <r>  -12.8338    1.0000 </r>
       <r>  -12.7958    1.0000 </r>
       <r>  -12.7901    1.0000 </r>
       <r>  -12.7761    1.0000 </r>
       <r>  -12.7728    1.0000 </r>
       <r>  -12.7630    1.0000 </r>
       <r>  -12.7505    1.0000 </r>
       <r>  -12.7423    1.0000 </r>
       <r>  -12.7332    1.0000 </r>
       <r>  -12.7167    1.0000 </r>
       <r>  -12.7142    1.0000 </r>
       <r>  -10.8291    1.0000 </r>
       <r>  -10.6315    1.0000 </r>
       <r>  -10.6263    1.0000 </r>
       <r>  -10.5941    1.0000 </r>
       <r>  -10.2163    1.0000 </r>
       <r>  -10.2101    1.0000 </r>
       <r>   -6.2231    1.0000 </r>
       <r>   -6.0684    1.0000 </r>
       <r>   -6.0141    1.0000 </r>
       <r>   -5.9203    1.0000 </r>
       <r>   -5.8693    1.0000 </r>
       <r>   -5.8560    1.0000 </r>
       <r>   -5.8493    1.0000 </r>
       <r>   -5.8068    1.0000 </r>
       <r>   -5.7318    1.0000 </r>
       <r>   -5.7021    1.0000 </r>
       <r>   -5.6994    1.0000 </r>
       <r>   -5.6916    1.0000 </r>
       <r>   -5.5363    1.0000 </r>
       <r>   -5.5009    1.0000 </r>
       <r>   -5.4601    1.0000 </r>
       <r>   -5.4023    1.0000 </r>
       <r>   -5.1814    1.0000 </r>
       <r>   -5.1768    1.0000 </r>
       <r>   -3.3583    1.0000 </r>
       <r>   -2.8658    1.0000 </r>
       <r>   -2.5828    1.0000 </r>
       <r>   -2.5588    1.0000 </r>
       <r>   -2.3289    1.0000 </r>
       <r>   -2.2186    1.0000 </r>
       <r>   -2.0892    1.0000 </r>
       <r>   -1.9546    1.0000 </r>
       <r>   -1.8291    1.0000 </r>
       <r>   -1.7423    1.0000 </r>
       <r>   -1.7367    1.0000 </r>
       <r>   -1.6495    1.0000 </r>
       <r>   -1.5952    1.0000 </r>
       <r>   -1.5284    1.0000 </r>
       <r>   -1.5132    1.0000 </r>
       <r>   -1.4861    1.0000 </r>
       <r>   -1.4399    1.0000 </r>
       <r>   -1.4174    1.0000 </r>
       <r>   -1.2571    1.0000 </r>
       <r>   -1.1884    1.0000 </r>
       <r>   -1.1834    1.0000 </r>
       <r>   -1.1391    1.0000 </r>
       <r>   -1.0731    1.0000 </r>
       <r>   -1.0289    1.0000 </r>
       <r>   -1.0236    1.0000 </r>
       <r>   -0.8430    1.0000 </r>
       <r>   -0.7553    1.0000 </r>
       <r>   -0.7368    1.0000 </r>
       <r>   -0.7317    1.0000 </r>
       <r>   -0.6837    1.0000 </r>
       <r>   -0.6650    1.0000 </r>
       <r>   -0.6304    1.0000 </r>
       <r>   -0.4538    1.0000 </r>
       <r>   -0.4023    1.0000 </r>
       <r>   -0.3561    1.0000 </r>
       <r>   -0.2912    1.0000 </r>
       <r>    0.9807    0.0000 </r>
       <r>    1.0424    0.0000 </r>
       <r>    1.1320    0.0000 </r>
       <r>    1.1489    0.0000 </r>
       <r>    1.1562    0.0000 </r>
       <r>    1.2743    0.0000 </r>
       <r>    1.3384    0.0000 </r>
       <r>    1.3682    0.0000 </r>
       <r>    1.4282    0.0000 </r>
       <r>    1.5257    0.0000 </r>
       <r>    1.5997    0.0000 </r>
       <r>    1.6378    0.0000 </r>
       <r>    1.7571    0.0000 </r>
       <r>    1.7686    0.0000 </r>
       <r>    1.8522    0.0000 </r>
       <r>    1.9321    0.0000 </r>
       <r>    2.0318    0.0000 </r>
       <r>    2.1711    0.0000 </r>
       <r>    2.2191    0.0000 </r>
       <r>    2.2448    0.0000 </r>
       <r>    2.3241    0.0000 </r>
       <r>    2.4378    0.0000 </r>
       <r>    2.5461    0.0000 </r>
       <r>    2.5625    0.0000 </r>
       <r>    2.6807    0.0000 </r>
       <r>    2.7699    0.0000 </r>
       <r>    2.8041    0.0000 </r>
       <r>    2.9070    0.0000 </r>
      </set>
      <set comment="kpoint 4">
       <r>  -28.6394    1.0000 </r>
       <r>  -28.6389    1.0000 </r>
       <r>  -27.6558    1.0000 </r>
       <r>  -27.6554    1.0000 </r>
       <r>  -27.6338    1.0000 </r>
       <r>  -27.6321    1.0000 </r>
       <r>  -27.5870    1.0000 </r>
       <r>  -27.5867    1.0000 </r>
       <r>  -27.4887    1.0000 </r>
       <r>  -27.4886    1.0000 </r>
       <r>  -27.4555    1.0000 </r>
       <r>  -27.4541    1.0000 </r>
       <r>  -14.0159    1.0000 </r>
       <r>  -14.0154    1.0000 </r>
       <r>  -13.9434    1.0000 </r>
       <r>  -13.9429    1.0000 </r>
       <r>  -13.8555    1.0000 </r>
       <r>  -13.8550    1.0000 </r>
       <r>  -13.2849    1.0000 </r>
       <r>  -13.2483    1.0000 </r>
       <r>  -13.1716    1.0000 </r>
       <r>  -13.1401    1.0000 </r>
       <r>  -13.1166    1.0000 </r>
       <r>  -13.0708    1.0000 </r>
       <r>  -13.0662    1.0000 </r>
       <r>  -13.0549    1.0000 </r>
       <r>  -13.0369    1.0000 </r>
       <r>  -13.0339    1.0000 </r>
       <r>  -13.0246    1.0000 </r>
       <r>  -13.0101    1.0000 </r>
       <r>  -13.0077    1.0000 </r>
       <r>  -12.9860    1.0000 </r>
       <r>  -12.9769    1.0000 </r>
       <r>  -12.9697    1.0000 </r>
       <r>  -12.9508    1.0000 </r>
       <r>  -12.9242    1.0000 </r>
       <r>  -12.8599    1.0000 </r>
       <r>  -12.8332    1.0000 </r>
       <r>  -12.7947    1.0000 </r>
       <r>  -12.7902    1.0000 </r>
       <r>  -12.7773    1.0000 </r>
       <r>  -12.7725    1.0000 </r>
       <r>  -12.7613    1.0000 </r>
       <r>  -12.7507    1.0000 </r>
       <r>  -12.7410    1.0000 </r>
       <r>  -12.7333    1.0000 </r>
       <r>  -12.7164    1.0000 </r>
       <r>  -12.7150    1.0000 </r>
       <r>  -10.8230    1.0000 </r>
       <r>  -10.6307    1.0000 </r>
       <r>  -10.6235    1.0000 </r>
       <r>  -10.5927    1.0000 </r>
       <r>  -10.2140    1.0000 </r>
       <r>  -10.2080    1.0000 </r>
       <r>   -6.2144    1.0000 </r>
       <r>   -6.0650    1.0000 </r>
       <r>   -6.0091    1.0000 </r>
       <r>   -5.9328    1.0000 </r>
       <r>   -5.8569    1.0000 </r>
       <r>   -5.8531    1.0000 </r>
       <r>   -5.8450    1.0000 </r>
       <r>   -5.8123    1.0000 </r>
       <r>   -5.7461    1.0000 </r>
       <r>   -5.7025    1.0000 </r>
       <r>   -5.6988    1.0000 </r>
       <r>   -5.6935    1.0000 </r>
       <r>   -5.5301    1.0000 </r>
       <r>   -5.4966    1.0000 </r>
       <r>   -5.4567    1.0000 </r>
       <r>   -5.4039    1.0000 </r>
       <r>   -5.1931    1.0000 </r>
       <r>   -5.1841    1.0000 </r>
       <r>   -3.3273    1.0000 </r>
       <r>   -2.8425    1.0000 </r>
       <r>   -2.5684    1.0000 </r>
       <r>   -2.5421    1.0000 </r>
       <r>   -2.3270    1.0000 </r>
       <r>   -2.2112    1.0000 </r>
       <r>   -2.0792    1.0000 </r>
       <r>   -1.9545    1.0000 </r>
       <r>   -1.8451    1.0000 </r>
       <r>   -1.7561    1.0000 </r>
       <r>   -1.7358    1.0000 </r>
       <r>   -1.6284    1.0000 </r>
       <r>   -1.5814    1.0000 </r>
       <r>   -1.5508    1.0000 </r>
       <r>   -1.5152    1.0000 </r>
       <r>   -1.5123    1.0000 </r>
       <r>   -1.4320    1.0000 </r>
       <r>   -1.4139    1.0000 </r>
       <r>   -1.2625    1.0000 </r>
       <r>   -1.2055    1.0000 </r>
       <r>   -1.1790    1.0000 </r>
       <r>   -1.1507    1.0000 </r>
       <r>   -1.0607    1.0000 </r>
       <r>   -1.0254    1.0000 </r>
       <r>   -1.0197    1.0000 </r>
       <r>   -0.8436    1.0000 </r>
       <r>   -0.7636    1.0000 </r>
       <r>   -0.7546    1.0000 </r>
       <r>   -0.7380    1.0000 </r>
       <r>   -0.6883    1.0000 </r>
       <r>   -0.6746    1.0000 </r>
       <r>   -0.6215    1.0000 </r>
       <r>   -0.4553    1.0000 </r>
       <r>   -0.3880    1.0000 </r>
       <r>   -0.3719    1.0000 </r>
       <r>   -0.2862    1.0000 </r>
       <r>    0.9538    0.0000 </r>
       <r>    1.0427    0.0000 </r>
       <r>    1.1081    0.0000 </r>
       <r>    1.1542    0.0000 </r>
       <r>    1.1643    0.0000 </r>
       <r>    1.2676    0.0000 </r>
       <r>    1.3149    0.0000 </r>
       <r>    1.3858    0.0000 </r>
       <r>    1.4416    0.0000 </r>
       <r>    1.5288    0.0000 </r>
       <r>    1.6036    0.0000 </r>
       <r>    1.6272    0.0000 </r>
       <r>    1.7316    0.0000 </r>
       <r>    1.7420    0.0000 </r>
       <r>    1.8626    0.0000 </r>
       <r>    1.9536    0.0000 </r>
       <r>    2.0060    0.0000 </r>
       <r>    2.1895    0.0000 </r>
       <r>    2.2016    0.0000 </r>
       <r>    2.2577    0.0000 </r>
       <r>    2.3192    0.0000 </r>
       <r>    2.4614    0.0000 </r>
       <r>    2.5378    0.0000 </r>
       <r>    2.5565    0.0000 </r>
       <r>    2.6415    0.0000 </r>
       <r>    2.7169    0.0000 </r>
       <r>    2.8337    0.0000 </r>
       <r>    2.8758    0.0000 </r>
      </set>
      <set comment="kpoint 5">
       <r>  -28.6394    1.0000 </r>
       <r>  -28.6389    1.0000 </r>
       <r>  -27.6558    1.0000 </r>
       <r>  -27.6554    1.0000 </r>
       <r>  -27.6338    1.0000 </r>
       <r>  -27.6321    1.0000 </r>
       <r>  -27.5869    1.0000 </r>
       <r>  -27.5866    1.0000 </r>
       <r>  -27.4889    1.0000 </r>
       <r>  -27.4887    1.0000 </r>
       <r>  -27.4555    1.0000 </r>
       <r>  -27.4542    1.0000 </r>
       <r>  -14.0156    1.0000 </r>
       <r>  -14.0151    1.0000 </r>
       <r>  -13.9437    1.0000 </r>
       <r>  -13.9432    1.0000 </r>
       <r>  -13.8571    1.0000 </r>
       <r>  -13.8566    1.0000 </r>
       <r>  -13.2849    1.0000 </r>
       <r>  -13.2478    1.0000 </r>
       <r>  -13.1769    1.0000 </r>
       <r>  -13.1427    1.0000 </r>
       <r>  -13.1119    1.0000 </r>
       <r>  -13.0777    1.0000 </r>
       <r>  -13.0639    1.0000 </r>
       <r>  -13.0566    1.0000 </r>
       <r>  -13.0409    1.0000 </r>
       <r>  -13.0378    1.0000 </r>
       <r>  -13.0248    1.0000 </r>
       <r>  -13.0157    1.0000 </r>
       <r>  -13.0138    1.0000 </r>
       <r>  -12.9895    1.0000 </r>
       <r>  -12.9717    1.0000 </r>
       <r>  -12.9682    1.0000 </r>
       <r>  -12.9436    1.0000 </r>
       <r>  -12.9230    1.0000 </r>
       <r>  -12.8562    1.0000 </r>
       <r>  -12.8326    1.0000 </r>
       <r>  -12.7929    1.0000 </r>
       <r>  -12.7903    1.0000 </r>
       <r>  -12.7779    1.0000 </r>
       <r>  -12.7720    1.0000 </r>
       <r>  -12.7597    1.0000 </r>
       <r>  -12.7508    1.0000 </r>
       <r>  -12.7396    1.0000 </r>
       <r>  -12.7334    1.0000 </r>
       <r>  -12.7160    1.0000 </r>
       <r>  -12.7158    1.0000 </r>
       <r>  -10.8148    1.0000 </r>
       <r>  -10.6296    1.0000 </r>
       <r>  -10.6197    1.0000 </r>
       <r>  -10.5908    1.0000 </r>
       <r>  -10.2109    1.0000 </r>
       <r>  -10.2052    1.0000 </r>
       <r>   -6.2024    1.0000 </r>
       <r>   -6.0606    1.0000 </r>
       <r>   -6.0040    1.0000 </r>
       <r>   -5.9436    1.0000 </r>
       <r>   -5.8499    1.0000 </r>
       <r>   -5.8460    1.0000 </r>
       <r>   -5.8378    1.0000 </r>
       <r>   -5.8184    1.0000 </r>
       <r>   -5.7629    1.0000 </r>
       <r>   -5.7150    1.0000 </r>
       <r>   -5.6960    1.0000 </r>
       <r>   -5.6881    1.0000 </r>
       <r>   -5.5222    1.0000 </r>
       <r>   -5.4909    1.0000 </r>
       <r>   -5.4523    1.0000 </r>
       <r>   -5.4058    1.0000 </r>
       <r>   -5.2086    1.0000 </r>
       <r>   -5.1940    1.0000 </r>
       <r>   -3.2854    1.0000 </r>
       <r>   -2.8108    1.0000 </r>
       <r>   -2.5490    1.0000 </r>
       <r>   -2.5194    1.0000 </r>
       <r>   -2.3243    1.0000 </r>
       <r>   -2.2026    1.0000 </r>
       <r>   -2.0656    1.0000 </r>
       <r>   -1.9546    1.0000 </r>
       <r>   -1.8637    1.0000 </r>
       <r>   -1.7643    1.0000 </r>
       <r>   -1.7347    1.0000 </r>
       <r>   -1.6110    1.0000 </r>
       <r>   -1.5746    1.0000 </r>
       <r>   -1.5674    1.0000 </r>
       <r>   -1.5398    1.0000 </r>
       <r>   -1.5158    1.0000 </r>
       <r>   -1.4272    1.0000 </r>
       <r>   -1.4150    1.0000 </r>
       <r>   -1.2693    1.0000 </r>
       <r>   -1.2274    1.0000 </r>
       <r>   -1.1727    1.0000 </r>
       <r>   -1.1612    1.0000 </r>
       <r>   -1.0552    1.0000 </r>
       <r>   -1.0208    1.0000 </r>
       <r>   -1.0109    1.0000 </r>
       <r>   -0.8519    1.0000 </r>
       <r>   -0.7804    1.0000 </r>
       <r>   -0.7681    1.0000 </r>
       <r>   -0.7433    1.0000 </r>
       <r>   -0.7161    1.0000 </r>
       <r>   -0.6670    1.0000 </r>
       <r>   -0.6095    1.0000 </r>
       <r>   -0.4547    1.0000 </r>
       <r>   -0.3897    1.0000 </r>
       <r>   -0.3742    1.0000 </r>
       <r>   -0.2827    1.0000 </r>
       <r>    0.9209    0.0000 </r>
       <r>    1.0421    0.0000 </r>
       <r>    1.0773    0.0000 </r>
       <r>    1.1517    0.0000 </r>
       <r>    1.1793    0.0000 </r>
       <r>    1.2673    0.0000 </r>
       <r>    1.2964    0.0000 </r>
       <r>    1.4047    0.0000 </r>
       <r>    1.4380    0.0000 </r>
       <r>    1.5348    0.0000 </r>
       <r>    1.5950    0.0000 </r>
       <r>    1.6164    0.0000 </r>
       <r>    1.6987    0.0000 </r>
       <r>    1.7408    0.0000 </r>
       <r>    1.8716    0.0000 </r>
       <r>    1.9769    0.0000 </r>
       <r>    1.9845    0.0000 </r>
       <r>    2.1821    0.0000 </r>
       <r>    2.2011    0.0000 </r>
       <r>    2.2694    0.0000 </r>
       <r>    2.3186    0.0000 </r>
       <r>    2.4584    0.0000 </r>
       <r>    2.5245    0.0000 </r>
       <r>    2.5469    0.0000 </r>
       <r>    2.6286    0.0000 </r>
       <r>    2.6428    0.0000 </r>
       <r>    2.8356    0.0000 </r>
       <r>    2.9034    0.0000 </r>
      </set>
      <set comment="kpoint 6">
       <r>  -28.6394    1.0000 </r>
       <r>  -28.6389    1.0000 </r>
       <r>  -27.6557    1.0000 </r>
       <r>  -27.6554    1.0000 </r>
       <r>  -27.6337    1.0000 </r>
       <r>  -27.6320    1.0000 </r>
       <r>  -27.5868    1.0000 </r>
       <r>  -27.5865    1.0000 </r>
       <r>  -27.4890    1.0000 </r>
       <r>  -27.4888    1.0000 </r>
       <r>  -27.4556    1.0000 </r>
       <r>  -27.4542    1.0000 </r>
       <r>  -14.0152    1.0000 </r>
       <r>  -14.0147    1.0000 </r>
       <r>  -13.9441    1.0000 </r>
       <r>  -13.9436    1.0000 </r>
       <r>  -13.8590    1.0000 </r>
       <r>  -13.8586    1.0000 </r>
       <r>  -13.2848    1.0000 </r>
       <r>  -13.2471    1.0000 </r>
       <r>  -13.1820    1.0000 </r>
       <r>  -13.1457    1.0000 </r>
       <r>  -13.1072    1.0000 </r>
       <r>  -13.0869    1.0000 </r>
       <r>  -13.0624    1.0000 </r>
       <r>  -13.0598    1.0000 </r>
       <r>  -13.0434    1.0000 </r>
       <r>  -13.0415    1.0000 </r>
       <r>  -13.0257    1.0000 </r>
       <r>  -13.0247    1.0000 </r>
       <r>  -13.0157    1.0000 </r>
       <r>  -12.9928    1.0000 </r>
       <r>  -12.9668    1.0000 </r>
       <r>  -12.9662    1.0000 </r>
       <r>  -12.9374    1.0000 </r>
       <r>  -12.9226    1.0000 </r>
       <r>  -12.8523    1.0000 </r>
       <r>  -12.8321    1.0000 </r>
       <r>  -12.7906    1.0000 </r>
       <r>  -12.7904    1.0000 </r>
       <r>  -12.7778    1.0000 </r>
       <r>  -12.7712    1.0000 </r>
       <r>  -12.7581    1.0000 </r>
       <r>  -12.7504    1.0000 </r>
       <r>  -12.7382    1.0000 </r>
       <r>  -12.7336    1.0000 </r>
       <r>  -12.7167    1.0000 </r>
       <r>  -12.7156    1.0000 </r>
       <r>  -10.8046    1.0000 </r>
       <r>  -10.6284    1.0000 </r>
       <r>  -10.6150    1.0000 </r>
       <r>  -10.5885    1.0000 </r>
       <r>  -10.2070    1.0000 </r>
       <r>  -10.2017    1.0000 </r>
       <r>   -6.1875    1.0000 </r>
       <r>   -6.0554    1.0000 </r>
       <r>   -6.0025    1.0000 </r>
       <r>   -5.9496    1.0000 </r>
       <r>   -5.8484    1.0000 </r>
       <r>   -5.8383    1.0000 </r>
       <r>   -5.8264    1.0000 </r>
       <r>   -5.8235    1.0000 </r>
       <r>   -5.7809    1.0000 </r>
       <r>   -5.7288    1.0000 </r>
       <r>   -5.6934    1.0000 </r>
       <r>   -5.6825    1.0000 </r>
       <r>   -5.5129    1.0000 </r>
       <r>   -5.4840    1.0000 </r>
       <r>   -5.4469    1.0000 </r>
       <r>   -5.4079    1.0000 </r>
       <r>   -5.2270    1.0000 </r>
       <r>   -5.2059    1.0000 </r>
       <r>   -3.2343    1.0000 </r>
       <r>   -2.7716    1.0000 </r>
       <r>   -2.5252    1.0000 </r>
       <r>   -2.4912    1.0000 </r>
       <r>   -2.3208    1.0000 </r>
       <r>   -2.1947    1.0000 </r>
       <r>   -2.0490    1.0000 </r>
       <r>   -1.9550    1.0000 </r>
       <r>   -1.8797    1.0000 </r>
       <r>   -1.7682    1.0000 </r>
       <r>   -1.7339    1.0000 </r>
       <r>   -1.6121    1.0000 </r>
       <r>   -1.5840    1.0000 </r>
       <r>   -1.5743    1.0000 </r>
       <r>   -1.5529    1.0000 </r>
       <r>   -1.5100    1.0000 </r>
       <r>   -1.4262    1.0000 </r>
       <r>   -1.4200    1.0000 </r>
       <r>   -1.2770    1.0000 </r>
       <r>   -1.2524    1.0000 </r>
       <r>   -1.1713    1.0000 </r>
       <r>   -1.1648    1.0000 </r>
       <r>   -1.0573    1.0000 </r>
       <r>   -1.0154    1.0000 </r>
       <r>   -0.9967    1.0000 </r>
       <r>   -0.8717    1.0000 </r>
       <r>   -0.8097    1.0000 </r>
       <r>   -0.7703    1.0000 </r>
       <r>   -0.7590    1.0000 </r>
       <r>   -0.7314    1.0000 </r>
       <r>   -0.6632    1.0000 </r>
       <r>   -0.5961    1.0000 </r>
       <r>   -0.4536    1.0000 </r>
       <r>   -0.4078    1.0000 </r>
       <r>   -0.3616    1.0000 </r>
       <r>   -0.2813    1.0000 </r>
       <r>    0.8877    0.0000 </r>
       <r>    1.0336    0.0000 </r>
       <r>    1.0453    0.0000 </r>
       <r>    1.1467    0.0000 </r>
       <r>    1.1908    0.0000 </r>
       <r>    1.2720    0.0000 </r>
       <r>    1.2884    0.0000 </r>
       <r>    1.4090    0.0000 </r>
       <r>    1.4242    0.0000 </r>
       <r>    1.5463    0.0000 </r>
       <r>    1.5674    0.0000 </r>
       <r>    1.6199    0.0000 </r>
       <r>    1.6795    0.0000 </r>
       <r>    1.7490    0.0000 </r>
       <r>    1.8735    0.0000 </r>
       <r>    1.9717    0.0000 </r>
       <r>    2.0006    0.0000 </r>
       <r>    2.1616    0.0000 </r>
       <r>    2.2006    0.0000 </r>
       <r>    2.2779    0.0000 </r>
       <r>    2.3197    0.0000 </r>
       <r>    2.4190    0.0000 </r>
       <r>    2.5149    0.0000 </r>
       <r>    2.5163    0.0000 </r>
       <r>    2.5991    0.0000 </r>
       <r>    2.6440    0.0000 </r>
       <r>    2.8174    0.0000 </r>
       <r>    2.9298    0.0000 </r>
      </set>
      <set comment="kpoint 7">
       <r>  -28.6394    1.0000 </r>
       <r>  -28.6389    1.0000 </r>
       <r>  -27.6557    1.0000 </r>
       <r>  -27.6553    1.0000 </r>
       <r>  -27.6336    1.0000 </r>
       <r>  -27.6320    1.0000 </r>
       <r>  -27.5866    1.0000 </r>
       <r>  -27.5863    1.0000 </r>
       <r>  -27.4892    1.0000 </r>
       <r>  -27.4890    1.0000 </r>
       <r>  -27.4556    1.0000 </r>
       <r>  -27.4543    1.0000 </r>
       <r>  -14.0147    1.0000 </r>
       <r>  -14.0142    1.0000 </r>
       <r>  -13.9445    1.0000 </r>
       <r>  -13.9440    1.0000 </r>
       <r>  -13.8613    1.0000 </r>
       <r>  -13.8608    1.0000 </r>
       <r>  -13.2847    1.0000 </r>
       <r>  -13.2464    1.0000 </r>
       <r>  -13.1867    1.0000 </r>
       <r>  -13.1487    1.0000 </r>
       <r>  -13.1027    1.0000 </r>
       <r>  -13.0978    1.0000 </r>
       <r>  -13.0649    1.0000 </r>
       <r>  -13.0628    1.0000 </r>
       <r>  -13.0455    1.0000 </r>
       <r>  -13.0437    1.0000 </r>
       <r>  -13.0324    1.0000 </r>
       <r>  -13.0273    1.0000 </r>
       <r>  -13.0159    1.0000 </r>
       <r>  -12.9963    1.0000 </r>
       <r>  -12.9656    1.0000 </r>
       <r>  -12.9608    1.0000 </r>
       <r>  -12.9324    1.0000 </r>
       <r>  -12.9228    1.0000 </r>
       <r>  -12.8483    1.0000 </r>
       <r>  -12.8320    1.0000 </r>
       <r>  -12.7901    1.0000 </r>
       <r>  -12.7876    1.0000 </r>
       <r>  -12.7770    1.0000 </r>
       <r>  -12.7703    1.0000 </r>
       <r>  -12.7567    1.0000 </r>
       <r>  -12.7498    1.0000 </r>
       <r>  -12.7369    1.0000 </r>
       <r>  -12.7338    1.0000 </r>
       <r>  -12.7175    1.0000 </r>
       <r>  -12.7151    1.0000 </r>
       <r>  -10.7928    1.0000 </r>
       <r>  -10.6270    1.0000 </r>
       <r>  -10.6096    1.0000 </r>
       <r>  -10.5857    1.0000 </r>
       <r>  -10.2024    1.0000 </r>
       <r>  -10.1975    1.0000 </r>
       <r>   -6.1701    1.0000 </r>
       <r>   -6.0495    1.0000 </r>
       <r>   -6.0089    1.0000 </r>
       <r>   -5.9468    1.0000 </r>
       <r>   -5.8524    1.0000 </r>
       <r>   -5.8317    1.0000 </r>
       <r>   -5.8248    1.0000 </r>
       <r>   -5.8146    1.0000 </r>
       <r>   -5.7975    1.0000 </r>
       <r>   -5.7412    1.0000 </r>
       <r>   -5.6910    1.0000 </r>
       <r>   -5.6774    1.0000 </r>
       <r>   -5.5028    1.0000 </r>
       <r>   -5.4764    1.0000 </r>
       <r>   -5.4408    1.0000 </r>
       <r>   -5.4097    1.0000 </r>
       <r>   -5.2476    1.0000 </r>
       <r>   -5.2194    1.0000 </r>
       <r>   -3.1754    1.0000 </r>
       <r>   -2.7260    1.0000 </r>
       <r>   -2.4977    1.0000 </r>
       <r>   -2.4585    1.0000 </r>
       <r>   -2.3163    1.0000 </r>
       <r>   -2.1896    1.0000 </r>
       <r>   -2.0302    1.0000 </r>
       <r>   -1.9558    1.0000 </r>
       <r>   -1.8885    1.0000 </r>
       <r>   -1.7691    1.0000 </r>
       <r>   -1.7339    1.0000 </r>
       <r>   -1.6379    1.0000 </r>
       <r>   -1.6017    1.0000 </r>
       <r>   -1.5718    1.0000 </r>
       <r>   -1.5561    1.0000 </r>
       <r>   -1.4947    1.0000 </r>
       <r>   -1.4286    1.0000 </r>
       <r>   -1.4273    1.0000 </r>
       <r>   -1.2856    1.0000 </r>
       <r>   -1.2796    1.0000 </r>
       <r>   -1.1812    1.0000 </r>
       <r>   -1.1555    1.0000 </r>
       <r>   -1.0643    1.0000 </r>
       <r>   -1.0094    1.0000 </r>
       <r>   -0.9798    1.0000 </r>
       <r>   -0.9016    1.0000 </r>
       <r>   -0.8414    1.0000 </r>
       <r>   -0.7933    1.0000 </r>
       <r>   -0.7692    1.0000 </r>
       <r>   -0.7255    1.0000 </r>
       <r>   -0.6646    1.0000 </r>
       <r>   -0.5829    1.0000 </r>
       <r>   -0.4535    1.0000 </r>
       <r>   -0.4250    1.0000 </r>
       <r>   -0.3506    1.0000 </r>
       <r>   -0.2826    1.0000 </r>
       <r>    0.8587    0.0000 </r>
       <r>    1.0128    0.0000 </r>
       <r>    1.0162    0.0000 </r>
       <r>    1.1399    0.0000 </r>
       <r>    1.2018    0.0000 </r>
       <r>    1.2766    0.0000 </r>
       <r>    1.2775    0.0000 </r>
       <r>    1.3783    0.0000 </r>
       <r>    1.4415    0.0000 </r>
       <r>    1.5337    0.0000 </r>
       <r>    1.5623    0.0000 </r>
       <r>    1.6355    0.0000 </r>
       <r>    1.6682    0.0000 </r>
       <r>    1.7603    0.0000 </r>
       <r>    1.8649    0.0000 </r>
       <r>    1.9676    0.0000 </r>
       <r>    2.0235    0.0000 </r>
       <r>    2.1383    0.0000 </r>
       <r>    2.1820    0.0000 </r>
       <r>    2.2831    0.0000 </r>
       <r>    2.3214    0.0000 </r>
       <r>    2.3715    0.0000 </r>
       <r>    2.4594    0.0000 </r>
       <r>    2.4958    0.0000 </r>
       <r>    2.5654    0.0000 </r>
       <r>    2.6459    0.0000 </r>
       <r>    2.7765    0.0000 </r>
       <r>    2.8946    0.0000 </r>
      </set>
      <set comment="kpoint 8">
       <r>  -28.6394    1.0000 </r>
       <r>  -28.6389    1.0000 </r>
       <r>  -27.6557    1.0000 </r>
       <r>  -27.6553    1.0000 </r>
       <r>  -27.6335    1.0000 </r>
       <r>  -27.6320    1.0000 </r>
       <r>  -27.5864    1.0000 </r>
       <r>  -27.5861    1.0000 </r>
       <r>  -27.4894    1.0000 </r>
       <r>  -27.4892    1.0000 </r>
       <r>  -27.4557    1.0000 </r>
       <r>  -27.4544    1.0000 </r>
       <r>  -14.0141    1.0000 </r>
       <r>  -14.0136    1.0000 </r>
       <r>  -13.9450    1.0000 </r>
       <r>  -13.9445    1.0000 </r>
       <r>  -13.8638    1.0000 </r>
       <r>  -13.8634    1.0000 </r>
       <r>  -13.2847    1.0000 </r>
       <r>  -13.2456    1.0000 </r>
       <r>  -13.1908    1.0000 </r>
       <r>  -13.1517    1.0000 </r>
       <r>  -13.1095    1.0000 </r>
       <r>  -13.0985    1.0000 </r>
       <r>  -13.0711    1.0000 </r>
       <r>  -13.0659    1.0000 </r>
       <r>  -13.0523    1.0000 </r>
       <r>  -13.0430    1.0000 </r>
       <r>  -13.0349    1.0000 </r>
       <r>  -13.0290    1.0000 </r>
       <r>  -13.0154    1.0000 </r>
       <r>  -13.0002    1.0000 </r>
       <r>  -12.9645    1.0000 </r>
       <r>  -12.9559    1.0000 </r>
       <r>  -12.9284    1.0000 </r>
       <r>  -12.9234    1.0000 </r>
       <r>  -12.8447    1.0000 </r>
       <r>  -12.8325    1.0000 </r>
       <r>  -12.7892    1.0000 </r>
       <r>  -12.7841    1.0000 </r>
       <r>  -12.7756    1.0000 </r>
       <r>  -12.7692    1.0000 </r>
       <r>  -12.7553    1.0000 </r>
       <r>  -12.7487    1.0000 </r>
       <r>  -12.7358    1.0000 </r>
       <r>  -12.7339    1.0000 </r>
       <r>  -12.7180    1.0000 </r>
       <r>  -12.7147    1.0000 </r>
       <r>  -10.7797    1.0000 </r>
       <r>  -10.6256    1.0000 </r>
       <r>  -10.6036    1.0000 </r>
       <r>  -10.5826    1.0000 </r>
       <r>  -10.1973    1.0000 </r>
       <r>  -10.1929    1.0000 </r>
       <r>   -6.1508    1.0000 </r>
       <r>   -6.0431    1.0000 </r>
       <r>   -6.0221    1.0000 </r>
       <r>   -5.9371    1.0000 </r>
       <r>   -5.8639    1.0000 </r>
       <r>   -5.8283    1.0000 </r>
       <r>   -5.8226    1.0000 </r>
       <r>   -5.8179    1.0000 </r>
       <r>   -5.7942    1.0000 </r>
       <r>   -5.7492    1.0000 </r>
       <r>   -5.6887    1.0000 </r>
       <r>   -5.6730    1.0000 </r>
       <r>   -5.4920    1.0000 </r>
       <r>   -5.4684    1.0000 </r>
       <r>   -5.4341    1.0000 </r>
       <r>   -5.4109    1.0000 </r>
       <r>   -5.2696    1.0000 </r>
       <r>   -5.2343    1.0000 </r>
       <r>   -3.1107    1.0000 </r>
       <r>   -2.6751    1.0000 </r>
       <r>   -2.4675    1.0000 </r>
       <r>   -2.4227    1.0000 </r>
       <r>   -2.3102    1.0000 </r>
       <r>   -2.1890    1.0000 </r>
       <r>   -2.0106    1.0000 </r>
       <r>   -1.9558    1.0000 </r>
       <r>   -1.8883    1.0000 </r>
       <r>   -1.7675    1.0000 </r>
       <r>   -1.7356    1.0000 </r>
       <r>   -1.6670    1.0000 </r>
       <r>   -1.6286    1.0000 </r>
       <r>   -1.5647    1.0000 </r>
       <r>   -1.5584    1.0000 </r>
       <r>   -1.4777    1.0000 </r>
       <r>   -1.4345    1.0000 </r>
       <r>   -1.4334    1.0000 </r>
       <r>   -1.3085    1.0000 </r>
       <r>   -1.2950    1.0000 </r>
       <r>   -1.1908    1.0000 </r>
       <r>   -1.1455    1.0000 </r>
       <r>   -1.0734    1.0000 </r>
       <r>   -1.0037    1.0000 </r>
       <r>   -0.9628    1.0000 </r>
       <r>   -0.9373    1.0000 </r>
       <r>   -0.8731    1.0000 </r>
       <r>   -0.8316    1.0000 </r>
       <r>   -0.7652    1.0000 </r>
       <r>   -0.7154    1.0000 </r>
       <r>   -0.6715    1.0000 </r>
       <r>   -0.5714    1.0000 </r>
       <r>   -0.4555    1.0000 </r>
       <r>   -0.4403    1.0000 </r>
       <r>   -0.3418    1.0000 </r>
       <r>   -0.2870    1.0000 </r>
       <r>    0.8371    0.0000 </r>
       <r>    0.9822    0.0000 </r>
       <r>    0.9926    0.0000 </r>
       <r>    1.1330    0.0000 </r>
       <r>    1.2066    0.0000 </r>
       <r>    1.2431    0.0000 </r>
       <r>    1.2765    0.0000 </r>
       <r>    1.3798    0.0000 </r>
       <r>    1.4459    0.0000 </r>
       <r>    1.5198    0.0000 </r>
       <r>    1.5787    0.0000 </r>
       <r>    1.6550    0.0000 </r>
       <r>    1.6553    0.0000 </r>
       <r>    1.7712    0.0000 </r>
       <r>    1.8468    0.0000 </r>
       <r>    1.9670    0.0000 </r>
       <r>    2.0434    0.0000 </r>
       <r>    2.1116    0.0000 </r>
       <r>    2.1440    0.0000 </r>
       <r>    2.2854    0.0000 </r>
       <r>    2.3199    0.0000 </r>
       <r>    2.3370    0.0000 </r>
       <r>    2.4069    0.0000 </r>
[...]
       <r>   -1.4543    1.0000 </r>
       <r>   -1.4493    1.0000 </r>
       <r>   -1.4346    1.0000 </r>
       <r>   -1.2522    1.0000 </r>
       <r>   -1.1868    1.0000 </r>
       <r>   -1.1745    1.0000 </r>
       <r>   -1.1159    1.0000 </r>
       <r>   -1.0984    1.0000 </r>
       <r>   -1.0319    1.0000 </r>
       <r>   -1.0255    1.0000 </r>
       <r>   -0.8456    1.0000 </r>
       <r>   -0.7386    1.0000 </r>
       <r>   -0.7308    1.0000 </r>
       <r>   -0.7254    1.0000 </r>
       <r>   -0.6922    1.0000 </r>
       <r>   -0.6435    1.0000 </r>
       <r>   -0.6378    1.0000 </r>
       <r>   -0.4459    1.0000 </r>
       <r>   -0.4225    1.0000 </r>
       <r>   -0.3397    1.0000 </r>
       <r>   -0.2985    1.0000 </r>
       <r>    1.0000    0.0000 </r>
       <r>    1.0480    0.0000 </r>
       <r>    1.1333    0.0000 </r>
       <r>    1.1436    0.0000 </r>
       <r>    1.1660    0.0000 </r>
       <r>    1.2908    0.0000 </r>
       <r>    1.3459    0.0000 </r>
       <r>    1.3721    0.0000 </r>
       <r>    1.3988    0.0000 </r>
       <r>    1.5251    0.0000 </r>
       <r>    1.5905    0.0000 </r>
       <r>    1.6414    0.0000 </r>
       <r>    1.7863    0.0000 </r>
       <r>    1.8089    0.0000 </r>
       <r>    1.8404    0.0000 </r>
       <r>    1.9091    0.0000 </r>
       <r>    2.0662    0.0000 </r>
       <r>    2.1426    0.0000 </r>
       <r>    2.2300    0.0000 </r>
       <r>    2.2349    0.0000 </r>
       <r>    2.3502    0.0000 </r>
       <r>    2.3872    0.0000 </r>
       <r>    2.5445    0.0000 </r>
       <r>    2.5615    0.0000 </r>
       <r>    2.7427    0.0000 </r>
       <r>    2.7765    0.0000 </r>
       <r>    2.8288    0.0000 </r>
       <r>    2.8844    0.0000 </r>
      </set>
     </set>
    </set>
   </array>
  </eigenvalues>
  <separator name="orbital magnetization" >
   <v name="MAGDIPOLOUT">      0.00000000      0.00000000      0.00000000</v>
  </separator>
  <dos>
   <i name="efermi">     -0.18626868 </i>
   <total>
    <array>
     <dimension dim="1">gridpoints</dimension>
     <dimension dim="2">spin</dimension>
     <field>energy</field>
     <field>total</field>
     <field>integrated</field>
     <set>
      <set comment="spin 1">
       <r>   -30.2191     0.0000     0.0000 </r>
       <r>   -30.1033     0.0000     0.0000 </r>
       <r>   -29.9875     0.0000     0.0000 </r>
       <r>   -29.8716     0.0000     0.0000 </r>
       <r>   -29.7558     0.0000     0.0000 </r>
       <r>   -29.6399     0.0000     0.0000 </r>
       <r>   -29.5241     0.0000     0.0000 </r>
       <r>   -29.4082     0.0000     0.0000 </r>
       <r>   -29.2924     0.0000     0.0000 </r>
       <r>   -29.1765     0.0000     0.0000 </r>
       <r>   -29.0607     0.0000     0.0000 </r>
       <r>   -28.9448     0.0000     0.0000 </r>
       <r>   -28.8290     0.0000     0.0000 </r>
       <r>   -28.7132     0.0000     0.0000 </r>
       <r>   -28.5973    34.5288     4.0000 </r>
       <r>   -28.4815     0.0000     4.0000 </r>
       <r>   -28.3656     0.0000     4.0000 </r>
       <r>   -28.2498     0.0000     4.0000 </r>
       <r>   -28.1339     0.0000     4.0000 </r>
       <r>   -28.0181     0.0000     4.0000 </r>
       <r>   -27.9022     0.0000     4.0000 </r>
       <r>   -27.7864     0.0000     4.0000 </r>
       <r>   -27.6705     0.5511     4.0638 </r>
       <r>   -27.5547    69.0574    16.0000 </r>
       <r>   -27.4389    68.6989    23.9584 </r>
       <r>   -27.3230     0.0000    24.0000 </r>
       <r>   -27.2072     0.0000    24.0000 </r>
       <r>   -27.0913     0.0000    24.0000 </r>
       <r>   -26.9755     0.0000    24.0000 </r>
       <r>   -26.8596     0.0000    24.0000 </r>
       <r>   -26.7438     0.0000    24.0000 </r>
       <r>   -26.6279     0.0000    24.0000 </r>
       <r>   -26.5121     0.0000    24.0000 </r>
       <r>   -26.3962     0.0000    24.0000 </r>
       <r>   -26.2804     0.0000    24.0000 </r>
       <r>   -26.1646     0.0000    24.0000 </r>
       <r>   -26.0487     0.0000    24.0000 </r>
       <r>   -25.9329     0.0000    24.0000 </r>
       <r>   -25.8170     0.0000    24.0000 </r>
       <r>   -25.7012     0.0000    24.0000 </r>
       <r>   -25.5853     0.0000    24.0000 </r>
       <r>   -25.4695     0.0000    24.0000 </r>
       <r>   -25.3536     0.0000    24.0000 </r>
       <r>   -25.2378     0.0000    24.0000 </r>
       <r>   -25.1220     0.0000    24.0000 </r>
       <r>   -25.0061     0.0000    24.0000 </r>
       <r>   -24.8903     0.0000    24.0000 </r>
       <r>   -24.7744     0.0000    24.0000 </r>
       <r>   -24.6586     0.0000    24.0000 </r>
       <r>   -24.5427     0.0000    24.0000 </r>
       <r>   -24.4269     0.0000    24.0000 </r>
       <r>   -24.3110     0.0000    24.0000 </r>
       <r>   -24.1952     0.0000    24.0000 </r>
       <r>   -24.0793     0.0000    24.0000 </r>
       <r>   -23.9635     0.0000    24.0000 </r>
       <r>   -23.8477     0.0000    24.0000 </r>
       <r>   -23.7318     0.0000    24.0000 </r>
       <r>   -23.6160     0.0000    24.0000 </r>
       <r>   -23.5001     0.0000    24.0000 </r>
       <r>   -23.3843     0.0000    24.0000 </r>
       <r>   -23.2684     0.0000    24.0000 </r>
       <r>   -23.1526     0.0000    24.0000 </r>
       <r>   -23.0367     0.0000    24.0000 </r>
       <r>   -22.9209     0.0000    24.0000 </r>
       <r>   -22.8050     0.0000    24.0000 </r>
       <r>   -22.6892     0.0000    24.0000 </r>
       <r>   -22.5734     0.0000    24.0000 </r>
       <r>   -22.4575     0.0000    24.0000 </r>
       <r>   -22.3417     0.0000    24.0000 </r>
       <r>   -22.2258     0.0000    24.0000 </r>
       <r>   -22.1100     0.0000    24.0000 </r>
       <r>   -21.9941     0.0000    24.0000 </r>
       <r>   -21.8783     0.0000    24.0000 </r>
       <r>   -21.7624     0.0000    24.0000 </r>
       <r>   -21.6466     0.0000    24.0000 </r>
       <r>   -21.5307     0.0000    24.0000 </r>
       <r>   -21.4149     0.0000    24.0000 </r>
       <r>   -21.2991     0.0000    24.0000 </r>
       <r>   -21.1832     0.0000    24.0000 </r>
       <r>   -21.0674     0.0000    24.0000 </r>
       <r>   -20.9515     0.0000    24.0000 </r>
       <r>   -20.8357     0.0000    24.0000 </r>
       <r>   -20.7198     0.0000    24.0000 </r>
       <r>   -20.6040     0.0000    24.0000 </r>
       <r>   -20.4881     0.0000    24.0000 </r>
       <r>   -20.3723     0.0000    24.0000 </r>
       <r>   -20.2565     0.0000    24.0000 </r>
       <r>   -20.1406     0.0000    24.0000 </r>
       <r>   -20.0248     0.0000    24.0000 </r>
       <r>   -19.9089     0.0000    24.0000 </r>
       <r>   -19.7931     0.0000    24.0000 </r>
       <r>   -19.6772     0.0000    24.0000 </r>
       <r>   -19.5614     0.0000    24.0000 </r>
       <r>   -19.4455     0.0000    24.0000 </r>
       <r>   -19.3297     0.0000    24.0000 </r>
       <r>   -19.2138     0.0000    24.0000 </r>
       <r>   -19.0980     0.0000    24.0000 </r>
       <r>   -18.9822     0.0000    24.0000 </r>
       <r>   -18.8663     0.0000    24.0000 </r>
       <r>   -18.7505     0.0000    24.0000 </r>
       <r>   -18.6346     0.0000    24.0000 </r>
       <r>   -18.5188     0.0000    24.0000 </r>
       <r>   -18.4029     0.0000    24.0000 </r>
       <r>   -18.2871     0.0000    24.0000 </r>
       <r>   -18.1712     0.0000    24.0000 </r>
       <r>   -18.0554     0.0000    24.0000 </r>
       <r>   -17.9395     0.0000    24.0000 </r>
       <r>   -17.8237     0.0000    24.0000 </r>
       <r>   -17.7079     0.0000    24.0000 </r>
       <r>   -17.5920     0.0000    24.0000 </r>
       <r>   -17.4762     0.0000    24.0000 </r>
       <r>   -17.3603     0.0000    24.0000 </r>
       <r>   -17.2445     0.0000    24.0000 </r>
       <r>   -17.1286     0.0000    24.0000 </r>
       <r>   -17.0128     0.0000    24.0000 </r>
       <r>   -16.8969     0.0000    24.0000 </r>
       <r>   -16.7811     0.0000    24.0000 </r>
       <r>   -16.6653     0.0000    24.0000 </r>
       <r>   -16.5494     0.0000    24.0000 </r>
       <r>   -16.4336     0.0000    24.0000 </r>
       <r>   -16.3177     0.0000    24.0000 </r>
       <r>   -16.2019     0.0000    24.0000 </r>
       <r>   -16.0860     0.0000    24.0000 </r>
       <r>   -15.9702     0.0000    24.0000 </r>
       <r>   -15.8543     0.0000    24.0000 </r>
       <r>   -15.7385     0.0000    24.0000 </r>
       <r>   -15.6226     0.0000    24.0000 </r>
       <r>   -15.5068     0.0000    24.0000 </r>
       <r>   -15.3910     0.0000    24.0000 </r>
       <r>   -15.2751     0.0000    24.0000 </r>
       <r>   -15.1593     0.0000    24.0000 </r>
       <r>   -15.0434     0.0000    24.0000 </r>
       <r>   -14.9276     0.0000    24.0000 </r>
       <r>   -14.8117     0.0000    24.0000 </r>
       <r>   -14.6959     0.0000    24.0000 </r>
       <r>   -14.5800     0.0000    24.0000 </r>
       <r>   -14.4642     0.0000    24.0000 </r>
       <r>   -14.3483     0.0000    24.0000 </r>
       <r>   -14.2325     0.0000    24.0000 </r>
       <r>   -14.1167     0.0000    24.0000 </r>
       <r>   -14.0008    31.7833    27.6819 </r>
       <r>   -13.8850    43.5603    33.0463 </r>
       <r>   -13.7691     0.0000    36.0000 </r>
       <r>   -13.6533     0.0000    36.0000 </r>
       <r>   -13.5374     0.0000    36.0000 </r>
       <r>   -13.4216     0.0000    36.0000 </r>
       <r>   -13.3057     0.0058    36.0007 </r>
       <r>   -13.1899    45.1528    42.0057 </r>
       <r>   -13.0740    63.4585    50.3264 </r>
       <r>   -12.9582    92.2788    66.1901 </r>
       <r>   -12.8424    16.2687    73.6096 </r>
       <r>   -12.7265   128.9457    90.9377 </r>
       <r>   -12.6107     0.0000    96.0000 </r>
       <r>   -12.4948     0.0000    96.0000 </r>
       <r>   -12.3790     0.0000    96.0000 </r>
       <r>   -12.2631     0.0000    96.0000 </r>
       <r>   -12.1473     0.0000    96.0000 </r>
       <r>   -12.0314     0.0000    96.0000 </r>
       <r>   -11.9156     0.0000    96.0000 </r>
       <r>   -11.7998     0.0000    96.0000 </r>
       <r>   -11.6839     0.0000    96.0000 </r>
       <r>   -11.5681     0.0000    96.0000 </r>
       <r>   -11.4522     0.0000    96.0000 </r>
       <r>   -11.3364     0.0000    96.0000 </r>
       <r>   -11.2205     0.0000    96.0000 </r>
       <r>   -11.1047     0.0000    96.0000 </r>
       <r>   -10.9888     0.0000    96.0000 </r>
       <r>   -10.8730     0.0000    96.0000 </r>
       <r>   -10.7571     5.2818    96.6119 </r>
       <r>   -10.6413    12.4327    98.3653 </r>
       <r>   -10.5255    29.5623   103.9996 </r>
       <r>   -10.4096     0.0000   104.0000 </r>
       <r>   -10.2938     0.0000   104.0000 </r>
       <r>   -10.1779    18.0784   106.0943 </r>
       <r>   -10.0621     0.0000   108.0000 </r>
       <r>    -9.9462     0.0000   108.0000 </r>
       <r>    -9.8304     0.0000   108.0000 </r>
       <r>    -9.7145     0.0000   108.0000 </r>
       <r>    -9.5987     0.0000   108.0000 </r>
       <r>    -9.4828     0.0000   108.0000 </r>
       <r>    -9.3670     0.0000   108.0000 </r>
       <r>    -9.2512     0.0000   108.0000 </r>
       <r>    -9.1353     0.0000   108.0000 </r>
       <r>    -9.0195     0.0000   108.0000 </r>
       <r>    -8.9036     0.0000   108.0000 </r>
       <r>    -8.7878     0.0000   108.0000 </r>
       <r>    -8.6719     0.0000   108.0000 </r>
       <r>    -8.5561     0.0000   108.0000 </r>
       <r>    -8.4402     0.0000   108.0000 </r>
       <r>    -8.3244     0.0000   108.0000 </r>
       <r>    -8.2085     0.0000   108.0000 </r>
       <r>    -8.0927     0.0000   108.0000 </r>
       <r>    -7.9769     0.0000   108.0000 </r>
       <r>    -7.8610     0.0000   108.0000 </r>
       <r>    -7.7452     0.0000   108.0000 </r>
       <r>    -7.6293     0.0000   108.0000 </r>
       <r>    -7.5135     0.0000   108.0000 </r>
       <r>    -7.3976     0.0000   108.0000 </r>
       <r>    -7.2818     0.0000   108.0000 </r>
       <r>    -7.1659     0.0000   108.0000 </r>
       <r>    -7.0501     0.0000   108.0000 </r>
       <r>    -6.9343     0.0000   108.0000 </r>
       <r>    -6.8184     0.0000   108.0000 </r>
       <r>    -6.7026     0.0000   108.0000 </r>
       <r>    -6.5867     0.0000   108.0000 </r>
       <r>    -6.4709     0.0000   108.0000 </r>
       <r>    -6.3550     0.0000   108.0000 </r>
       <r>    -6.2392     0.1192   108.0138 </r>
       <r>    -6.1233    16.7457   110.6899 </r>
       <r>    -6.0075    29.1828   114.6057 </r>
       <r>    -5.8916     8.0762   116.2856 </r>
       <r>    -5.7758    38.4126   122.5499 </r>
       <r>    -5.6600    55.8262   130.4672 </r>
       <r>    -5.5441     6.2710   132.7265 </r>
       <r>    -5.4283    14.0743   134.9804 </r>
       <r>    -5.3124    36.7681   141.4594 </r>
       <r>    -5.1966     5.1547   142.5972 </r>
       <r>    -5.0807     0.0000   144.0000 </r>
       <r>    -4.9649     0.0000   144.0000 </r>
       <r>    -4.8490     0.0000   144.0000 </r>
       <r>    -4.7332     0.0000   144.0000 </r>
       <r>    -4.6173     0.0000   144.0000 </r>
       <r>    -4.5015     0.0000   144.0000 </r>
       <r>    -4.3857     0.0000   144.0000 </r>
       <r>    -4.2698     0.0000   144.0000 </r>
       <r>    -4.1540     0.0000   144.0000 </r>
       <r>    -4.0381     0.0000   144.0000 </r>
       <r>    -3.9223     0.0000   144.0000 </r>
       <r>    -3.8064     0.0000   144.0000 </r>
       <r>    -3.6906     0.0000   144.0000 </r>
       <r>    -3.5747     0.0000   144.0000 </r>
       <r>    -3.4589     0.0000   144.0000 </r>
       <r>    -3.3431     1.8156   144.2103 </r>
       <r>    -3.2272     1.1496   144.4082 </r>
       <r>    -3.1114     0.7629   144.5384 </r>
       <r>    -2.9955     0.8048   144.6682 </r>
       <r>    -2.8797     3.4660   145.1265 </r>
       <r>    -2.7638     3.7419   145.8085 </r>
       <r>    -2.6480     1.5339   146.0527 </r>
       <r>    -2.5321    12.8452   147.8131 </r>
       <r>    -2.4163     9.5767   149.6594 </r>
       <r>    -2.3004    11.4542   151.2019 </r>
       <r>    -2.1846    25.0223   154.6987 </r>
       <r>    -2.0688    23.6908   158.0445 </r>
       <r>    -1.9529    10.9429   159.7427 </r>
       <r>    -1.8371    18.0893   162.3956 </r>
       <r>    -1.7212    18.5021   165.5434 </r>
       <r>    -1.6054    25.4550   170.0738 </r>
       <r>    -1.4895    35.4250   175.7788 </r>
       <r>    -1.3737    25.4220   181.0700 </r>
       <r>    -1.2578    16.2703   184.2348 </r>
       <r>    -1.1420    23.3747   187.7579 </r>
       <r>    -1.0261    29.9219   192.2663 </r>
       <r>    -0.9103    13.9404   195.1899 </r>
       <r>    -0.7945    10.8472   198.7316 </r>
       <r>    -0.6786    35.8364   203.9515 </r>
       <r>    -0.5628    23.6832   207.4186 </r>
       <r>    -0.4469    18.7156   210.1681 </r>
       <r>    -0.3311    26.6745   215.4151 </r>
       <r>    -0.2152     1.5106   216.0000 </r>
       <r>    -0.0994     0.0000   216.0000 </r>
       <r>     0.0165     0.0000   216.0000 </r>
       <r>     0.1323     0.0000   216.0000 </r>
       <r>     0.2482     0.0000   216.0000 </r>
       <r>     0.3640     0.0000   216.0000 </r>
       <r>     0.4798     0.0000   216.0000 </r>
       <r>     0.5957     0.0000   216.0000 </r>
       <r>     0.7115    12.1221   217.4043 </r>
       <r>     0.8274     5.6988   218.1602 </r>
       <r>     0.9432     8.0417   219.4566 </r>
       <r>     1.0591    17.5951   222.0133 </r>
       <r>     1.1749    23.7873   225.3306 </r>
       <r>     1.2908    16.9943   228.1687 </r>
       <r>     1.4066    29.7481   232.9212 </r>
       <r>     1.5224    15.2129   235.7623 </r>
       <r>     1.6383    18.1908   239.0823 </r>
       <r>     1.7541    18.8399   242.1825 </r>
       <r>     1.8700    18.6597   245.2616 </r>
       <r>     1.9858    26.6892   249.7668 </r>
       <r>     2.1017    20.8617   252.4667 </r>
       <r>     2.2175    27.0622   256.0850 </r>
       <r>     2.3334    18.2103   259.3596 </r>
       <r>     2.4492    21.3957   262.9036 </r>
       <r>     2.5651    22.0028   266.0989 </r>
       <r>     2.6809    14.3103   268.7078 </r>
       <r>     2.7967    10.6361   270.3821 </r>
       <r>     2.9126     6.8465   271.9181 </r>
       <r>     3.0284     0.2158   272.0000 </r>
       <r>     3.1443     0.0000   272.0000 </r>
       <r>     3.2601     0.0000   272.0000 </r>
       <r>     3.3760     0.0000   272.0000 </r>
       <r>     3.4918     0.0000   272.0000 </r>
       <r>     3.6077     0.0000   272.0000 </r>
       <r>     3.7235     0.0000   272.0000 </r>
       <r>     3.8394     0.0000   272.0000 </r>
       <r>     3.9552     0.0000   272.0000 </r>
       <r>     4.0710     0.0000   272.0000 </r>
       <r>     4.1869     0.0000   272.0000 </r>
       <r>     4.3027     0.0000   272.0000 </r>
       <r>     4.4186     0.0000   272.0000 </r>
       <r>     4.5344     0.0000   272.0000 </r>
      </set>
     </set>
    </array>
   </total>
  </dos>
 </calculation>
 <structure name="finalpos" >
  <crystal>
   <varray name="basis" >
    <v>      28.49816800       0.00000000       0.00000000 </v>
    <v>       0.00000000       6.61626442       0.00000000 </v>
    <v>       0.00000000       0.00000000      11.34409676 </v>
   </varray>
   <i name="volume">   2138.94549401 </i>
   <varray name="rec_basis" >
    <v>       0.03508997       0.00000000       0.00000000 </v>
    <v>       0.00000000       0.15114269       0.00000000 </v>
    <v>       0.00000000       0.00000000       0.08815158 </v>
   </varray>
  </crystal>
  <varray name="positions" >
   <v>       0.01073337       0.25000000       0.69854763 </v>
   <v>       0.14883996       0.75000002       0.19158653 </v>
   <v>       0.16319149       0.25000000       0.80928528 </v>
   <v>       0.32510640       0.25000000       0.69158659 </v>
   <v>       0.31075486       0.75000002       0.30928524 </v>
   <v>       0.46321298       0.75000002       0.19854756 </v>
   <v>       0.06812415       0.75000002       0.91201215 </v>
   <v>       0.10940214       0.25000000       0.39557986 </v>
   <v>       0.21002902       0.75000002       0.59426664 </v>
   <v>       0.36454421       0.75000002       0.89557978 </v>
   <v>       0.26391733       0.25000000       0.09426666 </v>
   <v>       0.40582220       0.25000000       0.41201223 </v>
   <v>       0.05587385       0.06921720       0.14752268 </v>
   <v>       0.09839559       0.93059491       0.64118670 </v>
   <v>       0.21727788       0.06728910       0.35242261 </v>
   <v>       0.05587385       0.43078280       0.14752268 </v>
   <v>       0.21727788       0.43271089       0.35242261 </v>
   <v>       0.09839559       0.56940509       0.64118670 </v>
   <v>       0.37555078       0.06940508       0.14118668 </v>
   <v>       0.25666847       0.93271089       0.85242261 </v>
   <v>       0.41807248       0.93078280       0.64752270 </v>
   <v>       0.25666847       0.56728911       0.85242261 </v>
   <v>       0.37555078       0.43059491       0.14118668 </v>
   <v>       0.41807248       0.56921720       0.64752270 </v>
   <v>       0.02431527       0.75000002       0.61591787 </v>
   <v>       0.12744717       0.25000000       0.08243347 </v>
   <v>       0.18711479       0.75000002       0.90913709 </v>
   <v>       0.34649919       0.75000002       0.58243353 </v>
   <v>       0.28683156       0.25000000       0.40913705 </v>
   <v>       0.44963108       0.25000000       0.11591781 </v>
   <v>       0.05588129       0.25000000       0.96301461 </v>
   <v>       0.08266022       0.75000002       0.45929822 </v>
   <v>       0.21915282       0.25000000       0.53704560 </v>
   <v>       0.39128615       0.25000000       0.95929830 </v>
   <v>       0.25479353       0.75000002       0.03704561 </v>
   <v>       0.41806504       0.75000002       0.46301453 </v>
  </varray>
 </structure>
</modeling>
