 vasp.5.4.4.18Apr17-6-g9f103f2a35 (build Nov 21 2017 15:30:27) complex          
  
 executed on             LinuxIFC date 2020.11.09  12:21:59
 running on   64 total cores
 distrk:  each k-point on   32 cores,    2 groups
 distr:  one band on NCORES_PER_BAND=   4 cores,    8 groups


--------------------------------------------------------------------------------------------------------


 INCAR:
 POTCAR:   PAW_PBE Ba_sv 06Sep2000                
 POTCAR:   PAW_PBE Si 05Jan2001                   

 ----------------------------------------------------------------------------- 
|                                                                             |
|           W    W    AA    RRRRR   N    N  II  N    N   GGGG   !!!           |
|           W    W   A  A   R    R  NN   N  II  NN   N  G    G  !!!           |
|           W    W  A    A  R    R  N N  N  II  N N  N  G       !!!           |
|           W WW W  AAAAAA  RRRRR   N  N N  II  N  N N  G  GGG   !            |
|           WW  WW  A    A  R   R   N   NN  II  N   NN  G    G                |
|           W    W  A    A  R    R  N    N  II  N    N   GGGG   !!!           |
|                                                                             |
|      You have enabled k-point parallelism (KPAR>1).                         |
|      This developmental code was originally  written by Paul Kent at ORNL,  |
|      and carefully double checked in Vienna.                                |
|      GW as well as linear response parallelism added by Martijn Marsman     |
|      and Georg Kresse.                                                      |
|      Carefully verify results versus KPAR=1.                                |
|      Report problems to Paul Kent and Vienna.                               |
|                                                                             |
 ----------------------------------------------------------------------------- 


 ----------------------------------------------------------------------------- 
|                                                                             |
|  ADVICE TO THIS USER RUNNING 'VASP/VAMP'   (HEAR YOUR MASTER'S VOICE ...):  |
|                                                                             |
|      You have switched on vdW-DFT.                                          |
|      This routine was written and supplied by Jiri Klimes.                  |
|      We recommed that you carefully read and cite the following             |
|      publication                                                            |
|      J. Klimes, D.R. Bowler, A. Michelides                                  |
|        J. Phys.: Cond Matt. 22 022201 (2010)                                |
|      J. Klimes, D.R. Bowler, A. Michelides                                  |
|        Phys. Rev. B. 83, 195131 (2011)                                      |
|      and references therein.                                                |
|                                                                             |
 ----------------------------------------------------------------------------- 

 POTCAR:   PAW_PBE Ba_sv 06Sep2000                
   VRHFIN =Ba: 5s5p6s                                                           
   LEXCH  = PE                                                                  
   EATOM  =   700.2255 eV,   51.4651 Ry                                         
                                                                                
   TITEL  = PAW_PBE Ba_sv 06Sep2000                                             
   LULTRA =        F    use ultrasoft PP ?                                      
   IUNSCR =        1    unscreen: 0-lin 1-nonlin 2-no                           
   RPACOR =    2.400    partial core radius                                     
   POMASS =  137.327; ZVAL   =   10.000    mass and valenz                      
   RCORE  =    2.800    outmost cutoff radius                                   
   RWIGS  =    3.740; RWIGS  =    1.979    wigner-seitz radius (au A)           
   ENMAX  =  187.210; ENMIN  =  140.408 eV                                      
   RCLOC  =    2.516    cutoff for local pot                                    
   LCOR   =        T    correct aug charges                                     
   LPAW   =        T    paw PP                                                  
   EAUG   =  351.165                                                            
   DEXC   =     .000                                                            
   RMAX   =    3.370    core radius for proj-oper                               
   RAUG   =    1.300    factor for augmentation sphere                          
   RDEP   =    2.976    radius for radial grids                                 
   QCUT   =   -3.709; QGAM   =    7.419    optimization parameters              
                                                                                
   Description                                                                  
     l     E      TYP  RCUT    TYP  RCUT                                        
     0   .000     23  2.800                                                     
     0   .000     23  2.800                                                     
     1   .000     23  2.700                                                     
     1  2.000     23  2.700                                                     
     2   .000     23  2.700                                                     
     2   .000     23  2.700                                                     
  local pseudopotential read in
  partial core-charges read in
  atomic valenz-charges read in
  non local Contribution for L=           0  read in
    real space projection operators read in
  non local Contribution for L=           0  read in
    real space projection operators read in
  non local Contribution for L=           1  read in
    real space projection operators read in
  non local Contribution for L=           1  read in
    real space projection operators read in
  non local Contribution for L=           2  read in
    real space projection operators read in
  non local Contribution for L=           2  read in
    real space projection operators read in
    PAW grid and wavefunctions read in
 
   number of l-projection  operators is LMAX  =           6
   number of lm-projection operators is LMMAX =          18
 
 POTCAR:   PAW_PBE Si 05Jan2001                   
   VRHFIN =Si: s2p2                                                             
   LEXCH  = PE                                                                  
   EATOM  =   103.0669 eV,    7.5752 Ry                                         
                                                                                
   TITEL  = PAW_PBE Si 05Jan2001                                                
   LULTRA =        F    use ultrasoft PP ?                                      
   IUNSCR =        1    unscreen: 0-lin 1-nonlin 2-no                           
   RPACOR =    1.500    partial core radius                                     
   POMASS =   28.085; ZVAL   =    4.000    mass and valenz                      
   RCORE  =    1.900    outmost cutoff radius                                   
   RWIGS  =    2.480; RWIGS  =    1.312    wigner-seitz radius (au A)           
   ENMAX  =  245.345; ENMIN  =  184.009 eV                                      
   ICORE  =        2    local potential                                         
   LCOR   =        T    correct aug charges                                     
   LPAW   =        T    paw PP                                                  
   EAUG   =  322.069                                                            
   DEXC   =    -.007                                                            
   RMAX   =    2.944    core radius for proj-oper                               
   RAUG   =    1.300    factor for augmentation sphere                          
   RDEP   =    1.993    radius for radial grids                                 
   QCUT   =   -4.246; QGAM   =    8.493    optimization parameters              
                                                                                
   Description                                                                  
     l     E      TYP  RCUT    TYP  RCUT                                        
     0   .000     23  1.900                                                     
     0   .000     23  1.900                                                     
     1   .000     23  1.900                                                     
     1   .000     23  1.900                                                     
     2   .000      7  1.900                                                     
  local pseudopotential read in
  partial core-charges read in
  atomic valenz-charges read in
  non local Contribution for L=           0  read in
    real space projection operators read in
  non local Contribution for L=           0  read in
    real space projection operators read in
  non local Contribution for L=           1  read in
    real space projection operators read in
  non local Contribution for L=           1  read in
    real space projection operators read in
    PAW grid and wavefunctions read in
 
   number of l-projection  operators is LMAX  =           4
   number of lm-projection operators is LMMAX =           8
 
 Optimization of the real space projectors (new method)

 maximal supplied QI-value         = 13.42
 optimisation between [QCUT,QGAM] = [ 11.40, 22.81] = [ 36.42,145.68] Ry 
 Optimized for a Real-space Cutoff    1.56 Angstroem

   l    n(q)    QCUT    max X(q) W(low)/X(q) W(high)/X(q)  e(spline) 
   0     11    11.404     7.198    0.14E-04    0.26E-04    0.99E-07
   0     11    11.404    15.603    0.29E-04    0.72E-04    0.44E-06
   1     10    11.404     3.746    0.20E-04    0.24E-04    0.43E-07
   1     10    11.404     4.362    0.22E-03    0.97E-04    0.22E-06
   2     10    11.404     5.782    0.83E-04    0.62E-05    0.27E-06
   2     10    11.404    65.505    0.42E-03    0.31E-04    0.12E-05
 Optimization of the real space projectors (new method)

 maximal supplied QI-value         = 19.84
 optimisation between [QCUT,QGAM] = [ 11.31, 22.82] = [ 35.82,145.81] Ry 
 Optimized for a Real-space Cutoff    1.16 Angstroem

   l    n(q)    QCUT    max X(q) W(low)/X(q) W(high)/X(q)  e(spline) 
   0      8    11.310     8.708    0.14E-04    0.11E-04    0.43E-08
   0      8    11.310   106.241    0.27E-03    0.30E-03    0.38E-07
   1      7    11.310     5.901    0.82E-05    0.48E-04    0.19E-07
   1      7    11.310    73.241    0.27E-03    0.27E-03    0.74E-07

 ----------------------------------------------------------------------------- 
|                                                                             |
|  ADVICE TO THIS USER RUNNING 'VASP/VAMP'   (HEAR YOUR MASTER'S VOICE ...):  |
|                                                                             |
|      You enforced a specific xc-type in the INCAR file,                     |
|      a different type was found on the POTCAR file                          |
|          I HOPE YOU KNOW, WHAT YOU ARE  DOING                               |
|                                                                             |
 ----------------------------------------------------------------------------- 

 PAW_PBE Ba_sv 06Sep2000                :
 energy of atom  1       EATOM= -700.2255
 kinetic energy error for atom=    0.0005 (will be added to EATOM!!)
 PAW_PBE Si 05Jan2001                   :
 energy of atom  2       EATOM= -103.0669
 kinetic energy error for atom=    0.0006 (will be added to EATOM!!)
 
 
 POSCAR: ba8 si16                                
  positions in direct lattice
  velocities in cartesian coordinates
 exchange correlation table for  LEXCH =       43
   RHO(1)=    0.500       N(1)  =     2000
   RHO(2)=  100.500       N(2)  =     4000
 


--------------------------------------------------------------------------------------------------------


 ion  position               nearest neighbor table
   1  0.011  0.250  0.699-  31 3.26  18 3.34  14 3.34  25 3.46  25 3.46   7 4.41   7 4.41   8 4.44
                             3 4.52
   2  0.149  0.750  0.192-  27 3.38  15 3.40  17 3.40  13 3.42  16 3.42  35 3.49  32 3.57  26 3.58
                            26 3.58   7 3.92   8 4.19   8 4.19
   3  0.163  0.250  0.809-  26 3.26  18 3.39  14 3.39  22 3.43  20 3.43  33 3.48  31 3.52  27 3.56
                            27 3.56   9 4.32   9 4.32  11 4.32   7 4.43   7 4.43   1 4.52
   4  0.325  0.250  0.692-  29 3.38  22 3.40  20 3.40  24 3.42  21 3.42  33 3.49  34 3.57  28 3.58
                            28 3.58  12 3.92  10 4.19  10 4.19
   5  0.311  0.750  0.309-  28 3.26  19 3.39  23 3.39  15 3.43  17 3.43  35 3.48  36 3.52  29 3.56
                            29 3.56  11 4.32  11 4.32   9 4.32  12 4.43  12 4.43   6 4.52
   6  0.463  0.750  0.199-  36 3.26  19 3.34  23 3.34  30 3.46  30 3.46  12 4.41  12 4.41  10 4.44
                             5 4.52
   7  0.068  0.750  0.912-  31 3.38  31 3.38  27 3.39  14 3.41  18 3.41  13 3.42  16 3.42  25 3.58
                             2 3.92   1 4.41   1 4.41   3 4.43   3 4.43
   8  0.109  0.250  0.396-  17 3.34  15 3.34  16 3.42  13 3.42  32 3.47  32 3.47  18 3.51  14 3.51
                            33 3.52  26 3.59   2 4.19   2 4.19   1 4.44
   9  0.210  0.750  0.594-  33 3.38  33 3.38  20 3.44  22 3.44  14 3.44  18 3.44  15 3.46  17 3.46
                            27 3.63  28 3.89  32 3.94   3 4.32   3 4.32   5 4.32
  10  0.365  0.750  0.896-  20 3.34  22 3.34  21 3.42  24 3.42  34 3.47  34 3.47  19 3.51  23 3.51
                            35 3.52  28 3.59   4 4.19   4 4.19   6 4.44
  11  0.264  0.250  0.094-  35 3.38  35 3.38  17 3.44  15 3.44  23 3.44  19 3.44  22 3.46  20 3.46
                            29 3.63  26 3.89  34 3.94   5 4.32   5 4.32   3 4.32
  12  0.406  0.250  0.412-  36 3.38  36 3.38  29 3.39  23 3.41  19 3.41  24 3.42  21 3.42  30 3.58
                             4 3.92   6 4.41   6 4.41   5 4.43   5 4.43
  13  0.056  0.069  0.148-  16 2.39  31 2.41  26 2.48   8 3.42   7 3.42   2 3.42
  14  0.098  0.931  0.641-  18 2.39  32 2.43  25 2.44   1 3.34   3 3.39   7 3.41   9 3.44   8 3.51

  15  0.217  0.067  0.352-  29 2.41  17 2.42  33 2.42   8 3.34   2 3.40   5 3.43  11 3.44   9 3.46

  16  0.056  0.431  0.148-  13 2.39  31 2.41  26 2.48   8 3.42   7 3.42   2 3.42
  17  0.217  0.433  0.352-  29 2.41  15 2.42  33 2.42   8 3.34   2 3.40   5 3.43  11 3.44   9 3.46

  18  0.098  0.569  0.641-  14 2.39  32 2.43  25 2.44   1 3.34   3 3.39   7 3.41   9 3.44   8 3.51

  19  0.376  0.069  0.141-  23 2.39  34 2.43  30 2.44   6 3.34   5 3.39  12 3.41  11 3.44  10 3.51

  20  0.257  0.933  0.852-  27 2.41  22 2.42  35 2.42  10 3.34   4 3.40   3 3.43   9 3.44  11 3.46

  21  0.418  0.931  0.648-  24 2.39  36 2.41  28 2.48  10 3.42  12 3.42   4 3.42
  22  0.257  0.567  0.852-  27 2.41  20 2.42  35 2.42  10 3.34   4 3.40   3 3.43   9 3.44  11 3.46

  23  0.376  0.431  0.141-  19 2.39  34 2.43  30 2.44   6 3.34   5 3.39  12 3.41  11 3.44  10 3.51

  24  0.418  0.569  0.648-  21 2.39  36 2.41  28 2.48  10 3.42  12 3.42   4 3.42
  25  0.024  0.750  0.616-  32 2.43  14 2.44  18 2.44   1 3.46   1 3.46   7 3.58
  26  0.127  0.250  0.082-  31 2.45  16 2.48  13 2.48   3 3.26   2 3.58   2 3.58   8 3.59  11 3.89

  27  0.187  0.750  0.909-  20 2.41  22 2.41  35 2.41   2 3.38   7 3.39   3 3.56   3 3.56   9 3.63

  28  0.346  0.750  0.582-  36 2.45  21 2.48  24 2.48   5 3.26   4 3.58   4 3.58  10 3.59   9 3.89

  29  0.287  0.250  0.409-  17 2.41  15 2.41  33 2.41   4 3.38  12 3.39   5 3.56   5 3.56  11 3.63

  30  0.450  0.250  0.116-  34 2.43  23 2.44  19 2.44   6 3.46   6 3.46  12 3.58
  31  0.056  0.250  0.963-  16 2.41  13 2.41  26 2.45   1 3.26   7 3.38   7 3.38   3 3.52
  32  0.083  0.750  0.459-  14 2.43  18 2.43  25 2.43   8 3.47   8 3.47   2 3.57   9 3.94
  33  0.219  0.250  0.537-  29 2.41  17 2.42  15 2.42   9 3.38   9 3.38   3 3.48   4 3.49   8 3.52

  34  0.391  0.250  0.959-  23 2.43  19 2.43  30 2.43  10 3.47  10 3.47   4 3.57  11 3.94
  35  0.255  0.750  0.037-  27 2.41  20 2.42  22 2.42  11 3.38  11 3.38   5 3.48   2 3.49  10 3.52

  36  0.418  0.750  0.463-  21 2.41  24 2.41  28 2.45   6 3.26  12 3.38  12 3.38   5 3.52
 
  LATTYP: Found a simple orthorhombic cell.
 ALAT       =     6.6162644169
 B/A-ratio  =     1.7145772964
 C/A-ratio  =     4.3072897642
  
  Lattice vectors:
  
 A1 = (   0.0000000000,   6.6162644169,   0.0000000000)
 A2 = (   0.0000000000,   0.0000000000, -11.3440967564)
 A3 = ( -28.4981679999,   0.0000000000,   0.0000000000)


Analysis of symmetry for initial positions (statically):
=====================================================================
 Subroutine PRICEL returns:
 Original cell was already a primitive cell.
 

 Routine SETGRP: Setting up the symmetry group for a 
 simple orthorhombic supercell.


 Subroutine GETGRP returns: Found  4 space group operations
 (whereof  1 operations were pure point group operations)
 out of a pool of  8 trial point group operations.


The static configuration has the point symmetry C_1 .
 The point group associated with its full space group is C_2v.


Analysis of symmetry for dynamics (positions and initial velocities):
=====================================================================
 Subroutine PRICEL returns:
 Original cell was already a primitive cell.
 

 Routine SETGRP: Setting up the symmetry group for a 
 simple orthorhombic supercell.


 Subroutine GETGRP returns: Found  4 space group operations
 (whereof  1 operations were pure point group operations)
 out of a pool of  8 trial point group operations.


The dynamic configuration has the point symmetry C_1 .
 The point group associated with its full space group is C_2v.


 Subroutine INISYM returns: Found  4 space group operations
 (whereof  1 operations are pure point group operations),
 and found     1 'primitive' translations

 
 
 KPOINTS: k-density: 8.0                          

Automatic generation of k-mesh.
Space group operators:
 irot       det(A)        alpha          n_x          n_y          n_z        tau_x        tau_y        tau_z
    1     1.000000     0.000000     1.000000     0.000000     0.000000     0.000000     0.000000     0.000000
    2    -1.000000   180.000000     1.000000     0.000000     0.000000    -0.526054     0.500000    -0.500000
    3     1.000000   180.000000     0.000000     0.000000     1.000000    -0.526054     0.000000    -0.500000
    4    -1.000000   180.000000     0.000000     1.000000     0.000000     0.000000     0.500000     0.000000
 
 Subroutine IBZKPT returns following result:
 ===========================================
 
 Found     15 irreducible k-points:
 
 Following reciprocal coordinates:
            Coordinates               Weight
  0.000000  0.000000  0.000000      1.000000
  0.000000  0.125000  0.000000      2.000000
  0.000000  0.250000  0.000000      2.000000
  0.000000  0.375000  0.000000      2.000000
  0.000000  0.500000  0.000000      1.000000
  0.000000  0.000000  0.200000      2.000000
  0.000000  0.125000  0.200000      4.000000
  0.000000  0.250000  0.200000      4.000000
  0.000000  0.375000  0.200000      4.000000
  0.000000  0.500000  0.200000      2.000000
  0.000000  0.000000  0.400000      2.000000
  0.000000  0.125000  0.400000      4.000000
  0.000000  0.250000  0.400000      4.000000
  0.000000  0.375000  0.400000      4.000000
  0.000000  0.500000  0.400000      2.000000
 
 Following cartesian coordinates:
            Coordinates               Weight
  0.000000  0.000000  0.000000      1.000000
  0.000000  0.018893  0.000000      2.000000
  0.000000  0.037786  0.000000      2.000000
  0.000000  0.056679  0.000000      2.000000
  0.000000  0.075571  0.000000      1.000000
  0.000000  0.000000  0.017630      2.000000
  0.000000  0.018893  0.017630      4.000000
  0.000000  0.037786  0.017630      4.000000
  0.000000  0.056679  0.017630      4.000000
  0.000000  0.075571  0.017630      2.000000
  0.000000  0.000000  0.035261      2.000000
  0.000000  0.018893  0.035261      4.000000
  0.000000  0.037786  0.035261      4.000000
  0.000000  0.056679  0.035261      4.000000
  0.000000  0.075571  0.035261      2.000000
 
 TETIRR: Found    108 inequivalent tetrahedra from      240


--------------------------------------------------------------------------------------------------------




 Dimension of arrays:
   k-points           NKPTS =     15   k-points in BZ     NKDIM =     15   number of bands    NBANDS=    136
   number of dos      NEDOS =   2801   number of ions     NIONS =     36
   non local maximal  LDIM  =      6   non local SUM 2l+1 LMDIM =     18
   total plane-waves  NPLWV = 368640
   max r-space proj   IRMAX =   2812   max aug-charges    IRDMAX=  10987
   dimension x,y,z NGX =   160 NGY =   36 NGZ =   64
   dimension x,y,z NGXF=   320 NGYF=   72 NGZF=  128
   support grid    NGXF=   320 NGYF=   72 NGZF=  128
   ions per type =              12  24
   NGX,Y,Z   is equivalent  to a cutoff of   9.33,  9.05,  9.38 a.u.
   NGXF,Y,Z  is equivalent  to a cutoff of  18.67, 18.09, 18.76 a.u.

 SYSTEM =  unknown system                          
 POSCAR =  ba8 si16                                

 Startparameter for this run:
   NWRITE =      2    write-flag & timer
   PREC   = normal    normal or accurate (medium, high low for compatibility)
   ISTART =      0    job   : 0-new  1-cont  2-samecut
   ICHARG =     11    charge: 1-file 2-atom 10-const
   ISPIN  =      1    spin polarized calculation?
   LNONCOLLINEAR =      F non collinear calculations
   LSORBIT =      F    spin-orbit coupling
   INIWAV =      1    electr: 0-lowe 1-rand  2-diag
   LASPH  =      T    aspherical Exc in radial PAW
   METAGGA=      F    non-selfconsistent MetaGGA calc.

 Electronic Relaxation 1
   ENCUT  =  500.0 eV  36.75 Ry    6.06 a.u.  51.96 12.06 20.68*2*pi/ulx,y,z
   ENINI  =  500.0     initial cutoff
   ENAUG  =  351.2 eV  augmentation charge cutoff
   NELM   =    100;   NELMIN=  2; NELMDL= -5     # of ELM steps 
   EDIFF  = 0.1E-05   stopping-criterion for ELM
   LREAL  =      T    real-space projection
   NLSPLINE    = F    spline interpolate recip. space projectors
   LCOMPAT=      F    compatible to vasp.4.4
   GGA_COMPAT  = T    GGA compatible to vasp.4.4-vasp.4.6
   LMAXPAW     = -100 max onsite density
   LMAXMIX     =    2 max onsite mixed and CHGCAR
   VOSKOWN=      0    Vosko Wilk Nusair interpolation
   ROPT   =   -0.00050  -0.00050
 Ionic relaxation
   EDIFFG = -.1E-01   stopping-criterion for IOM
   NSW    =      0    number of steps for IOM
   NBLOCK =      1;   KBLOCK =      1    inner block; outer block 
   IBRION =     -1    ionic relax: 0-MD 1-quasi-New 2-CG
   NFREE  =      0    steps in history (QN), initial steepest desc. (CG)
   ISIF   =      2    stress and relaxation
   IWAVPR =     10    prediction:  0-non 1-charg 2-wave 3-comb
   ISYM   =      2    0-nonsym 1-usesym 2-fastsym
   LCORR  =      T    Harris-Foulkes like correction to forces

   POTIM  = 0.3000    time-step for ionic-motion
   TEIN   =    0.0    initial temperature
   TEBEG  =    0.0;   TEEND  =   0.0 temperature during run
   SMASS  =  -3.00    Nose mass-parameter (am)
   estimated Nose-frequenzy (Omega)   =  0.10E-29 period in steps =****** mass=  -0.186E-25a.u.
   SCALEE = 1.0000    scale energy and forces
   NPACO  =    256;   APACO  = 16.0  distance and # of slots for P.C.
   PSTRESS=    0.0 pullay stress

  Mass of Ions in am
   POMASS = 137.33 28.09
  Ionic Valenz
   ZVAL   =  10.00  4.00
  Atomic Wigner-Seitz radii
   RWIGS  =  -1.00 -1.00
  virtual crystal weights 
   VCA    =   1.00  1.00
   NELECT =     216.0000    total number of electrons
   NUPDOWN=      -1.0000    fix difference up-down

 DOS related values:
   EMIN   = -10.00;   EMAX   = 18.00  energy-range for DOS
   EFERMI =   0.00
   ISMEAR =    -5;   SIGMA  =   0.01  broadening in eV -4-tet -1-fermi 0-gaus

 Electronic relaxation 2 (details)
   IALGO  =     38    algorithm
   LDIAG  =      T    sub-space diagonalisation (order eigenvalues)
   LSUBROT=      F    optimize rotation matrix (better conditioning)
   TURBO    =      0    0=normal 1=particle mesh
   IRESTART =      0    0=no restart 2=restart with 2 vectors
   NREBOOT  =      0    no. of reboots
   NMIN     =      0    reboot dimension
   EREF     =   0.00    reference energy to select bands
   IMIX   =      4    mixing-type and parameters
     AMIX     =   0.40;   BMIX     =  1.00
     AMIX_MAG =   1.60;   BMIX_MAG =  1.00
     AMIN     =   0.10
     WC   =   100.;   INIMIX=   1;  MIXPRE=   1;  MAXMIX= -45

 Intra band minimization:
   WEIMIN = 0.0000     energy-eigenvalue tresh-hold
   EBREAK =  0.18E-08  absolut break condition
   DEPER  =   0.30     relativ break condition  

   TIME   =   0.40     timestep for ELM

  volume/ion in A,a.u.               =      59.42       400.95
  Fermi-wavevector in a.u.,A,eV,Ry     =   0.762359  1.440650  7.907586  0.581191
  Thomas-Fermi vector in A             =   1.861803
 
 Write flags
   LWAVE        =      T    write WAVECAR
   LDOWNSAMPLE  =      F    k-point downsampling of WAVECAR
   LCHARG       =      T    write CHGCAR
   LVTOT        =      F    write LOCPOT, total local potential
   LVHAR        =      F    write LOCPOT, Hartree potential only
   LELF         =      F    write electronic localiz. function (ELF)
   LORBIT       =     11    0 simple, 1 ext, 2 COOP (PROOUT), +10 PAW based schemes


 Dipole corrections
   LMONO  =      F    monopole corrections only (constant potential shift)
   LDIPOL =      F    correct potential (dipole corrections)
   IDIPOL =      0    1-x, 2-y, 3-z, 4-all directions 
   EPSILON=  1.0000000 bulk dielectric constant

 Exchange correlation treatment:
   GGA     =    MK    GGA type
   LEXCH   =    43    internal setting for exchange type
   VOSKOWN=      0    Vosko Wilk Nusair interpolation
   LHFCALC =     F    Hartree Fock is set to
   LHFONE  =     F    Hartree Fock one center treatment
   AEXX    =    0.0000 exact exchange contribution

 vdW DFT:
   LUSE_VDW   =     T    switch on vdW DFT
   Zab_VDW    =******    correlation parameter
   PARAM1     =0.1234
   PARAM2     =0.7114
   PARAM3     =0.0000
   -- rVV10 --
   BPARAM     = 6.3000
   CPARAM     = 0.0093

 Linear response parameters
   LEPSILON=     F    determine dielectric tensor
   LRPA    =     F    only Hartree local field effects (RPA)
   LNABLA  =     F    use nabla operator in PAW spheres
   LVEL    =     F    velocity operator in full k-point grid
   LINTERFAST=   F  fast interpolation
   KINTER  =     0    interpolate to denser k-point grid
   CSHIFT  =0.1000    complex shift for real part using Kramers Kronig
   OMEGAMAX=  -1.0    maximum frequency
   DEG_THRESHOLD= 0.2000000E-02 threshold for treating states as degnerate
   RTIME   =   -0.100 relaxation time in fs
  (WPLASMAI=    0.000 imaginary part of plasma frequency in eV, 0.658/RTIME)
   DFIELD  = 0.0000000 0.0000000 0.0000000 field for delta impulse in time
 
 Orbital magnetization related:
   ORBITALMAG=     F  switch on orbital magnetization
   LCHIMAG   =     F  perturbation theory with respect to B field
   DQ        =  0.001000  dq finite difference perturbation B field
   LLRAUG    =     F  two centre corrections for induced B field



--------------------------------------------------------------------------------------------------------


 Static calculation
 charge density and potential remain constant during run
 non-spin polarized calculation
 Variant of blocked Davidson
 Davidson routine will perform the subspace rotation
 perform sub-space diagonalisation
    after iterative eigenvector-optimisation
 no mixing
 using additional bands           28
 real space projection scheme for non local part
 use partial core corrections
 calculate Harris-corrections to forces 
   (improved forces if not selfconsistent)
 use gradient corrections 
 WARNING: stress and forces are not correct
  (second derivative of E(xc) not defined)
 use of overlap-Matrix (Vanderbilt PP)
 Fermi weights with tetrahedron method with Bloechl corrections


--------------------------------------------------------------------------------------------------------


  energy-cutoff  :      500.00
  volume of cell :     2138.95
      direct lattice vectors                 reciprocal lattice vectors
    28.498168000  0.000000000  0.000000000     0.035089975  0.000000000  0.000000000
     0.000000000  6.616264417  0.000000000     0.000000000  0.151142690  0.000000000
     0.000000000  0.000000000 11.344096756     0.000000000  0.000000000  0.088151575

  length of vectors
    28.498168000  6.616264417 11.344096756     0.035089975  0.151142690  0.088151575


 
 k-points in units of 2pi/SCALE and weight: k-density: 8.0                          
   0.00000000  0.00000000  0.00000000       0.025
   0.00000000  0.01889284  0.00000000       0.050
   0.00000000  0.03778567  0.00000000       0.050
   0.00000000  0.05667851  0.00000000       0.050
   0.00000000  0.07557134  0.00000000       0.025
   0.00000000  0.00000000  0.01763032       0.050
   0.00000000  0.01889284  0.01763032       0.100
   0.00000000  0.03778567  0.01763032       0.100
   0.00000000  0.05667851  0.01763032       0.100
   0.00000000  0.07557134  0.01763032       0.050
   0.00000000  0.00000000  0.03526063       0.050
   0.00000000  0.01889284  0.03526063       0.100
   0.00000000  0.03778567  0.03526063       0.100
   0.00000000  0.05667851  0.03526063       0.100
   0.00000000  0.07557134  0.03526063       0.050
 
 k-points in reciprocal lattice and weights: k-density: 8.0                          
   0.00000000  0.00000000  0.00000000       0.025
   0.00000000  0.12500000  0.00000000       0.050
   0.00000000  0.25000000  0.00000000       0.050
   0.00000000  0.37500000  0.00000000       0.050
   0.00000000  0.50000000  0.00000000       0.025
   0.00000000  0.00000000  0.20000000       0.050
   0.00000000  0.12500000  0.20000000       0.100
   0.00000000  0.25000000  0.20000000       0.100
   0.00000000  0.37500000  0.20000000       0.100
   0.00000000  0.50000000  0.20000000       0.050
   0.00000000  0.00000000  0.40000000       0.050
   0.00000000  0.12500000  0.40000000       0.100
   0.00000000  0.25000000  0.40000000       0.100
   0.00000000  0.37500000  0.40000000       0.100
   0.00000000  0.50000000  0.40000000       0.050
 
 position of ions in fractional coordinates (direct lattice) 
   0.01073337  0.25000000  0.69854763
   0.14883996  0.75000002  0.19158653
   0.16319149  0.25000000  0.80928528
   0.32510640  0.25000000  0.69158659
   0.31075486  0.75000002  0.30928524
   0.46321298  0.75000002  0.19854756
   0.06812415  0.75000002  0.91201215
   0.10940214  0.25000000  0.39557986
   0.21002902  0.75000002  0.59426664
   0.36454421  0.75000002  0.89557978
   0.26391733  0.25000000  0.09426666
   0.40582220  0.25000000  0.41201223
   0.05587385  0.06921720  0.14752268
   0.09839559  0.93059491  0.64118670
   0.21727788  0.06728910  0.35242261
   0.05587385  0.43078280  0.14752268
   0.21727788  0.43271089  0.35242261
   0.09839559  0.56940509  0.64118670
   0.37555078  0.06940508  0.14118668
   0.25666847  0.93271089  0.85242261
   0.41807248  0.93078280  0.64752270
   0.25666847  0.56728911  0.85242261
   0.37555078  0.43059491  0.14118668
   0.41807248  0.56921720  0.64752270
   0.02431527  0.75000002  0.61591787
   0.12744717  0.25000000  0.08243347
   0.18711479  0.75000002  0.90913709
   0.34649919  0.75000002  0.58243353
   0.28683156  0.25000000  0.40913705
   0.44963108  0.25000000  0.11591781
   0.05588129  0.25000000  0.96301461
   0.08266022  0.75000002  0.45929822
   0.21915282  0.25000000  0.53704560
   0.39128615  0.25000000  0.95929830
   0.25479353  0.75000002  0.03704561
   0.41806504  0.75000002  0.46301453
 
 position of ions in cartesian coordinates  (Angst):
   0.30588138  1.65406610  7.92439186
   4.24166611  4.96219843  2.17337611
   4.65065848  1.65406610  9.18061052
   9.26493669  1.65406610  7.84542519
   8.85594433  4.96219843  3.50856168
  13.20072146  4.96219843  2.25234279
   1.94141360  4.96219843 10.34595406
   3.11776052  1.65406610  4.48749622
   5.98544233  4.96219843  6.74141829
  10.38884228  4.96219843 10.15954366
   7.52116047  1.65406610  1.06937014
  11.56518921  1.65406610  4.67390662
   1.59230245  0.45795927  1.67351152
   2.80409409  6.15706200  7.27368394
   6.19202153  0.44520246  3.99791620
   1.59230245  2.85017288  1.67351152
   6.19202153  2.86292969  3.99791620
   2.80409409  3.76733463  7.27368394
  10.70250919  0.45920236  1.60163533
   7.31458128  6.17106190  9.66996458
  11.91429988  6.15830509  7.34556013
   7.31458128  3.75333473  9.66996458
  10.70250919  2.84892979  1.60163533
  11.91429988  3.76609154  7.34556013
   0.69294060  4.96219843  6.98703188
   3.63201090  1.65406610  0.93513324
   5.33242880  4.96219843 10.31333915
   9.87459215  4.96219843  6.60718232
   8.17417401  1.65406610  4.64129031
  12.81366203  1.65406610  1.31498281
   1.59251452  1.65406610 10.92453091
   2.35566471  4.96219843  5.21032346
   6.24545394  1.65406610  6.09229722
  11.15093858  1.65406610 10.88237277
   7.26114887  4.96219843  0.42024902
  11.91408769  4.96219843  5.25248160
 


--------------------------------------------------------------------------------------------------------


 k-point  1 :   0.0000 0.0000 0.0000  plane waves:   54259
 k-point  2 :   0.0000 0.1250 0.0000  plane waves:   54240
 k-point  3 :   0.0000 0.2500 0.0000  plane waves:   54312
 k-point  4 :   0.0000 0.3750 0.0000  plane waves:   54346
 k-point  5 :   0.0000 0.5000 0.0000  plane waves:   54364
 k-point  6 :   0.0000 0.0000 0.2000  plane waves:   54239
 k-point  7 :   0.0000 0.1250 0.2000  plane waves:   54272
 k-point  8 :   0.0000 0.2500 0.2000  plane waves:   54321
 k-point  9 :   0.0000 0.3750 0.2000  plane waves:   54343
 k-point 10 :   0.0000 0.5000 0.2000  plane waves:   54314
 k-point 11 :   0.0000 0.0000 0.4000  plane waves:   54266
 k-point 12 :   0.0000 0.1250 0.4000  plane waves:   54287
 k-point 13 :   0.0000 0.2500 0.4000  plane waves:   54304
 k-point 14 :   0.0000 0.3750 0.4000  plane waves:   54304
 k-point 15 :   0.0000 0.5000 0.4000  plane waves:   54346

 maximum and minimum number of plane-waves per node :     13642    13430

 maximum number of plane-waves:     54364
 maximum index in each direction: 
   IXMAX=   51   IYMAX=   12   IZMAX=   20
   IXMIN=  -51   IYMIN=  -12   IZMIN=  -21


 real space projection operators:
  total allocation   :       6187.89 KBytes
  max/ min on nodes  :       1559.73       1538.48


 parallel 3D FFT for wavefunctions:
    minimum data exchange during FFTs selected (reduces bandwidth)
 parallel 3D FFT for charge:
    minimum data exchange during FFTs selected (reduces bandwidth)


 total amount of memory used by VASP MPI-rank0   104729. kBytes
=======================================================================

   base      :      30000. kBytes
   nonlr-proj:       3629. kBytes
   fftplans  :       6004. kBytes
   grid      :       8947. kBytes
   one-center:        139. kBytes
   wavefun   :      56010. kBytes
 
     INWAV:  cpu time    0.0001: real time    0.0003
 initial charge density was supplied:
 number of electron     215.9999967 magnetization 
 keeping initial charge density in first step


--------------------------------------------------------------------------------------------------------


 Maximum index for non-local projection operator          686
 Maximum index for augmentation-charges          565 (set IRDMAX)


--------------------------------------------------------------------------------------------------------


 First call to EWALD:  gamma=   0.138
 Maximum number of real-space cells 2x 5x 3
 Maximum number of reciprocal cells 5x 2x 2

    FEWALD:  cpu time    0.0109: real time    0.0109


--------------------------------------- Iteration      1(   1)  ---------------------------------------


vdW kernel read from vdw_kernel.bindat
  0.0000  0.2424  0.5071  0.7962  1.1119  1.4567  1.8333  2.2446  2.6937  3.1842
  3.7199  4.3049  4.9438  5.6415  6.4036  7.2358  8.1446  9.1372 10.2212 11.4050
 12.6979 14.1099 15.6519 17.3360 19.1751 21.1837 23.3773 25.7729 28.3892 31.2465
 34.3669 37.7748 41.4965 45.5611 50.0000
 
    POTLOK:  cpu time    3.2617: real time    3.3708
    SETDIJ:  cpu time    0.1018: real time    0.1447
     EDDAV:  cpu time    6.0560: real time    6.0761
 BZINTS: Fermi energy:  8.241290;216.000000 electrons
         Band energy:-297.754851;  BLOECHL correction: -0.019131
       DOS:  cpu time    0.0212: real time    0.0215
    --------------------------------------------
      LOOP:  cpu time    9.4407: real time    9.6132

 eigenvalue-minimisations  :  4184
 total energy-change (2. order) : 0.1603738E+04  (-0.7400792E+04)
 number of electron     215.9999967 magnetization 
 augmentation part      215.9999967 magnetization 

 Free energy of the ion-electron system (eV)
  ---------------------------------------------------
  alpha Z        PSCENC =       338.54127539
  Ewald energy   TEWEN  =     28239.97463073
  -Hartree energ DENC   =    -38094.84195003
  -exchange      EXHF   =         0.00000000
  -V(xc)+E(xc)   XCENC  =        72.38992308
  PAW double counting   =      5802.61893944    -5360.91758662
  entropy T*S    EENTRO =         0.00000000
  eigenvalues    EBANDS =      -297.75485140
  atomic energy  EATOM  =     10903.72718121
  Solvation  Ediel_sol  =         0.00000000
  ---------------------------------------------------
  free energy    TOTEN  =      1603.73756180 eV

  energy without entropy =     1603.73756180  energy(sigma->0) =     1603.73756180


--------------------------------------------------------------------------------------------------------




--------------------------------------- Iteration      1(   2)  ---------------------------------------


     EDDAV:  cpu time    7.9186: real time    7.9431
 BZINTS: Fermi energy:  1.240078;216.000000 electrons
         Band energy:***********;  BLOECHL correction:  0.000000
       DOS:  cpu time    0.0094: real time    0.0094
    --------------------------------------------
      LOOP:  cpu time    7.9280: real time    7.9525

 eigenvalue-minimisations  :  5896
 total energy-change (2. order) :-0.1519653E+04  (-0.1472391E+04)
 number of electron     215.9999967 magnetization 
 augmentation part      215.9999967 magnetization 

 Free energy of the ion-electron system (eV)
  ---------------------------------------------------
  alpha Z        PSCENC =       338.54127539
  Ewald energy   TEWEN  =     28239.97463073
  -Hartree energ DENC   =    -38094.84195003
  -exchange      EXHF   =         0.00000000
  -V(xc)+E(xc)   XCENC  =        72.38992308
  PAW double counting   =      5802.61893944    -5360.91758662
  entropy T*S    EENTRO =         0.00000000
  eigenvalues    EBANDS =     -1817.40739241
  atomic energy  EATOM  =     10903.72718121
  Solvation  Ediel_sol  =         0.00000000
  ---------------------------------------------------
  free energy    TOTEN  =        84.08502079 eV

  energy without entropy =       84.08502079  energy(sigma->0) =       84.08502079


--------------------------------------------------------------------------------------------------------




--------------------------------------- Iteration      1(   3)  ---------------------------------------


     EDDAV:  cpu time    7.2880: real time    7.3063
 BZINTS: Fermi energy: -0.197500;216.000000 electrons
         Band energy:***********;  BLOECHL correction:  0.000000
       DOS:  cpu time    0.0071: real time    0.0071
    --------------------------------------------
      LOOP:  cpu time    7.2951: real time    7.3134

 eigenvalue-minimisations  :  5144
 total energy-change (2. order) :-0.2150221E+03  (-0.2134513E+03)
 number of electron     215.9999967 magnetization 
 augmentation part      215.9999967 magnetization 

 Free energy of the ion-electron system (eV)
  ---------------------------------------------------
  alpha Z        PSCENC =       338.54127539
  Ewald energy   TEWEN  =     28239.97463073
  -Hartree energ DENC   =    -38094.84195003
  -exchange      EXHF   =         0.00000000
  -V(xc)+E(xc)   XCENC  =        72.38992308
  PAW double counting   =      5802.61893944    -5360.91758662
  entropy T*S    EENTRO =         0.00000000
  eigenvalues    EBANDS =     -2032.42947130
  atomic energy  EATOM  =     10903.72718121
  Solvation  Ediel_sol  =         0.00000000
  ---------------------------------------------------
  free energy    TOTEN  =      -130.93705810 eV

  energy without entropy =     -130.93705810  energy(sigma->0) =     -130.93705810


--------------------------------------------------------------------------------------------------------




--------------------------------------- Iteration      1(   4)  ---------------------------------------


     EDDAV:  cpu time    8.0052: real time    8.0254
 BZINTS: Fermi energy: -0.277500;216.000000 electrons
         Band energy:***********;  BLOECHL correction:  0.000000
       DOS:  cpu time    0.0072: real time    0.0072
    --------------------------------------------
      LOOP:  cpu time    8.0125: real time    8.0326

 eigenvalue-minimisations  :  5936
 total energy-change (2. order) :-0.8629708E+01  (-0.8599531E+01)
 number of electron     215.9999967 magnetization 
 augmentation part      215.9999967 magnetization 

 Free energy of the ion-electron system (eV)
  ---------------------------------------------------
  alpha Z        PSCENC =       338.54127539
  Ewald energy   TEWEN  =     28239.97463073
  -Hartree energ DENC   =    -38094.84195003
  -exchange      EXHF   =         0.00000000
  -V(xc)+E(xc)   XCENC  =        72.38992308
  PAW double counting   =      5802.61893944    -5360.91758662
  entropy T*S    EENTRO =         0.00000000
  eigenvalues    EBANDS =     -2041.05917894
  atomic energy  EATOM  =     10903.72718121
  Solvation  Ediel_sol  =         0.00000000
  ---------------------------------------------------
  free energy    TOTEN  =      -139.56676574 eV

  energy without entropy =     -139.56676574  energy(sigma->0) =     -139.56676574


--------------------------------------------------------------------------------------------------------




--------------------------------------- Iteration      1(   5)  ---------------------------------------


     EDDAV:  cpu time    8.7256: real time    8.7474
 BZINTS: Fermi energy: -0.277500;216.000000 electrons
         Band energy:***********;  BLOECHL correction:  0.000000
       DOS:  cpu time    0.0070: real time    0.0070
    --------------------------------------------
      LOOP:  cpu time    8.7327: real time    8.7545

 eigenvalue-minimisations  :  6400
 total energy-change (2. order) :-0.3371278E+00  (-0.3369808E+00)
 number of electron     215.9999967 magnetization 
 augmentation part      215.9999967 magnetization 

 Free energy of the ion-electron system (eV)
  ---------------------------------------------------
  alpha Z        PSCENC =       338.54127539
  Ewald energy   TEWEN  =     28239.97463073
  -Hartree energ DENC   =    -38094.84195003
  -exchange      EXHF   =         0.00000000
  -V(xc)+E(xc)   XCENC  =        72.38992308
  PAW double counting   =      5802.61893944    -5360.91758662
  entropy T*S    EENTRO =         0.00000000
  eigenvalues    EBANDS =     -2041.39630675
  atomic energy  EATOM  =     10903.72718121
  Solvation  Ediel_sol  =         0.00000000
  ---------------------------------------------------
  free energy    TOTEN  =      -139.90389355 eV

  energy without entropy =     -139.90389355  energy(sigma->0) =     -139.90389355


--------------------------------------------------------------------------------------------------------




--------------------------------------- Iteration      1(   6)  ---------------------------------------


     EDDAV:  cpu time    7.9107: real time    7.9383
 BZINTS: Fermi energy: -0.277500;216.000000 electrons
         Band energy:***********;  BLOECHL correction:  0.000000
       DOS:  cpu time    0.0073: real time    0.0073
    --------------------------------------------
      LOOP:  cpu time    7.9180: real time    7.9455

 eigenvalue-minimisations  :  5792
 total energy-change (2. order) :-0.9142205E-02  (-0.9140849E-02)
 number of electron     215.9999967 magnetization 
 augmentation part      215.9999967 magnetization 

 Free energy of the ion-electron system (eV)
  ---------------------------------------------------
  alpha Z        PSCENC =       338.54127539
  Ewald energy   TEWEN  =     28239.97463073
  -Hartree energ DENC   =    -38094.84195003
  -exchange      EXHF   =         0.00000000
  -V(xc)+E(xc)   XCENC  =        72.38992308
  PAW double counting   =      5802.61893944    -5360.91758662
  entropy T*S    EENTRO =         0.00000000
  eigenvalues    EBANDS =     -2041.40544895
  atomic energy  EATOM  =     10903.72718121
  Solvation  Ediel_sol  =         0.00000000
  ---------------------------------------------------
  free energy    TOTEN  =      -139.91303575 eV

  energy without entropy =     -139.91303575  energy(sigma->0) =     -139.91303575


--------------------------------------------------------------------------------------------------------




--------------------------------------- Iteration      1(   7)  ---------------------------------------


     EDDAV:  cpu time    8.8164: real time    8.8382
 BZINTS: Fermi energy: -0.277500;216.000000 electrons
         Band energy:***********;  BLOECHL correction:  0.000000
       DOS:  cpu time    0.0072: real time    0.0072
    --------------------------------------------
      LOOP:  cpu time    8.8236: real time    8.8454

 eigenvalue-minimisations  :  6432
 total energy-change (2. order) :-0.3548396E-03  (-0.3548043E-03)
 number of electron     215.9999967 magnetization 
 augmentation part      215.9999967 magnetization 

 Free energy of the ion-electron system (eV)
  ---------------------------------------------------
  alpha Z        PSCENC =       338.54127539
  Ewald energy   TEWEN  =     28239.97463073
  -Hartree energ DENC   =    -38094.84195003
  -exchange      EXHF   =         0.00000000
  -V(xc)+E(xc)   XCENC  =        72.38992308
  PAW double counting   =      5802.61893944    -5360.91758662
  entropy T*S    EENTRO =         0.00000000
  eigenvalues    EBANDS =     -2041.40580379
  atomic energy  EATOM  =     10903.72718121
  Solvation  Ediel_sol  =         0.00000000
  ---------------------------------------------------
  free energy    TOTEN  =      -139.91339059 eV

  energy without entropy =     -139.91339059  energy(sigma->0) =     -139.91339059


--------------------------------------------------------------------------------------------------------




--------------------------------------- Iteration      1(   8)  ---------------------------------------


     EDDAV:  cpu time    7.4651: real time    7.4838
 BZINTS: Fermi energy: -0.277500;216.000000 electrons
         Band energy:***********;  BLOECHL correction:  0.000000
       DOS:  cpu time    0.0080: real time    0.0080
    --------------------------------------------
      LOOP:  cpu time    7.4732: real time    7.4918

 eigenvalue-minimisations  :  5376
 total energy-change (2. order) :-0.1538770E-04  (-0.1538661E-04)
 number of electron     215.9999967 magnetization 
 augmentation part      215.9999967 magnetization 

 Free energy of the ion-electron system (eV)
  ---------------------------------------------------
  alpha Z        PSCENC =       338.54127539
  Ewald energy   TEWEN  =     28239.97463073
  -Hartree energ DENC   =    -38094.84195003
  -exchange      EXHF   =         0.00000000
  -V(xc)+E(xc)   XCENC  =        72.38992308
  PAW double counting   =      5802.61893944    -5360.91758662
  entropy T*S    EENTRO =         0.00000000
  eigenvalues    EBANDS =     -2041.40581918
  atomic energy  EATOM  =     10903.72718121
  Solvation  Ediel_sol  =         0.00000000
  ---------------------------------------------------
  free energy    TOTEN  =      -139.91340598 eV

  energy without entropy =     -139.91340598  energy(sigma->0) =     -139.91340598


--------------------------------------------------------------------------------------------------------




--------------------------------------- Iteration      1(   9)  ---------------------------------------


     EDDAV:  cpu time    6.4427: real time    6.4592
 BZINTS: Fermi energy: -0.277500;216.000000 electrons
         Band energy:***********;  BLOECHL correction:  0.000000
       DOS:  cpu time    0.0109: real time    0.0109
    --------------------------------------------
      LOOP:  cpu time    6.4535: real time    6.4702

 eigenvalue-minimisations  :  4496
 total energy-change (2. order) :-0.6952760E-06  (-0.6955674E-06)
 number of electron     215.9999967 magnetization 
 augmentation part      215.9999967 magnetization 

 Free energy of the ion-electron system (eV)
  ---------------------------------------------------
  alpha Z        PSCENC =       338.54127539
  Ewald energy   TEWEN  =     28239.97463073
  -Hartree energ DENC   =    -38094.84195003
  -exchange      EXHF   =         0.00000000
  -V(xc)+E(xc)   XCENC  =        72.38992308
  PAW double counting   =      5802.61893944    -5360.91758662
  entropy T*S    EENTRO =         0.00000000
  eigenvalues    EBANDS =     -2041.40581988
  atomic energy  EATOM  =     10903.72718121
  Solvation  Ediel_sol  =         0.00000000
  ---------------------------------------------------
  free energy    TOTEN  =      -139.91340668 eV

  energy without entropy =     -139.91340668  energy(sigma->0) =     -139.91340668


--------------------------------------------------------------------------------------------------------




 average (electrostatic) potential at core
  the test charge radii are     1.2192  0.9892
  (the norm of the test charge is              1.0000)
       1 -40.7822       2 -39.5911       3 -39.5394       4 -39.5911       5 -39.5392
       6 -40.7817       7 -39.7585       8 -39.6926       9 -39.7487      10 -39.6923
      11 -39.7485      12 -39.7582      13 -88.4705      14 -88.7408      15 -88.7781
      16 -88.4705      17 -88.7781      18 -88.7408      19 -88.7405      20 -88.7783
      21 -88.4699      22 -88.7783      23 -88.7405      24 -88.4699      25 -88.8378
      26 -88.4403      27 -88.8801      28 -88.4402      29 -88.8800      30 -88.8375
      31 -88.4511      32 -88.8233      33 -88.7622      34 -88.8230      35 -88.7623
      36 -88.4506
 
 
 
 E-fermi :  -0.2775     XC(G=0):  -5.0330     alpha+bet : -5.0911


 k-point     1 :       0.0000    0.0000    0.0000
  band No.  band energies     occupation 
      1     -28.6394      2.00000
      2     -28.6390      2.00000
      3     -27.6558      2.00000
      4     -27.6554      2.00000
      5     -27.6339      2.00000
      6     -27.6321      2.00000
      7     -27.5872      2.00000
      8     -27.5869      2.00000
      9     -27.4886      2.00000
     10     -27.4884      2.00000
     11     -27.4555      2.00000
     12     -27.4540      2.00000
     13     -14.0164      2.00000
     14     -14.0159      2.00000
     15     -13.9430      2.00000
     16     -13.9425      2.00000
     17     -13.8534      2.00000
     18     -13.8529      2.00000
     19     -13.2851      2.00000
     20     -13.2490      2.00000
     21     -13.1615      2.00000
     22     -13.1361      2.00000
     23     -13.1256      2.00000
     24     -13.0701      2.00000
     25     -13.0650      2.00000
     26     -13.0510      2.00000
     27     -13.0274      2.00000
     28     -13.0270      2.00000
     29     -13.0266      2.00000
     30     -13.0007      2.00000
     31     -12.9984      2.00000
     32     -12.9784      2.00000
     33     -12.9765      2.00000
     34     -12.9730      2.00000
     35     -12.9715      2.00000
     36     -12.9284      2.00000
     37     -12.8651      2.00000
     38     -12.8344      2.00000
     39     -12.7967      2.00000
     40     -12.7901      2.00000
     41     -12.7744      2.00000
     42     -12.7730      2.00000
     43     -12.7650      2.00000
     44     -12.7500      2.00000
     45     -12.7437      2.00000
     46     -12.7331      2.00000
     47     -12.7170      2.00000
     48     -12.7134      2.00000
     49     -10.8341      2.00000
     50     -10.6323      2.00000
     51     -10.6285      2.00000
     52     -10.5952      2.00000
     53     -10.2182      2.00000
     54     -10.2118      2.00000
     55      -6.2303      2.00000
     56      -6.0712      2.00000
     57      -6.0188      2.00000
     58      -5.8949      2.00000
     59      -5.8943      2.00000
     60      -5.8585      2.00000
     61      -5.8525      2.00000
     62      -5.8015      2.00000
     63      -5.7135      2.00000
     64      -5.7108      2.00000
     65      -5.7040      2.00000
     66      -5.6833      2.00000
     67      -5.5417      2.00000
     68      -5.5045      2.00000
     69      -5.4629      2.00000
     70      -5.4009      2.00000
     71      -5.1717      2.00000
     72      -5.1706      2.00000
     73      -3.3839      2.00000
     74      -2.8848      2.00000
     75      -2.5946      2.00000
     76      -2.5723      2.00000
     77      -2.3304      2.00000
     78      -2.2252      2.00000
     79      -2.0974      2.00000
     80      -1.9547      2.00000
     81      -1.8161      2.00000
     82      -1.7376      2.00000
     83      -1.7053      2.00000
     84      -1.6909      2.00000
     85      -1.6077      2.00000
     86      -1.5112      2.00000
     87      -1.5026      2.00000
     88      -1.4543      2.00000
     89      -1.4493      2.00000
     90      -1.4346      2.00000
     91      -1.2522      2.00000
     92      -1.1868      2.00000
     93      -1.1745      2.00000
     94      -1.1159      2.00000
     95      -1.0984      2.00000
     96      -1.0319      2.00000
     97      -1.0255      2.00000
     98      -0.8456      2.00000
     99      -0.7386      2.00000
    100      -0.7308      2.00000
    101      -0.7254      2.00000
    102      -0.6922      2.00000
    103      -0.6435      2.00000
    104      -0.6378      2.00000
    105      -0.4459      2.00000
    106      -0.4225      2.00000
    107      -0.3397      2.00000
    108      -0.2985      2.00000
    109       1.0000      0.00000
    110       1.0480      0.00000
    111       1.1333      0.00000
    112       1.1436      0.00000
    113       1.1660      0.00000
    114       1.2908      0.00000
    115       1.3459      0.00000
    116       1.3721      0.00000
    117       1.3988      0.00000
    118       1.5251      0.00000
    119       1.5905      0.00000
    120       1.6414      0.00000
    121       1.7863      0.00000
    122       1.8089      0.00000
    123       1.8404      0.00000
    124       1.9091      0.00000
    125       2.0662      0.00000
    126       2.1426      0.00000
    127       2.2300      0.00000
    128       2.2349      0.00000
    129       2.3502      0.00000
    130       2.3873      0.00000
    131       2.5447      0.00000
    132       2.5604      0.00000
    133       2.7366      0.00000
    134       2.7897      0.00000
    135       2.8185      0.00000
    136       2.8886      0.00000

 k-point     2 :       0.0000    0.1250    0.0000
  band No.  band energies     occupation 
      1     -28.6394      2.00000
      2     -28.6389      2.00000
      3     -27.6557      2.00000
      4     -27.6554      2.00000
      5     -27.6337      2.00000
      6     -27.6320      2.00000
      7     -27.5868      2.00000
      8     -27.5865      2.00000
      9     -27.4890      2.00000
     10     -27.4888      2.00000
     11     -27.4556      2.00000
     12     -27.4542      2.00000
     13     -14.0153      2.00000
     14     -14.0148      2.00000
     15     -13.9440      2.00000
     16     -13.9435      2.00000
     17     -13.8585      2.00000
     18     -13.8580      2.00000
     19     -13.2848      2.00000
     20     -13.2473      2.00000
     21     -13.1808      2.00000
     22     -13.1449      2.00000
     23     -13.1084      2.00000
     24     -13.0845      2.00000
     25     -13.0626      2.00000
     26     -13.0588      2.00000
     27     -13.0430      2.00000
     28     -13.0406      2.00000
     29     -13.0254      2.00000
     30     -13.0225      2.00000
     31     -13.0154      2.00000
     32     -12.9920      2.00000
     33     -12.9676      2.00000
     34     -12.9671      2.00000
     35     -12.9389      2.00000
     36     -12.9226      2.00000
     37     -12.8533      2.00000
     38     -12.8322      2.00000
     39     -12.7913      2.00000
     40     -12.7904      2.00000
     41     -12.7779      2.00000
     42     -12.7714      2.00000
     43     -12.7585      2.00000
     44     -12.7506      2.00000
     45     -12.7385      2.00000
     46     -12.7335      2.00000
     47     -12.7165      2.00000
     48     -12.7157      2.00000
     49     -10.8073      2.00000
     50     -10.6287      2.00000
     51     -10.6163      2.00000
     52     -10.5891      2.00000
     53     -10.2081      2.00000
     54     -10.2026      2.00000
     55      -6.1915      2.00000
     56      -6.0568      2.00000
     57      -6.0023      2.00000
     58      -5.9488      2.00000
     59      -5.8484      2.00000
     60      -5.8400      2.00000
     61      -5.8295      2.00000
     62      -5.8224      2.00000
     63      -5.7764      2.00000
     64      -5.7253      2.00000
     65      -5.6941      2.00000
     66      -5.6839      2.00000
     67      -5.5153      2.00000
     68      -5.4858      2.00000
     69      -5.4483      2.00000
     70      -5.4074      2.00000
     71      -5.2222      2.00000
     72      -5.2027      2.00000
     73      -3.2478      2.00000
     74      -2.7821      2.00000
     75      -2.5315      2.00000
     76      -2.4987      2.00000
     77      -2.3218      2.00000
     78      -2.1965      2.00000
     79      -2.0534      2.00000
     80      -1.9548      2.00000
     81      -1.8762      2.00000
     82      -1.7676      2.00000
     83      -1.7341      2.00000
     84      -1.6081      2.00000
     85      -1.5850      2.00000
     86      -1.5687      2.00000
     87      -1.5524      2.00000
     88      -1.5124      2.00000
     89      -1.4261      2.00000
     90      -1.4184      2.00000
     91      -1.2750      2.00000
     92      -1.2459      2.00000
     93      -1.1688      2.00000
     94      -1.1669      2.00000
     95      -1.0562      2.00000
     96      -1.0168      2.00000
     97      -1.0006      2.00000
     98      -0.8657      2.00000
     99      -0.8021      2.00000
    100      -0.7701      2.00000
    101      -0.7524      2.00000
    102      -0.7306      2.00000
    103      -0.6637      2.00000
    104      -0.5995      2.00000
    105      -0.4538      2.00000
    106      -0.4033      2.00000
    107      -0.3646      2.00000
    108      -0.2814      2.00000
    109       0.8957      0.00000
    110       1.0368      0.00000
    111       1.0531      0.00000
    112       1.1482      0.00000
    113       1.1882      0.00000
    114       1.2705      0.00000
    115       1.2897      0.00000
    116       1.4180      0.00000
    117       1.4194      0.00000
    118       1.5429      0.00000
    119       1.5757      0.00000
    120       1.6176      0.00000
    121       1.6831      0.00000
    122       1.7465      0.00000
    123       1.8740      0.00000
    124       1.9740      0.00000
    125       1.9947      0.00000
    126       2.1668      0.00000
    127       2.2022      0.00000
    128       2.2762      0.00000
    129       2.3193      0.00000
    130       2.4304      0.00000
    131       2.5165      0.00000
    132       2.5268      0.00000
    133       2.5991      0.00000
    134       2.6306      0.00000
    135       2.8259      0.00000
    136       2.8947      0.00000

 k-point     3 :       0.0000    0.2500    0.0000
  band No.  band energies     occupation 
      1     -28.6394      2.00000
      2     -28.6389      2.00000
      3     -27.6556      2.00000
      4     -27.6552      2.00000
      5     -27.6331      2.00000
      6     -27.6319      2.00000
      7     -27.5859      2.00000
      8     -27.5856      2.00000
      9     -27.4899      2.00000
     10     -27.4898      2.00000
     11     -27.4558      2.00000
     12     -27.4547      2.00000
     13     -14.0125      2.00000
     14     -14.0121      2.00000
     15     -13.9464      2.00000
     16     -13.9459      2.00000
     17     -13.8708      2.00000
     18     -13.8704      2.00000
     19     -13.2844      2.00000
     20     -13.2434      2.00000
     21     -13.1978      2.00000
     22     -13.1580      2.00000
     23     -13.1401      2.00000
     24     -13.0934      2.00000
     25     -13.0876      2.00000
     26     -13.0802      2.00000
     27     -13.0703      2.00000
     28     -13.0406      2.00000
     29     -13.0328      2.00000
     30     -13.0313      2.00000
     31     -13.0130      2.00000
     32     -13.0097      2.00000
     33     -12.9620      2.00000
     34     -12.9463      2.00000
     35     -12.9263      2.00000
     36     -12.9234      2.00000
     37     -12.8380      2.00000
     38     -12.8353      2.00000
     39     -12.7840      2.00000
     40     -12.7739      2.00000
     41     -12.7704      2.00000
     42     -12.7663      2.00000
     43     -12.7522      2.00000
     44     -12.7444      2.00000
     45     -12.7338      2.00000
     46     -12.7335      2.00000
     47     -12.7187      2.00000
     48     -12.7143      2.00000
     49     -10.7435      2.00000
     50     -10.6221      2.00000
     51     -10.5873      2.00000
     52     -10.5739      2.00000
     53     -10.1828      2.00000
     54     -10.1796      2.00000
     55      -6.1004      2.00000
     56      -6.0660      2.00000
     57      -6.0225      2.00000
     58      -5.9174      2.00000
     59      -5.9105      2.00000
     60      -5.8555      2.00000
     61      -5.8151      2.00000
     62      -5.8034      2.00000
     63      -5.7581      2.00000
     64      -5.7401      2.00000
     65      -5.6829      2.00000
     66      -5.6664      2.00000
     67      -5.4644      2.00000
     68      -5.4510      2.00000
     69      -5.4165      2.00000
     70      -5.4072      2.00000
     71      -5.3251      2.00000
     72      -5.2748      2.00000
     73      -2.9349      2.00000
     74      -2.5329      2.00000
     75      -2.3885      2.00000
     76      -2.3438      2.00000
     77      -2.2728      2.00000
     78      -2.2008      2.00000
     79      -1.9690      2.00000
     80      -1.9469      2.00000
     81      -1.8587      2.00000
     82      -1.7667      2.00000
     83      -1.7621      2.00000
     84      -1.7237      2.00000
     85      -1.6721      2.00000
     86      -1.5935      2.00000
     87      -1.5304      2.00000
     88      -1.4820      2.00000
     89      -1.4495      2.00000
     90      -1.4326      2.00000
     91      -1.3707      2.00000
     92      -1.3210      2.00000
     93      -1.2128      2.00000
     94      -1.1229      2.00000
     95      -1.0906      2.00000
     96      -1.0501      2.00000
     97      -0.9820      2.00000
     98      -0.9732      2.00000
     99      -0.9303      2.00000
    100      -0.8904      2.00000
    101      -0.7552      2.00000
    102      -0.6955      2.00000
    103      -0.6951      2.00000
    104      -0.5521      2.00000
    105      -0.4703      2.00000
    106      -0.4700      2.00000
    107      -0.3357      2.00000
    108      -0.3106      2.00000
    109       0.8238      0.00000
    110       0.8937      0.00000
    111       0.9614      0.00000
    112       1.0678      0.00000
    113       1.1242      0.00000
    114       1.2154      0.00000
    115       1.2744      0.00000
    116       1.4367      0.00000
    117       1.4388      0.00000
    118       1.5622      0.00000
    119       1.5995      0.00000
    120       1.6075      0.00000
    121       1.7034      0.00000
    122       1.7624      0.00000
    123       1.7945      0.00000
    124       1.9697      0.00000
    125       1.9867      0.00000
    126       2.0367      0.00000
    127       2.1201      0.00000
    128       2.2552      0.00000
    129       2.2669      0.00000
    130       2.2839      0.00000
    131       2.3129      0.00000
    132       2.3567      0.00000
    133       2.4876      0.00000
    134       2.6047      0.00000
    135       2.6890      0.00000
    136       2.7312      0.00000

 k-point     4 :       0.0000    0.3750    0.0000
  band No.  band energies     occupation 
      1     -28.6393      2.00000
      2     -28.6388      2.00000
      3     -27.6554      2.00000
      4     -27.6550      2.00000
      5     -27.6325      2.00000
      6     -27.6318      2.00000
      7     -27.5850      2.00000
      8     -27.5847      2.00000
      9     -27.4909      2.00000
     10     -27.4908      2.00000
     11     -27.4559      2.00000
     12     -27.4553      2.00000
     13     -14.0094      2.00000
     14     -14.0090      2.00000
     15     -13.9488      2.00000
     16     -13.9483      2.00000
     17     -13.8832      2.00000
     18     -13.8827      2.00000
     19     -13.2786      2.00000
     20     -13.2423      2.00000
     21     -13.2019      2.00000
     22     -13.1911      2.00000
     23     -13.1575      2.00000
     24     -13.1266      2.00000
     25     -13.1164      2.00000
     26     -13.1078      2.00000
     27     -13.0636      2.00000
     28     -13.0468      2.00000
     29     -13.0325      2.00000
     30     -13.0315      2.00000
     31     -13.0137      2.00000
     32     -13.0099      2.00000
     33     -12.9546      2.00000
     34     -12.9392      2.00000
     35     -12.9327      2.00000
     36     -12.9284      2.00000
     37     -12.8383      2.00000
     38     -12.8330      2.00000
     39     -12.7727      2.00000
     40     -12.7657      2.00000
     41     -12.7563      2.00000
     42     -12.7534      2.00000
     43     -12.7460      2.00000
     44     -12.7384      2.00000
     45     -12.7287      2.00000
     46     -12.7281      2.00000
     47     -12.7197      2.00000
     48     -12.7171      2.00000
     49     -10.6778      2.00000
     50     -10.6208      2.00000
     51     -10.5602      2.00000
     52     -10.5575      2.00000
     53     -10.1563      2.00000
     54     -10.1552      2.00000
     55      -6.1372      2.00000
     56      -6.0532      2.00000
     57      -6.0423      2.00000
     58      -5.9543      2.00000
     59      -5.9319      2.00000
     60      -5.8191      2.00000
     61      -5.7906      2.00000
     62      -5.7659      2.00000
     63      -5.7177      2.00000
     64      -5.6734      2.00000
     65      -5.6680      2.00000
     66      -5.6535      2.00000
     67      -5.4328      2.00000
     68      -5.4313      2.00000
     69      -5.3966      2.00000
     70      -5.3830      2.00000
     71      -5.3818      2.00000
     72      -5.3496      2.00000
     73      -2.6234      2.00000
     74      -2.3370      2.00000
     75      -2.3003      2.00000
     76      -2.2635      2.00000
     77      -2.1458      2.00000
     78      -2.1031      2.00000
     79      -2.0153      2.00000
     80      -1.9318      2.00000
     81      -1.8430      2.00000
     82      -1.8429      2.00000
     83      -1.8232      2.00000
     84      -1.7034      2.00000
     85      -1.6478      2.00000
     86      -1.5939      2.00000
     87      -1.5477      2.00000
     88      -1.5180      2.00000
     89      -1.5103      2.00000
     90      -1.4573      2.00000
     91      -1.3564      2.00000
     92      -1.3484      2.00000
     93      -1.2359      2.00000
     94      -1.2304      2.00000
     95      -1.1799      2.00000
     96      -1.1218      2.00000
     97      -1.0650      2.00000
     98      -1.0336      2.00000
     99      -0.9200      2.00000
    100      -0.8922      2.00000
    101      -0.7579      2.00000
    102      -0.6924      2.00000
    103      -0.6086      2.00000
    104      -0.5452      2.00000
    105      -0.5186      2.00000
    106      -0.5124      2.00000
    107      -0.3863      2.00000
    108      -0.3701      2.00000
    109       0.6948      0.00000
    110       0.8284      0.00000
    111       0.9033      0.00000
    112       0.9954      0.00000
    113       1.0942      0.00000
    114       1.1988      0.00000
    115       1.2876      0.00000
    116       1.3549      0.00000
    117       1.4731      0.00000
    118       1.4806      0.00000
    119       1.5421      0.00000
    120       1.6129      0.00000
    121       1.6947      0.00000
    122       1.7465      0.00000
    123       1.8069      0.00000
    124       1.9377      0.00000
    125       1.9500      0.00000
    126       1.9816      0.00000
    127       2.0573      0.00000
    128       2.0942      0.00000
    129       2.1565      0.00000
    130       2.1961      0.00000
    131       2.2023      0.00000
    132       2.2167      0.00000
    133       2.4535      0.00000
    134       2.5284      0.00000
    135       2.5522      0.00000
    136       2.6587      0.00000

 k-point     5 :       0.0000    0.5000    0.0000
  band No.  band energies     occupation 
      1     -28.6393      2.00000
      2     -28.6388      2.00000
      3     -27.6553      2.00000
      4     -27.6549      2.00000
      5     -27.6321      2.00000
      6     -27.6319      2.00000
      7     -27.5846      2.00000
      8     -27.5843      2.00000
      9     -27.4912      2.00000
     10     -27.4912      2.00000
     11     -27.4559      2.00000
     12     -27.4557      2.00000
     13     -14.0080      2.00000
     14     -14.0076      2.00000
     15     -13.9499      2.00000
     16     -13.9494      2.00000
     17     -13.8883      2.00000
     18     -13.8879      2.00000
     19     -13.2599      2.00000
     20     -13.2597      2.00000
     21     -13.2046      2.00000
     22     -13.2045      2.00000
     23     -13.1425      2.00000
     24     -13.1424      2.00000
     25     -13.1327      2.00000
     26     -13.1327      2.00000
     27     -13.0560      2.00000
     28     -13.0559      2.00000
     29     -13.0255      2.00000
     30     -13.0255      2.00000
     31     -13.0157      2.00000
     32     -13.0157      2.00000
     33     -12.9433      2.00000
     34     -12.9431      2.00000
     35     -12.9358      2.00000
     36     -12.9356      2.00000
     37     -12.8351      2.00000
     38     -12.8350      2.00000
     39     -12.7671      2.00000
     40     -12.7670      2.00000
     41     -12.7460      2.00000
     42     -12.7459      2.00000
     43     -12.7412      2.00000
     44     -12.7412      2.00000
     45     -12.7233      2.00000
     46     -12.7232      2.00000
     47     -12.7217      2.00000
     48     -12.7216      2.00000
     49     -10.6361      2.00000
     50     -10.6359      2.00000
     51     -10.5500      2.00000
     52     -10.5497      2.00000
     53     -10.1450      2.00000
     54     -10.1446      2.00000
     55      -6.1371      2.00000
     56      -6.1369      2.00000
     57      -6.0063      2.00000
     58      -6.0062      2.00000
     59      -5.8414      2.00000
     60      -5.8413      2.00000
     61      -5.7641      2.00000
     62      -5.7639      2.00000
     63      -5.6888      2.00000
     64      -5.6886      2.00000
     65      -5.6325      2.00000
     66      -5.6321      2.00000
     67      -5.4281      2.00000
     68      -5.4277      2.00000
     69      -5.4023      2.00000
     70      -5.4020      2.00000
     71      -5.3629      2.00000
     72      -5.3625      2.00000
     73      -2.4241      2.00000
     74      -2.4241      2.00000
     75      -2.1981      2.00000
     76      -2.1981      2.00000
     77      -2.1191      2.00000
     78      -2.1191      2.00000
     79      -1.9761      2.00000
     80      -1.9760      2.00000
     81      -1.8390      2.00000
     82      -1.8387      2.00000
     83      -1.8007      2.00000
     84      -1.8006      2.00000
     85      -1.5845      2.00000
     86      -1.5843      2.00000
     87      -1.5286      2.00000
     88      -1.5286      2.00000
     89      -1.4847      2.00000
     90      -1.4844      2.00000
     91      -1.3991      2.00000
     92      -1.3989      2.00000
     93      -1.2803      2.00000
     94      -1.2802      2.00000
     95      -1.1363      2.00000
     96      -1.1362      2.00000
     97      -1.0893      2.00000
     98      -1.0892      2.00000
     99      -0.8788      2.00000
    100      -0.8786      2.00000
    101      -0.7177      2.00000
    102      -0.7177      2.00000
    103      -0.5820      2.00000
    104      -0.5818      2.00000
    105      -0.5135      2.00000
    106      -0.5134      2.00000
    107      -0.4044      2.00000
    108      -0.4042      2.00000
    109       0.6589      0.00000
    110       0.6591      0.00000
    111       0.9494      0.00000
    112       0.9495      0.00000
    113       1.1055      0.00000
    114       1.1056      0.00000
    115       1.3748      0.00000
    116       1.3748      0.00000
    117       1.4130      0.00000
    118       1.4132      0.00000
    119       1.6248      0.00000
    120       1.6251      0.00000
    121       1.6956      0.00000
    122       1.6957      0.00000
    123       1.8557      0.00000
    124       1.8557      0.00000
    125       1.9315      0.00000
    126       1.9317      0.00000
    127       2.0631      0.00000
    128       2.0632      0.00000
    129       2.1502      0.00000
    130       2.1505      0.00000
    131       2.1931      0.00000
    132       2.1940      0.00000
    133       2.3697      0.00000
    134       2.3705      0.00000
    135       2.4826      0.00000
    136       2.5029      0.00000

 k-point     6 :       0.0000    0.0000    0.2000
  band No.  band energies     occupation 
      1     -28.6394      2.00000
      2     -28.6390      2.00000
      3     -27.6558      2.00000
      4     -27.6554      2.00000
      5     -27.6338      2.00000
      6     -27.6323      2.00000
      7     -27.5872      2.00000
      8     -27.5869      2.00000
      9     -27.4886      2.00000
     10     -27.4884      2.00000
     11     -27.4553      2.00000
     12     -27.4542      2.00000
     13     -14.0163      2.00000
     14     -14.0158      2.00000
     15     -13.9430      2.00000
     16     -13.9425      2.00000
     17     -13.8533      2.00000
     18     -13.8529      2.00000
     19     -13.2801      2.00000
     20     -13.2499      2.00000
     21     -13.1563      2.00000
     22     -13.1348      2.00000
     23     -13.1196      2.00000
     24     -13.0684      2.00000
     25     -13.0655      2.00000
     26     -13.0592      2.00000
     27     -13.0376      2.00000
     28     -13.0277      2.00000
     29     -13.0259      2.00000
     30     -13.0088      2.00000
     31     -13.0087      2.00000
     32     -12.9882      2.00000
     33     -12.9699      2.00000
     34     -12.9661      2.00000
     35     -12.9563      2.00000
     36     -12.9263      2.00000
     37     -12.8612      2.00000
     38     -12.8319      2.00000
     39     -12.7981      2.00000
     40     -12.7940      2.00000
     41     -12.7754      2.00000
     42     -12.7732      2.00000
     43     -12.7721      2.00000
     44     -12.7523      2.00000
     45     -12.7413      2.00000
     46     -12.7326      2.00000
     47     -12.7166      2.00000
     48     -12.7138      2.00000
     49     -10.8110      2.00000
     50     -10.6492      2.00000
     51     -10.6201      2.00000
     52     -10.5951      2.00000
     53     -10.2231      2.00000
     54     -10.2172      2.00000
     55      -6.2135      2.00000
     56      -6.0679      2.00000
     57      -6.0411      2.00000
     58      -5.9450      2.00000
     59      -5.8845      2.00000
     60      -5.8519      2.00000
     61      -5.8408      2.00000
     62      -5.8083      2.00000
     63      -5.7152      2.00000
     64      -5.7073      2.00000
     65      -5.7030      2.00000
     66      -5.6862      2.00000
     67      -5.5502      2.00000
     68      -5.5207      2.00000
     69      -5.4393      2.00000
     70      -5.3775      2.00000
     71      -5.1746      2.00000
     72      -5.1737      2.00000
     73      -3.2898      2.00000
     74      -2.8338      2.00000
     75      -2.6009      2.00000
     76      -2.5671      2.00000
     77      -2.3272      2.00000
     78      -2.2130      2.00000
     79      -2.1039      2.00000
     80      -1.9626      2.00000
     81      -1.8709      2.00000
     82      -1.7059      2.00000
     83      -1.6956      2.00000
     84      -1.6800      2.00000
     85      -1.6147      2.00000
     86      -1.5800      2.00000
     87      -1.5063      2.00000
     88      -1.4563      2.00000
     89      -1.4532      2.00000
     90      -1.4331      2.00000
     91      -1.2998      2.00000
     92      -1.2984      2.00000
     93      -1.2019      2.00000
     94      -1.1057      2.00000
     95      -1.1054      2.00000
     96      -1.0375      2.00000
     97      -1.0342      2.00000
     98      -0.9189      2.00000
     99      -0.7329      2.00000
    100      -0.7257      2.00000
    101      -0.6991      2.00000
    102      -0.6976      2.00000
    103      -0.6526      2.00000
    104      -0.6268      2.00000
    105      -0.4195      2.00000
    106      -0.4171      2.00000
    107      -0.3542      2.00000
    108      -0.3165      2.00000
    109       1.0407      0.00000
    110       1.0888      0.00000
    111       1.1339      0.00000
    112       1.1570      0.00000
    113       1.2053      0.00000
    114       1.2983      0.00000
    115       1.3881      0.00000
    116       1.3988      0.00000
    117       1.4663      0.00000
    118       1.5700      0.00000
    119       1.5811      0.00000
    120       1.6626      0.00000
    121       1.8018      0.00000
    122       1.8449      0.00000
    123       1.8480      0.00000
    124       1.9204      0.00000
    125       2.0479      0.00000
    126       2.1518      0.00000
    127       2.2169      0.00000
    128       2.2565      0.00000
    129       2.3345      0.00000
    130       2.4379      0.00000
    131       2.4905      0.00000
    132       2.6328      0.00000
    133       2.7226      0.00000
    134       2.7703      0.00000
    135       2.7939      0.00000
    136       2.9544      0.00000

 k-point     7 :       0.0000    0.1250    0.2000
  band No.  band energies     occupation 
      1     -28.6394      2.00000
      2     -28.6389      2.00000
      3     -27.6557      2.00000
      4     -27.6554      2.00000
      5     -27.6336      2.00000
      6     -27.6322      2.00000
      7     -27.5868      2.00000
      8     -27.5865      2.00000
      9     -27.4890      2.00000
     10     -27.4888      2.00000
     11     -27.4555      2.00000
     12     -27.4543      2.00000
     13     -14.0153      2.00000
     14     -14.0148      2.00000
     15     -13.9439      2.00000
     16     -13.9434      2.00000
     17     -13.8585      2.00000
     18     -13.8580      2.00000
     19     -13.2785      2.00000
     20     -13.2471      2.00000
[...]
         0         1         2         3         4         5         6         7         8         9
 total charge-density along one line
 
 pseudopotential strength for first ion, spin component:           1
  4.401  -5.369   0.000  -0.008  -0.019   0.000  -0.005  -0.016
 -5.369  -2.769  -0.000   0.001   0.002   0.000  -0.001  -0.003
  0.000  -0.000  -6.930   0.000  -0.000   1.745   0.000  -0.000
 -0.008   0.001   0.000  -6.925  -0.001   0.000   1.758  -0.003
 -0.019   0.002  -0.000  -0.001  -6.924  -0.000  -0.003   1.759
  0.000   0.000   1.745   0.000  -0.000   7.288   0.000  -0.000
 -0.005  -0.001   0.000   1.758  -0.003   0.000   7.290  -0.000
 -0.016  -0.003  -0.000  -0.003   1.759  -0.000  -0.000   7.290
 -0.000   0.000  -0.010   0.000   0.000  -0.007   0.000   0.000
  0.000  -0.000  -0.003   0.000   0.000  -0.001   0.000   0.000
  0.002  -0.001  -0.000  -0.004   0.006  -0.000  -0.003   0.004
 -0.002   0.001   0.000  -0.010  -0.003   0.000  -0.007  -0.002
  0.004  -0.002  -0.000  -0.000  -0.009  -0.000  -0.000  -0.006
  0.000   0.000   0.000  -0.000  -0.000   0.000  -0.000  -0.000
 -0.000  -0.000   0.000  -0.000  -0.000   0.000  -0.000  -0.000
 -0.000  -0.000   0.000   0.000  -0.000   0.000   0.000  -0.000
  0.000   0.000  -0.000   0.000   0.000  -0.000   0.000   0.000
 -0.000  -0.000   0.000   0.000   0.000   0.000   0.000   0.000
 total augmentation occupancy for first ion, spin component:           1
  2.355  -0.912   0.000   0.000   0.000   0.000   0.000   0.000   0.000   0.000   0.000   0.000   0.000   0.000   0.000   0.000
 -0.912   2.345   0.000   0.000   0.000   0.000   0.000   0.000   0.000   0.000   0.000   0.000   0.000   0.000   0.000   0.000
  0.000   0.000   2.000   0.000   0.000   0.000   0.000   0.000   0.000   0.000   0.000   0.000   0.000   0.000   0.000   0.000
  0.000   0.000   0.000   2.000   0.000   0.000   0.000   0.000   0.000   0.000   0.000   0.000   0.000   0.000   0.000   0.000
  0.000   0.000   0.000   0.000   2.000   0.000   0.000   0.000   0.000   0.000   0.000   0.000   0.000   0.000   0.000   0.000
  0.000   0.000   0.000   0.000   0.000   0.000   0.000   0.000   0.000   0.000   0.000   0.000   0.000   0.000   0.000   0.000
  0.000   0.000   0.000   0.000   0.000   0.000   0.000   0.000   0.000   0.000   0.000   0.000   0.000   0.000   0.000   0.000
  0.000   0.000   0.000   0.000   0.000   0.000   0.000   0.000   0.000   0.000   0.000   0.000   0.000   0.000   0.000   0.000
  0.000   0.000   0.000   0.000   0.000   0.000   0.000   0.000   0.002   0.000   0.000   0.000   0.000   0.000   0.000   0.000
  0.000   0.000   0.000   0.000   0.000   0.000   0.000   0.000   0.000   0.002   0.000   0.000   0.000   0.000   0.000   0.000
  0.000   0.000   0.000   0.000   0.000   0.000   0.000   0.000   0.000   0.000   0.002   0.000   0.000   0.000   0.000   0.000
  0.000   0.000   0.000   0.000   0.000   0.000   0.000   0.000   0.000   0.000   0.000   0.002   0.000   0.000   0.000   0.000
  0.000   0.000   0.000   0.000   0.000   0.000   0.000   0.000   0.000   0.000   0.000   0.000   0.002   0.000   0.000   0.000
  0.000   0.000   0.000   0.000   0.000   0.000   0.000   0.000   0.000   0.000   0.000   0.000   0.000   0.000   0.000   0.000
  0.000   0.000   0.000   0.000   0.000   0.000   0.000   0.000   0.000   0.000   0.000   0.000   0.000   0.000   0.000   0.000
  0.000   0.000   0.000   0.000   0.000   0.000   0.000   0.000   0.000   0.000   0.000   0.000   0.000   0.000   0.000   0.000
  0.000   0.000   0.000   0.000   0.000   0.000   0.000   0.000   0.000   0.000   0.000   0.000   0.000   0.000   0.000   0.000
  0.000   0.000   0.000   0.000   0.000   0.000   0.000   0.000   0.000   0.000   0.000   0.000   0.000   0.000   0.000   0.000


------------------------ aborting loop because EDIFF is reached ----------------------------------------


 


 total charge     
 
# of ion       s       p       d       tot
------------------------------------------
    1        2.019   5.567   0.315   7.901
    2        2.018   5.584   0.323   7.925
    3        2.019   5.587   0.331   7.937
    4        2.018   5.584   0.323   7.925
    5        2.019   5.587   0.331   7.937
    6        2.019   5.567   0.315   7.901
    7        2.016   5.577   0.339   7.932
    8        2.012   5.576   0.344   7.933
    9        2.012   5.579   0.326   7.916
   10        2.012   5.576   0.344   7.933
   11        2.012   5.579   0.326   7.916
   12        2.016   5.577   0.339   7.932
   13        0.830   0.807   0.000   1.637
   14        0.799   0.867   0.000   1.666
   15        0.804   0.864   0.000   1.668
   16        0.829   0.805   0.000   1.634
   17        0.804   0.866   0.000   1.670
   18        0.798   0.869   0.000   1.667
   19        0.798   0.869   0.000   1.668
   20        0.804   0.866   0.000   1.670
   21        0.829   0.805   0.000   1.634
   22        0.804   0.864   0.000   1.668
   23        0.799   0.867   0.000   1.666
   24        0.830   0.807   0.000   1.637
   25        0.815   0.815   0.000   1.630
   26        0.805   0.827   0.000   1.632
   27        0.809   0.837   0.000   1.646
   28        0.805   0.827   0.000   1.632
   29        0.809   0.837   0.000   1.646
   30        0.815   0.815   0.000   1.630
   31        0.788   0.875   0.000   1.663
   32        0.824   0.803   0.000   1.626
   33        0.804   0.858   0.000   1.662
   34        0.824   0.803   0.000   1.626
   35        0.804   0.858   0.000   1.662
   36        0.788   0.875   0.000   1.663
--------------------------------------------------
tot         43.606  87.129   3.957 134.691
 
    CHARGE:  cpu time    0.3402: real time    0.3410
    FORLOC:  cpu time    0.0226: real time    0.0226
    FORNL :  cpu time    1.3262: real time    1.3293
    STRESS:  cpu time    3.9286: real time    3.9380
    FORCOR:  cpu time    3.2255: real time    3.2331
    FORHAR:  cpu time    0.0263: real time    0.0264
    OFIELD:  cpu time    0.0002: real time    0.0002

  FORCE on cell =-STRESS in cart. coord.  units (eV):
  Direction    XX          YY          ZZ          XY          YZ          ZX
  --------------------------------------------------------------------------------------
  Alpha Z   338.54128   338.54128   338.54128
  Ewald  -40697.18148 34696.36341 34240.76545    -0.00003     0.00001    -0.00012
  Hartree-35954.95183 37203.22240 36846.64478     0.00000     0.00000     0.00001
  E(xc)    -697.61338  -699.10439  -699.19285    -0.00000     0.00000    -0.00001
  Local   74433.23898-74134.00000-73314.16811     0.00002    -0.00001     0.00007
  n-local   506.60812   508.87465   511.12583     0.00002    -0.19649     0.00282
  augment  -251.65093  -252.10315  -252.20848    -0.00000     0.00000     0.00034
  Kinetic  2322.88786  2337.99170  2328.48763    -0.00001    -1.36197    -0.00019
  Fock        0.00000     0.00000     0.00000     0.00000     0.00000     0.00000
  -------------------------------------------------------------------------------------
  Total      -0.12139    -0.21410    -0.00448     0.00000     0.00000     0.00000
  in kB      -0.09093    -0.16037    -0.00335     0.00000     0.00000     0.00000
  external pressure =       -0.08 kB  Pullay stress =        0.00 kB


 VOLUME and BASIS-vectors are now :
 -----------------------------------------------------------------------------
  energy-cutoff  :      500.00
  volume of cell :     2138.95
      direct lattice vectors                 reciprocal lattice vectors
    28.498168000  0.000000000  0.000000000     0.035089975  0.000000000  0.000000000
     0.000000000  6.616264417  0.000000000     0.000000000  0.151142690  0.000000000
     0.000000000  0.000000000 11.344096756     0.000000000  0.000000000  0.088151575

  length of vectors
    28.498168000  6.616264417 11.344096756     0.035089975  0.151142690  0.088151575


 FORCES acting on ions
    electron-ion (+dipol)            ewald-force                    non-local-force                 convergence-correction
 -----------------------------------------------------------------------------------------------
   0.115E+04 -.958E-04 0.351E+02   -.114E+04 0.108E-04 -.339E+02   -.387E+01 -.227E-18 -.116E+01   0.317E-02 -.867E-05 -.476E-02
   0.518E+03 -.161E-03 -.252E+02   -.518E+03 -.195E-04 0.248E+02   0.111E-01 0.523E-19 0.357E+00   -.369E-02 0.407E-04 -.612E-03
   0.403E+03 -.746E-04 0.952E+00   -.403E+03 0.149E-04 -.393E+00   0.408E+00 0.269E-18 -.564E+00   0.532E-02 -.125E-04 0.195E-02
   -.518E+03 -.775E-04 -.252E+02   0.518E+03 0.141E-04 0.248E+02   -.111E-01 0.107E-19 0.357E+00   0.753E-02 -.118E-04 0.182E-03
   -.403E+03 -.157E-03 0.952E+00   0.403E+03 -.203E-04 -.393E+00   -.408E+00 0.361E-18 -.564E+00   -.257E-02 0.411E-04 0.145E-02
   -.115E+04 -.129E-03 0.351E+02   0.114E+04 -.139E-04 -.339E+02   0.387E+01 0.117E-18 -.116E+01   0.520E-03 0.378E-04 -.458E-02
   0.960E+03 -.151E-03 -.459E+02   -.960E+03 -.183E-04 0.458E+02   -.870E+00 -.323E-18 0.569E-01   -.144E-02 0.388E-04 0.327E-02
   0.784E+03 -.106E-03 0.116E+02   -.783E+03 0.144E-04 -.119E+02   -.113E+01 0.456E-17 0.320E+00   -.102E-02 -.118E-04 -.110E-02
   0.136E+03 -.152E-03 0.157E+02   -.137E+03 -.179E-04 -.156E+02   0.599E+00 -.323E-18 -.945E-01   -.105E-02 0.392E-04 -.416E-02
   -.784E+03 -.138E-03 0.116E+02   0.783E+03 -.149E-04 -.119E+02   0.113E+01 -.394E-17 0.320E+00   0.486E-02 0.386E-04 -.134E-02
   -.136E+03 -.793E-04 0.157E+02   0.137E+03 0.171E-04 -.156E+02   -.599E+00 -.862E-18 -.945E-01   0.442E-02 -.141E-04 -.335E-02
   -.960E+03 -.789E-04 -.459E+02   0.960E+03 0.165E-04 0.458E+02   0.870E+00 0.118E-17 0.569E-01   0.554E-02 -.134E-04 0.415E-02
   0.446E+03 0.358E+02 -.437E+02   -.445E+03 -.373E+02 0.446E+02   -.382E+00 0.150E+01 -.832E+00   -.805E-03 -.440E-04 0.692E-03
   0.293E+03 -.282E+02 0.689E+01   -.292E+03 0.294E+02 -.614E+01   -.549E+00 -.119E+01 -.747E+00   -.193E-02 -.509E-03 -.214E-02
   0.612E+02 0.326E+02 0.177E+02   -.619E+02 -.339E+02 -.184E+02   0.631E+00 0.132E+01 0.743E+00   -.119E-02 0.129E-03 0.332E-03
   0.446E+03 -.358E+02 -.437E+02   -.445E+03 0.373E+02 0.446E+02   -.382E+00 -.150E+01 -.832E+00   -.808E-03 0.393E-04 0.693E-03
   0.612E+02 -.326E+02 0.177E+02   -.619E+02 0.339E+02 -.184E+02   0.631E+00 -.132E+01 0.743E+00   -.119E-02 -.135E-03 0.332E-03
   0.293E+03 0.282E+02 0.689E+01   -.292E+03 -.294E+02 -.614E+01   -.549E+00 0.119E+01 -.747E+00   -.193E-02 0.513E-03 -.214E-02
   -.293E+03 0.282E+02 0.689E+01   0.292E+03 -.294E+02 -.614E+01   0.549E+00 0.119E+01 -.747E+00   0.140E-02 0.510E-03 -.223E-02
   -.612E+02 -.326E+02 0.177E+02   0.619E+02 0.339E+02 -.184E+02   -.631E+00 -.132E+01 0.743E+00   0.150E-02 0.132E-03 0.463E-03
   -.446E+03 -.358E+02 -.437E+02   0.445E+03 0.373E+02 0.446E+02   0.382E+00 -.150E+01 -.832E+00   0.158E-02 0.654E-04 0.738E-03
   -.612E+02 0.326E+02 0.177E+02   0.619E+02 -.339E+02 -.184E+02   -.631E+00 0.132E+01 0.743E+00   0.150E-02 -.129E-03 0.462E-03
   -.293E+03 -.282E+02 0.689E+01   0.292E+03 0.294E+02 -.614E+01   0.549E+00 -.119E+01 -.747E+00   0.140E-02 -.517E-03 -.223E-02
   -.446E+03 0.358E+02 -.437E+02   0.445E+03 -.373E+02 0.446E+02   0.382E+00 0.150E+01 -.832E+00   0.158E-02 -.629E-04 0.740E-03
   0.488E+03 -.750E-05 0.324E+02   -.489E+03 -.717E-05 -.319E+02   0.164E+01 0.318E-18 -.466E+00   0.530E-03 0.537E-05 -.135E-02
   0.213E+03 0.553E-05 -.124E+02   -.211E+03 0.831E-05 0.118E+02   -.208E+01 -.279E-18 0.558E+00   -.851E-03 -.700E-05 0.118E-02
   0.145E+03 -.108E-05 -.417E+01   -.146E+03 -.787E-05 0.485E+01   0.189E+01 0.832E-18 -.680E+00   0.703E-04 0.743E-05 0.105E-02
   -.213E+03 -.488E-05 -.124E+02   0.211E+03 -.794E-05 0.118E+02   0.208E+01 0.134E-18 0.558E+00   0.148E-02 0.703E-05 0.914E-03
   -.145E+03 -.207E-05 -.417E+01   0.146E+03 0.806E-05 0.485E+01   -.189E+01 0.708E-18 -.680E+00   -.505E-03 -.685E-05 0.423E-03
   -.488E+03 -.446E-05 0.324E+02   0.489E+03 0.743E-05 -.319E+02   -.164E+01 0.392E-18 -.466E+00   0.279E-03 -.602E-05 -.156E-02
   0.423E+03 0.379E-05 0.256E+01   -.423E+03 0.822E-05 -.413E+01   0.200E+00 0.101E-17 0.156E+01   -.102E-02 -.652E-05 0.131E-02
   0.367E+03 -.222E-04 0.641E+02   -.366E+03 -.784E-05 -.662E+02   -.656E+00 -.173E-17 0.209E+01   -.823E-03 0.603E-05 0.171E-03
   0.489E+02 -.203E-05 -.350E+02   -.490E+02 0.880E-05 0.367E+02   0.127E+00 0.244E-17 -.160E+01   -.562E-03 -.711E-05 -.108E-02
   -.367E+03 0.228E-04 0.641E+02   0.366E+03 0.758E-05 -.662E+02   0.656E+00 -.146E-17 0.209E+01   0.114E-02 -.620E-05 -.169E-03
   -.489E+02 0.828E-05 -.350E+02   0.490E+02 -.924E-05 0.367E+02   -.127E+00 -.138E-17 -.160E+01   0.399E-03 0.751E-05 -.550E-03
   -.423E+03 0.143E-04 0.256E+01   0.423E+03 -.822E-05 -.413E+01   -.200E+00 -.567E-18 0.156E+01   0.167E-02 0.662E-05 0.153E-02
 -----------------------------------------------------------------------------------------------
   -.391E-03 -.154E-02 0.260E+01   0.119E-11 0.250E-13 -.102E-12   -.111E-14 -.888E-15 -.258E+01   0.245E-01 0.155E-03 -.113E-01
 
 
 POSITION                                       TOTAL-FORCE (eV/Angst)
 -----------------------------------------------------------------------------------
      0.30588      1.65407      7.92439         0.009163      0.000000     -0.003348
      4.24167      4.96220      2.17338        -0.003061      0.000000     -0.005737
      4.65066      1.65407      9.18061        -0.007544      0.000000     -0.003877
      9.26494      1.65407      7.84543         0.003061      0.000000     -0.005737
      8.85594      4.96220      3.50856         0.007544      0.000000     -0.003877
     13.20072      4.96220      2.25234        -0.009163      0.000000     -0.003348
      1.94141      4.96220     10.34595         0.004222      0.000000      0.002768
      3.11776      1.65407      4.48750        -0.004204      0.000000      0.003694
      5.98544      4.96220      6.74142         0.001233      0.000000      0.000913
     10.38884      4.96220     10.15954         0.004204      0.000000      0.003694
      7.52116      1.65407      1.06937        -0.001233      0.000000      0.000913
     11.56519      1.65407      4.67391        -0.004222      0.000000      0.002768
      1.59230      0.45796      1.67351        -0.001038      0.003708     -0.009180
      2.80409      6.15706      7.27368        -0.001759     -0.000271     -0.002803
      6.19202      0.44520      3.99792        -0.006014     -0.005492      0.002137
      1.59230      2.85017      1.67351        -0.001038     -0.003708     -0.009180
      6.19202      2.86293      3.99792        -0.006014      0.005492      0.002137
      2.80409      3.76733      7.27368        -0.001759      0.000271     -0.002803
     10.70251      0.45920      1.60164         0.001759      0.000271     -0.002803
      7.31458      6.17106      9.66996         0.006014      0.005492      0.002137
     11.91430      6.15831      7.34556         0.001038     -0.003708     -0.009180
      7.31458      3.75333      9.66996         0.006014     -0.005492      0.002137
     10.70251      2.84893      1.60164         0.001759     -0.000271     -0.002803
     11.91430      3.76609      7.34556         0.001038      0.003708     -0.009180
      0.69294      4.96220      6.98703        -0.010588      0.000000      0.017191
      3.63201      1.65407      0.93513         0.006353      0.000000     -0.002247
      5.33243      4.96220     10.31334        -0.008802      0.000000      0.004138
      9.87459      4.96220      6.60718        -0.006353      0.000000     -0.002247
      8.17417      1.65407      4.64129         0.008802      0.000000      0.004138
     12.81366      1.65407      1.31498         0.010588      0.000000      0.017191
      1.59251      1.65407     10.92453         0.000565      0.000000     -0.005503
      2.35566      4.96220      5.21032        -0.015748      0.000000     -0.002178
      6.24545      1.65407      6.09230        -0.004219      0.000000      0.013878
     11.15094      1.65407     10.88237         0.015748      0.000000     -0.002178
      7.26115      4.96220      0.42025         0.004219      0.000000      0.013878
     11.91409      4.96220      5.25248        -0.000565      0.000000     -0.005503
 -----------------------------------------------------------------------------------
    total drift:                                0.024122     -0.001383      0.007841


--------------------------------------------------------------------------------------------------------



  FREE ENERGIE OF THE ION-ELECTRON SYSTEM (eV)
  ---------------------------------------------------
  free  energy   TOTEN  =      -139.91340668 eV

  energy  without entropy=     -139.91340668  energy(sigma->0) =     -139.91340668
 


--------------------------------------------------------------------------------------------------------


    POTLOK:  cpu time    2.7595: real time    2.7661


--------------------------------------------------------------------------------------------------------


 writing wavefunctions
     LOOP+:  cpu time   93.2905: real time   95.1419
    4ORBIT:  cpu time    0.0001: real time    0.0002
 


 total charge     
 
# of ion       s       p       d       tot
------------------------------------------
    1        2.019   5.567   0.315   7.901
    2        2.018   5.584   0.323   7.925
    3        2.019   5.587   0.331   7.937
    4        2.018   5.584   0.323   7.925
    5        2.019   5.587   0.331   7.937
    6        2.019   5.567   0.315   7.901
    7        2.016   5.577   0.339   7.932
    8        2.012   5.576   0.344   7.933
    9        2.012   5.579   0.326   7.916
   10        2.012   5.576   0.344   7.933
   11        2.012   5.579   0.326   7.916
   12        2.016   5.577   0.339   7.932
   13        0.830   0.807   0.000   1.637
   14        0.799   0.867   0.000   1.666
   15        0.804   0.864   0.000   1.668
   16        0.829   0.805   0.000   1.634
   17        0.804   0.866   0.000   1.670
   18        0.798   0.869   0.000   1.667
   19        0.798   0.869   0.000   1.668
   20        0.804   0.866   0.000   1.670
   21        0.829   0.805   0.000   1.634
   22        0.804   0.864   0.000   1.668
   23        0.799   0.867   0.000   1.666
   24        0.830   0.807   0.000   1.637
   25        0.815   0.815   0.000   1.630
   26        0.805   0.827   0.000   1.632
   27        0.809   0.837   0.000   1.646
   28        0.805   0.827   0.000   1.632
   29        0.809   0.837   0.000   1.646
   30        0.815   0.815   0.000   1.630
   31        0.788   0.875   0.000   1.663
   32        0.824   0.803   0.000   1.626
   33        0.804   0.858   0.000   1.662
   34        0.824   0.803   0.000   1.626
   35        0.804   0.858   0.000   1.662
   36        0.788   0.875   0.000   1.663
--------------------------------------------------
tot         43.606  87.129   3.957 134.691
 
 BZINTS: Fermi energy: -0.277500;216.000000 electrons
         Band energy:***********;  BLOECHL correction:  0.000000

 total amount of memory used by VASP MPI-rank0   104729. kBytes
=======================================================================

   base      :      30000. kBytes
   nonlr-proj:       3629. kBytes
   fftplans  :       6004. kBytes
   grid      :       8947. kBytes
   one-center:        139. kBytes
   wavefun   :      56010. kBytes
 
  
  
 General timing and accounting informations for this job:
 ========================================================
  
                  Total CPU time used (sec):      108.754
                            User time (sec):      106.236
                          System time (sec):        2.518
                         Elapsed time (sec):      113.979
  
                   Maximum memory used (kb):      326064.
                   Average memory used (kb):           0.
  
                          Minor page faults:        31834
                          Major page faults:          268
                 Voluntary context switches:        13668
