 vasp.5.4.4.18Apr17-6-g9f103f2a35 (build Nov 21 2017 15:30:27) complex          
  
 executed on             LinuxIFC date 2020.09.14  02:34:00
 running on   64 total cores
 distrk:  each k-point on   32 cores,    2 groups
 distr:  one band on NCORES_PER_BAND=   4 cores,    8 groups


--------------------------------------------------------------------------------------------------------


 INCAR:
 POTCAR:   PAW_PBE Ba_sv 06Sep2000                
 POTCAR:   PAW_PBE Si 05Jan2001                   

 ----------------------------------------------------------------------------- 
|                                                                             |
|           W    W    AA    RRRRR   N    N  II  N    N   GGGG   !!!           |
|           W    W   A  A   R    R  NN   N  II  NN   N  G    G  !!!           |
|           W    W  A    A  R    R  N N  N  II  N N  N  G       !!!           |
|           W WW W  AAAAAA  RRRRR   N  N N  II  N  N N  G  GGG   !            |
|           WW  WW  A    A  R   R   N   NN  II  N   NN  G    G                |
|           W    W  A    A  R    R  N    N  II  N    N   GGGG   !!!           |
|                                                                             |
|      You have enabled k-point parallelism (KPAR>1).                         |
|      This developmental code was originally  written by Paul Kent at ORNL,  |
|      and carefully double checked in Vienna.                                |
|      GW as well as linear response parallelism added by Martijn Marsman     |
|      and Georg Kresse.                                                      |
|      Carefully verify results versus KPAR=1.                                |
|      Report problems to Paul Kent and Vienna.                               |
|                                                                             |
 ----------------------------------------------------------------------------- 

 POTCAR:   PAW_PBE Ba_sv 06Sep2000                
   VRHFIN =Ba: 5s5p6s                                                           
   LEXCH  = PE                                                                  
   EATOM  =   700.2255 eV,   51.4651 Ry                                         
                                                                                
   TITEL  = PAW_PBE Ba_sv 06Sep2000                                             
   LULTRA =        F    use ultrasoft PP ?                                      
   IUNSCR =        1    unscreen: 0-lin 1-nonlin 2-no                           
   RPACOR =    2.400    partial core radius                                     
   POMASS =  137.327; ZVAL   =   10.000    mass and valenz                      
   RCORE  =    2.800    outmost cutoff radius                                   
   RWIGS  =    3.740; RWIGS  =    1.979    wigner-seitz radius (au A)           
   ENMAX  =  187.210; ENMIN  =  140.408 eV                                      
   RCLOC  =    2.516    cutoff for local pot                                    
   LCOR   =        T    correct aug charges                                     
   LPAW   =        T    paw PP                                                  
   EAUG   =  351.165                                                            
   DEXC   =     .000                                                            
   RMAX   =    3.370    core radius for proj-oper                               
   RAUG   =    1.300    factor for augmentation sphere                          
   RDEP   =    2.976    radius for radial grids                                 
   QCUT   =   -3.709; QGAM   =    7.419    optimization parameters              
                                                                                
   Description                                                                  
     l     E      TYP  RCUT    TYP  RCUT                                        
     0   .000     23  2.800                                                     
     0   .000     23  2.800                                                     
     1   .000     23  2.700                                                     
     1  2.000     23  2.700                                                     
     2   .000     23  2.700                                                     
     2   .000     23  2.700                                                     
  local pseudopotential read in
  partial core-charges read in
  atomic valenz-charges read in
  non local Contribution for L=           0  read in
    real space projection operators read in
  non local Contribution for L=           0  read in
    real space projection operators read in
  non local Contribution for L=           1  read in
    real space projection operators read in
  non local Contribution for L=           1  read in
    real space projection operators read in
  non local Contribution for L=           2  read in
    real space projection operators read in
  non local Contribution for L=           2  read in
    real space projection operators read in
    PAW grid and wavefunctions read in
 
   number of l-projection  operators is LMAX  =           6
   number of lm-projection operators is LMMAX =          18
 
 POTCAR:   PAW_PBE Si 05Jan2001                   
   VRHFIN =Si: s2p2                                                             
   LEXCH  = PE                                                                  
   EATOM  =   103.0669 eV,    7.5752 Ry                                         
                                                                                
   TITEL  = PAW_PBE Si 05Jan2001                                                
   LULTRA =        F    use ultrasoft PP ?                                      
   IUNSCR =        1    unscreen: 0-lin 1-nonlin 2-no                           
   RPACOR =    1.500    partial core radius                                     
   POMASS =   28.085; ZVAL   =    4.000    mass and valenz                      
   RCORE  =    1.900    outmost cutoff radius                                   
   RWIGS  =    2.480; RWIGS  =    1.312    wigner-seitz radius (au A)           
   ENMAX  =  245.345; ENMIN  =  184.009 eV                                      
   ICORE  =        2    local potential                                         
   LCOR   =        T    correct aug charges                                     
   LPAW   =        T    paw PP                                                  
   EAUG   =  322.069                                                            
   DEXC   =    -.007                                                            
   RMAX   =    2.944    core radius for proj-oper                               
   RAUG   =    1.300    factor for augmentation sphere                          
   RDEP   =    1.993    radius for radial grids                                 
   QCUT   =   -4.246; QGAM   =    8.493    optimization parameters              
                                                                                
   Description                                                                  
     l     E      TYP  RCUT    TYP  RCUT                                        
     0   .000     23  1.900                                                     
     0   .000     23  1.900                                                     
     1   .000     23  1.900                                                     
     1   .000     23  1.900                                                     
     2   .000      7  1.900                                                     
  local pseudopotential read in
  partial core-charges read in
  atomic valenz-charges read in
  non local Contribution for L=           0  read in
    real space projection operators read in
  non local Contribution for L=           0  read in
    real space projection operators read in
  non local Contribution for L=           1  read in
    real space projection operators read in
  non local Contribution for L=           1  read in
    real space projection operators read in
    PAW grid and wavefunctions read in
 
   number of l-projection  operators is LMAX  =           4
   number of lm-projection operators is LMMAX =           8
 
 Optimization of the real space projectors (new method)

 maximal supplied QI-value         = 13.42
 optimisation between [QCUT,QGAM] = [ 11.40, 22.81] = [ 36.42,145.68] Ry 
 Optimized for a Real-space Cutoff    1.56 Angstroem

   l    n(q)    QCUT    max X(q) W(low)/X(q) W(high)/X(q)  e(spline) 
   0     11    11.404     7.198    0.14E-04    0.26E-04    0.99E-07
   0     11    11.404    15.603    0.29E-04    0.72E-04    0.44E-06
   1     10    11.404     3.746    0.20E-04    0.24E-04    0.43E-07
   1     10    11.404     4.362    0.22E-03    0.97E-04    0.22E-06
   2     10    11.404     5.782    0.83E-04    0.62E-05    0.27E-06
   2     10    11.404    65.505    0.42E-03    0.31E-04    0.12E-05
 Optimization of the real space projectors (new method)

 maximal supplied QI-value         = 19.84
 optimisation between [QCUT,QGAM] = [ 11.31, 22.82] = [ 35.82,145.81] Ry 
 Optimized for a Real-space Cutoff    1.16 Angstroem

   l    n(q)    QCUT    max X(q) W(low)/X(q) W(high)/X(q)  e(spline) 
   0      8    11.310     8.708    0.14E-04    0.11E-04    0.43E-08
   0      8    11.310   106.241    0.27E-03    0.30E-03    0.38E-07
   1      7    11.310     5.901    0.82E-05    0.48E-04    0.19E-07
   1      7    11.310    73.241    0.27E-03    0.27E-03    0.74E-07
 PAW_PBE Ba_sv 06Sep2000                :
 energy of atom  1       EATOM= -700.2255
 kinetic energy error for atom=    0.0005 (will be added to EATOM!!)
 PAW_PBE Si 05Jan2001                   :
 energy of atom  2       EATOM= -103.0669
 kinetic energy error for atom=    0.0006 (will be added to EATOM!!)
 
 
 POSCAR: ba8 si16                                
  positions in direct lattice
  velocities in cartesian coordinates
 exchange correlation table for  LEXCH =        8
   RHO(1)=    0.500       N(1)  =     2000
   RHO(2)=  100.500       N(2)  =     4000
 


--------------------------------------------------------------------------------------------------------


 ion  position               nearest neighbor table
   1  0.006  0.250  0.705-  21 3.40  16 3.45  11 3.45  17 3.65  17 3.65   5 4.39   5 4.39   7 4.63

   2  0.378  0.750  0.295-  22 3.40  12 3.45  15 3.45  18 3.65  18 3.65   6 4.39   6 4.39   8 4.63

   3  0.182  0.750  0.187-  20 3.31   9 3.45  14 3.45  12 3.51  15 3.51  22 3.51  19 3.65  19 3.65
                            23 3.75   5 4.28   7 4.37   7 4.37
   4  0.202  0.250  0.813-  19 3.31  13 3.45  10 3.45  16 3.51  11 3.51  21 3.51  20 3.65  20 3.65
                            24 3.75   6 4.28   8 4.37   8 4.37
   5  0.060  0.750  0.917-   9 3.43  14 3.43  21 3.45  21 3.45  11 3.49  16 3.49  17 3.75   3 4.28
                             1 4.39   1 4.39
   6  0.324  0.250  0.083-  13 3.43  10 3.43  22 3.45  22 3.45  15 3.49  12 3.49  18 3.75   4 4.28
                             2 4.39   2 4.39
   7  0.128  0.250  0.396-  14 3.43   9 3.43  23 3.54  23 3.54  15 3.65  12 3.65  19 3.70  24 3.72
                            16 3.77  11 3.77   3 4.37   3 4.37   1 4.63
   8  0.256  0.750  0.604-  10 3.43  13 3.43  24 3.54  24 3.54  11 3.65  16 3.65  20 3.70  23 3.72
                            12 3.77  15 3.77   4 4.37   4 4.37   2 4.63
   9  0.073  0.073  0.144-  14 2.40  21 2.43  19 2.44   7 3.43   5 3.43   3 3.45
  10  0.311  0.927  0.856-  13 2.40  22 2.43  20 2.44   8 3.43   6 3.43   4 3.45
  11  0.115  0.928  0.659-  16 2.41  23 2.43  17 2.44   1 3.45   5 3.49   4 3.51   8 3.65   7 3.77

  12  0.269  0.072  0.341-  15 2.41  24 2.43  18 2.44   2 3.45   6 3.49   3 3.51   7 3.65   8 3.77

  13  0.311  0.573  0.856-  10 2.40  22 2.43  20 2.44   8 3.43   6 3.43   4 3.45
  14  0.073  0.427  0.144-   9 2.40  21 2.43  19 2.44   7 3.43   5 3.43   3 3.45
  15  0.269  0.428  0.341-  12 2.41  24 2.43  18 2.44   2 3.45   6 3.49   3 3.51   7 3.65   8 3.77

  16  0.115  0.572  0.659-  11 2.41  23 2.43  17 2.44   1 3.45   5 3.49   4 3.51   8 3.65   7 3.77

  17  0.031  0.750  0.600-  23 2.44  11 2.44  16 2.44   1 3.65   1 3.65   5 3.75
  18  0.352  0.250  0.400-  24 2.44  15 2.44  12 2.44   2 3.65   2 3.65   6 3.75
  19  0.157  0.250  0.083-  21 2.42  14 2.44   9 2.44   4 3.31   3 3.65   3 3.65   7 3.70
  20  0.227  0.750  0.917-  22 2.42  10 2.44  13 2.44   3 3.31   4 3.65   4 3.65   8 3.70
  21  0.074  0.250  0.962-  19 2.42  14 2.43   9 2.43   1 3.40   5 3.45   5 3.45   4 3.51
  22  0.309  0.750  0.038-  20 2.42  10 2.43  13 2.43   2 3.40   6 3.45   6 3.45   3 3.51
  23  0.113  0.750  0.477-  11 2.43  16 2.43  17 2.44   7 3.54   7 3.54   8 3.72   3 3.75
  24  0.270  0.250  0.523-  15 2.43  12 2.43  18 2.44   8 3.54   8 3.54   7 3.72   4 3.75
 
  LATTYP: Found a simple orthorhombic cell.
 ALAT       =     6.7778496742
 B/A-ratio  =     1.7117734747
 C/A-ratio  =     3.5423429602
  
  Lattice vectors:
  
 A1 = (   0.0000000000,   6.7778496742,   0.0000000000)
 A2 = (   0.0000000000,   0.0000000000, -11.6021432877)
 A3 = ( -24.0094680786,   0.0000000000,   0.0000000000)


Analysis of symmetry for initial positions (statically):
=====================================================================
 Subroutine PRICEL returns:
 Original cell was already a primitive cell.
 

 Routine SETGRP: Setting up the symmetry group for a 
 simple orthorhombic supercell.


 Subroutine GETGRP returns: Found  4 space group operations
 (whereof  1 operations were pure point group operations)
 out of a pool of  8 trial point group operations.


The static configuration has the point symmetry C_1 .
 The point group associated with its full space group is C_2h.


Analysis of symmetry for dynamics (positions and initial velocities):
=====================================================================
 Subroutine PRICEL returns:
 Original cell was already a primitive cell.
 

 Routine SETGRP: Setting up the symmetry group for a 
 simple orthorhombic supercell.


 Subroutine GETGRP returns: Found  4 space group operations
 (whereof  1 operations were pure point group operations)
 out of a pool of  8 trial point group operations.


The dynamic configuration has the point symmetry C_1 .
 The point group associated with its full space group is C_2h.


Analysis of constrained symmetry for selective dynamics:
=====================================================================
 Subroutine PRICEL returns:
 Original cell was already a primitive cell.
 

 Routine SETGRP: Setting up the symmetry group for a 
 simple orthorhombic supercell.


 Subroutine GETGRP returns: Found  4 space group operations
 (whereof  1 operations were pure point group operations)
 out of a pool of  8 trial point group operations.


The constrained configuration has the point symmetry C_1 .
 The point group associated with its full space group is C_2h.


 Subroutine INISYM returns: Found  4 space group operations
 (whereof  1 operations are pure point group operations),
 and found     1 'primitive' translations

 
 
 KPOINTS: k-density: 8.0                          

Automatic generation of k-mesh.
Space group operators:
 irot       det(A)        alpha          n_x          n_y          n_z        tau_x        tau_y        tau_z
    1     1.000000     0.000000     1.000000     0.000000     0.000000     0.000000     0.000000     0.000000
    2    -1.000000     0.000000     1.000000     0.000000     0.000000    -0.616423     0.000000     0.000000
    3     1.000000   180.000000     0.000000     1.000000     0.000000    -0.616423     0.500000     0.000000
    4    -1.000000   180.000000     0.000000     1.000000     0.000000     0.000000     0.500000     0.000000
 
 Subroutine IBZKPT returns following result:
 ===========================================
 
 Found     15 irreducible k-points:
 
 Following reciprocal coordinates:
            Coordinates               Weight
  0.000000  0.000000  0.000000      1.000000
  0.000000  0.125000  0.000000      2.000000
  0.000000  0.250000  0.000000      2.000000
  0.000000  0.375000  0.000000      2.000000
  0.000000  0.500000  0.000000      1.000000
  0.000000  0.000000  0.200000      2.000000
  0.000000  0.125000  0.200000      4.000000
  0.000000  0.250000  0.200000      4.000000
  0.000000  0.375000  0.200000      4.000000
  0.000000  0.500000  0.200000      2.000000
  0.000000  0.000000  0.400000      2.000000
  0.000000  0.125000  0.400000      4.000000
  0.000000  0.250000  0.400000      4.000000
  0.000000  0.375000  0.400000      4.000000
  0.000000  0.500000  0.400000      2.000000
 
 Following cartesian coordinates:
            Coordinates               Weight
  0.000000  0.000000  0.000000      1.000000
  0.000000  0.018442  0.000000      2.000000
  0.000000  0.036885  0.000000      2.000000
  0.000000  0.055327  0.000000      2.000000
  0.000000  0.073770  0.000000      1.000000
  0.000000  0.000000  0.017238      2.000000
  0.000000  0.018442  0.017238      4.000000
  0.000000  0.036885  0.017238      4.000000
  0.000000  0.055327  0.017238      4.000000
  0.000000  0.073770  0.017238      2.000000
  0.000000  0.000000  0.034476      2.000000
  0.000000  0.018442  0.034476      4.000000
  0.000000  0.036885  0.034476      4.000000
  0.000000  0.055327  0.034476      4.000000
  0.000000  0.073770  0.034476      2.000000
 
 TETIRR: Found    108 inequivalent tetrahedra from      240


--------------------------------------------------------------------------------------------------------




 Dimension of arrays:
   k-points           NKPTS =     15   k-points in BZ     NKDIM =     15   number of bands    NBANDS=     88
   number of dos      NEDOS =    301   number of ions     NIONS =     24
   non local maximal  LDIM  =      6   non local SUM 2l+1 LMDIM =     18
   total plane-waves  NPLWV = 358400
   max r-space proj   IRMAX =   3093   max aug-charges    IRDMAX=  12081
   dimension x,y,z NGX =   140 NGY =   40 NGZ =   64
   dimension x,y,z NGXF=   280 NGYF=   80 NGZF=  128
   support grid    NGXF=   280 NGYF=   80 NGZF=  128
   ions per type =               8  16
   NGX,Y,Z   is equivalent  to a cutoff of   9.69,  9.81,  9.17 a.u.
   NGXF,Y,Z  is equivalent  to a cutoff of  19.39, 19.62, 18.34 a.u.

 SYSTEM =  unknown system                          
 POSCAR =  ba8 si16                                

 Startparameter for this run:
   NWRITE =      2    write-flag & timer
   PREC   = normal    normal or accurate (medium, high low for compatibility)
   ISTART =      0    job   : 0-new  1-cont  2-samecut
   ICHARG =      2    charge: 1-file 2-atom 10-const
   ISPIN  =      1    spin polarized calculation?
   LNONCOLLINEAR =      F non collinear calculations
   LSORBIT =      F    spin-orbit coupling
   INIWAV =      1    electr: 0-lowe 1-rand  2-diag
   LASPH  =      F    aspherical Exc in radial PAW
   METAGGA=      F    non-selfconsistent MetaGGA calc.

 Electronic Relaxation 1
   ENCUT  =  500.0 eV  36.75 Ry    6.06 a.u.  43.77 12.36 21.15*2*pi/ulx,y,z
   ENINI  =  500.0     initial cutoff
   ENAUG  =  351.2 eV  augmentation charge cutoff
   NELM   =    100;   NELMIN=  2; NELMDL= -5     # of ELM steps 
   EDIFF  = 0.1E-05   stopping-criterion for ELM
   LREAL  =      T    real-space projection
   NLSPLINE    = F    spline interpolate recip. space projectors
   LCOMPAT=      F    compatible to vasp.4.4
   GGA_COMPAT  = T    GGA compatible to vasp.4.4-vasp.4.6
   LMAXPAW     = -100 max onsite density
   LMAXMIX     =    2 max onsite mixed and CHGCAR
   VOSKOWN=      0    Vosko Wilk Nusair interpolation
   ROPT   =   -0.00050  -0.00050
 Ionic relaxation
   EDIFFG = -.1E-02   stopping-criterion for IOM
   NSW    =      0    number of steps for IOM
   NBLOCK =      1;   KBLOCK =      1    inner block; outer block 
   IBRION =     -1    ionic relax: 0-MD 1-quasi-New 2-CG
   NFREE  =      0    steps in history (QN), initial steepest desc. (CG)
   ISIF   =      2    stress and relaxation
   IWAVPR =     10    prediction:  0-non 1-charg 2-wave 3-comb
   ISYM   =      2    0-nonsym 1-usesym 2-fastsym
   LCORR  =      T    Harris-Foulkes like correction to forces

   POTIM  = 0.3000    time-step for ionic-motion
   TEIN   =    0.0    initial temperature
   TEBEG  =    0.0;   TEEND  =   0.0 temperature during run
   SMASS  =  -3.00    Nose mass-parameter (am)
   estimated Nose-frequenzy (Omega)   =  0.10E-29 period in steps =****** mass=  -0.132E-25a.u.
   SCALEE = 1.0000    scale energy and forces
   NPACO  =    256;   APACO  = 16.0  distance and # of slots for P.C.
   PSTRESS=    0.0 pullay stress

  Mass of Ions in am
   POMASS = 137.33 28.09
  Ionic Valenz
   ZVAL   =  10.00  4.00
  Atomic Wigner-Seitz radii
   RWIGS  =  -1.00 -1.00
  virtual crystal weights 
   VCA    =   1.00  1.00
   NELECT =     144.0000    total number of electrons
   NUPDOWN=      -1.0000    fix difference up-down

 DOS related values:
   EMIN   =  10.00;   EMAX   =-10.00  energy-range for DOS
   EFERMI =   0.00
   ISMEAR =    -5;   SIGMA  =   0.01  broadening in eV -4-tet -1-fermi 0-gaus

 Electronic relaxation 2 (details)
   IALGO  =     38    algorithm
   LDIAG  =      T    sub-space diagonalisation (order eigenvalues)
   LSUBROT=      F    optimize rotation matrix (better conditioning)
   TURBO    =      0    0=normal 1=particle mesh
   IRESTART =      0    0=no restart 2=restart with 2 vectors
   NREBOOT  =      0    no. of reboots
   NMIN     =      0    reboot dimension
   EREF     =   0.00    reference energy to select bands
   IMIX   =      4    mixing-type and parameters
     AMIX     =   0.40;   BMIX     =  1.00
     AMIX_MAG =   1.60;   BMIX_MAG =  1.00
     AMIN     =   0.10
     WC   =   100.;   INIMIX=   1;  MIXPRE=   1;  MAXMIX= -45

 Intra band minimization:
   WEIMIN = 0.0000     energy-eigenvalue tresh-hold
   EBREAK =  0.28E-08  absolut break condition
   DEPER  =   0.30     relativ break condition  

   TIME   =   0.40     timestep for ELM

  volume/ion in A,a.u.               =      78.67       530.88
  Fermi-wavevector in a.u.,A,eV,Ry     =   0.694264  1.311969  6.558046  0.482003
  Thomas-Fermi vector in A             =   1.776709
 
 Write flags
   LWAVE        =      T    write WAVECAR
   LDOWNSAMPLE  =      F    k-point downsampling of WAVECAR
   LCHARG       =      T    write CHGCAR
   LVTOT        =      F    write LOCPOT, total local potential
   LVHAR        =      F    write LOCPOT, Hartree potential only
   LELF         =      F    write electronic localiz. function (ELF)
   LORBIT       =      0    0 simple, 1 ext, 2 COOP (PROOUT), +10 PAW based schemes


 Dipole corrections
   LMONO  =      F    monopole corrections only (constant potential shift)
   LDIPOL =      F    correct potential (dipole corrections)
   IDIPOL =      0    1-x, 2-y, 3-z, 4-all directions 
   EPSILON=  1.0000000 bulk dielectric constant

 Exchange correlation treatment:
   GGA     =    --    GGA type
   LEXCH   =     8    internal setting for exchange type
   VOSKOWN=      0    Vosko Wilk Nusair interpolation
   LHFCALC =     F    Hartree Fock is set to
   LHFONE  =     F    Hartree Fock one center treatment
   AEXX    =    0.0000 exact exchange contribution

 Linear response parameters
   LEPSILON=     F    determine dielectric tensor
   LRPA    =     F    only Hartree local field effects (RPA)
   LNABLA  =     F    use nabla operator in PAW spheres
   LVEL    =     F    velocity operator in full k-point grid
   LINTERFAST=   F  fast interpolation
   KINTER  =     0    interpolate to denser k-point grid
   CSHIFT  =0.1000    complex shift for real part using Kramers Kronig
   OMEGAMAX=  -1.0    maximum frequency
   DEG_THRESHOLD= 0.2000000E-02 threshold for treating states as degnerate
   RTIME   =   -0.100 relaxation time in fs
  (WPLASMAI=    0.000 imaginary part of plasma frequency in eV, 0.658/RTIME)
   DFIELD  = 0.0000000 0.0000000 0.0000000 field for delta impulse in time
 
 Orbital magnetization related:
   ORBITALMAG=     F  switch on orbital magnetization
   LCHIMAG   =     F  perturbation theory with respect to B field
   DQ        =  0.001000  dq finite difference perturbation B field
   LLRAUG    =     F  two centre corrections for induced B field



--------------------------------------------------------------------------------------------------------


 Static calculation
 charge density and potential will be updated during run
 non-spin polarized calculation
 Variant of blocked Davidson
 Davidson routine will perform the subspace rotation
 perform sub-space diagonalisation
    after iterative eigenvector-optimisation
 modified Broyden-mixing scheme, WC =      100.0
 initial mixing is a Kerker type mixing with AMIX =  0.4000 and BMIX =      1.0000
 Hartree-type preconditioning will be used
 using additional bands           16
 real space projection scheme for non local part
 use partial core corrections
 calculate Harris-corrections to forces 
   (improved forces if not selfconsistent)
 use gradient corrections 
 use of overlap-Matrix (Vanderbilt PP)
 Fermi weights with tetrahedron method with Bloechl corrections


--------------------------------------------------------------------------------------------------------


  energy-cutoff  :      500.00
  volume of cell :     1888.05
      direct lattice vectors                 reciprocal lattice vectors
    24.009468079  0.000000000  0.000000000     0.041650236  0.000000000  0.000000000
     0.000000000  6.777849674  0.000000000     0.000000000  0.147539419  0.000000000
     0.000000000  0.000000000 11.602143288     0.000000000  0.000000000  0.086190971

  length of vectors
    24.009468079  6.777849674 11.602143288     0.041650236  0.147539419  0.086190971


 
 k-points in units of 2pi/SCALE and weight: k-density: 8.0                          
   0.00000000  0.00000000  0.00000000       0.025
   0.00000000  0.01844243  0.00000000       0.050
   0.00000000  0.03688485  0.00000000       0.050
   0.00000000  0.05532728  0.00000000       0.050
   0.00000000  0.07376971  0.00000000       0.025
   0.00000000  0.00000000  0.01723819       0.050
   0.00000000  0.01844243  0.01723819       0.100
   0.00000000  0.03688485  0.01723819       0.100
   0.00000000  0.05532728  0.01723819       0.100
   0.00000000  0.07376971  0.01723819       0.050
   0.00000000  0.00000000  0.03447639       0.050
   0.00000000  0.01844243  0.03447639       0.100
   0.00000000  0.03688485  0.03447639       0.100
   0.00000000  0.05532728  0.03447639       0.100
   0.00000000  0.07376971  0.03447639       0.050
 
 k-points in reciprocal lattice and weights: k-density: 8.0                          
   0.00000000  0.00000000  0.00000000       0.025
   0.00000000  0.12500000  0.00000000       0.050
   0.00000000  0.25000000  0.00000000       0.050
   0.00000000  0.37500000  0.00000000       0.050
   0.00000000  0.50000000  0.00000000       0.025
   0.00000000  0.00000000  0.20000000       0.050
   0.00000000  0.12500000  0.20000000       0.100
   0.00000000  0.25000000  0.20000000       0.100
   0.00000000  0.37500000  0.20000000       0.100
   0.00000000  0.50000000  0.20000000       0.050
   0.00000000  0.00000000  0.40000000       0.050
   0.00000000  0.12500000  0.40000000       0.100
   0.00000000  0.25000000  0.40000000       0.100
   0.00000000  0.37500000  0.40000000       0.100
   0.00000000  0.50000000  0.40000000       0.050
 
 position of ions in fractional coordinates (direct lattice) 
   0.00569361  0.25000000  0.70502874
   0.37788290  0.75000002  0.29497126
   0.18192962  0.75000002  0.18672374
   0.20164689  0.25000000  0.81327624
   0.05978014  0.75000002  0.91746993
   0.32379637  0.25000000  0.08253005
   0.12784309  0.25000000  0.39588362
   0.25573342  0.75000002  0.60411642
   0.07289913  0.07293037  0.14352413
   0.31067738  0.92706962  0.85647585
   0.11472410  0.92811384  0.65929717
   0.26885241  0.07188615  0.34070283
   0.31067738  0.57293038  0.85647585
   0.07289913  0.42706962  0.14352413
   0.26885241  0.42811384  0.34070283
   0.11472410  0.57188616  0.65929717
   0.03110981  0.75000002  0.59990658
   0.35246670  0.25000000  0.40009342
   0.15651343  0.25000000  0.08273360
   0.22706310  0.75000002  0.91726638
   0.07418398  0.25000000  0.96182211
   0.30939253  0.75000002  0.03817790
   0.11343925  0.75000002  0.47731561
   0.27013726  0.25000000  0.52268431
 
 position of ions in cartesian coordinates  (Angst):
   0.13670066  1.69446242  8.17984450
   9.07276745  5.08338737  3.42229879
   4.36803341  5.08338737  2.16639553
   4.84143467  1.69446242  9.43574752
   1.43528938  5.08338737 10.64461755
   7.77417870  1.69446242  0.95752550
   3.06944466  1.69446242  4.59309847
   6.14002342  5.08338737  7.00904529
   1.75026941  0.49431109  1.66518747
   7.45919867  6.28353852  9.93695558
   2.75446463  6.29061607  7.64926029
   6.45500345  0.48723355  3.95288300
   7.45919867  3.88323599  9.93695558
   1.75026941  2.89461369  1.66518747
   6.45500345  2.90169123  3.95288300
   2.75446463  3.87615844  7.64926029
   0.74692994  5.08338737  6.96020213
   8.46253796  1.69446242  4.64194116
   3.75780416  1.69446242  0.95988706
   5.45166416  5.08338737 10.64225599
   1.78111780  1.69446242 11.15919796
   7.42835016  5.08338737  0.44294550
   2.72361612  5.08338737  5.53788406
   6.48585196  1.69446242  6.06425827
 


--------------------------------------------------------------------------------------------------------


 k-point  1 :   0.0000 0.0000 0.0000  plane waves:   47989
 k-point  2 :   0.0000 0.1250 0.0000  plane waves:   47929
 k-point  3 :   0.0000 0.2500 0.0000  plane waves:   47901
 k-point  4 :   0.0000 0.3750 0.0000  plane waves:   47910
 k-point  5 :   0.0000 0.5000 0.0000  plane waves:   47868
 k-point  6 :   0.0000 0.0000 0.2000  plane waves:   48006
 k-point  7 :   0.0000 0.1250 0.2000  plane waves:   47967
 k-point  8 :   0.0000 0.2500 0.2000  plane waves:   47907
 k-point  9 :   0.0000 0.3750 0.2000  plane waves:   47884
 k-point 10 :   0.0000 0.5000 0.2000  plane waves:   47884
 k-point 11 :   0.0000 0.0000 0.4000  plane waves:   47922
 k-point 12 :   0.0000 0.1250 0.4000  plane waves:   47954
 k-point 13 :   0.0000 0.2500 0.4000  plane waves:   47967
 k-point 14 :   0.0000 0.3750 0.4000  plane waves:   47928
 k-point 15 :   0.0000 0.5000 0.4000  plane waves:   47890

 maximum and minimum number of plane-waves per node :     12077    11868

 maximum number of plane-waves:     48006
 maximum index in each direction: 
   IXMAX=   43   IYMAX=   12   IZMAX=   21
   IXMIN=  -43   IYMIN=  -12   IZMIN=  -21


 real space projection operators:
  total allocation   :       4535.75 KBytes
  max/ min on nodes  :       1135.67       1129.25


 parallel 3D FFT for wavefunctions:
    minimum data exchange during FFTs selected (reduces bandwidth)
 parallel 3D FFT for charge:
    minimum data exchange during FFTs selected (reduces bandwidth)


 total amount of memory used by VASP MPI-rank0    79355. kBytes
=======================================================================

   base      :      30000. kBytes
   nonlr-proj:       2649. kBytes
   fftplans  :       5898. kBytes
   grid      :       8824. kBytes
   one-center:         93. kBytes
   wavefun   :      31891. kBytes
 
     INWAV:  cpu time    0.0000: real time    0.0000
 Broyden mixing: mesh for mixing (old mesh)
   NGX = 87   NGY = 25   NGZ = 43
  (NGX  =280   NGY  = 80   NGZ  =128)
  gives a total of  93525 points

 initial charge density was supplied:
 charge density of overlapping atoms calculated
 number of electron     144.0000000 magnetization 
 keeping initial charge density in first step


--------------------------------------------------------------------------------------------------------


 Maximum index for non-local projection operator          755
 Maximum index for augmentation-charges          601 (set IRDMAX)


--------------------------------------------------------------------------------------------------------


 First call to EWALD:  gamma=   0.143
 Maximum number of real-space cells 2x 5x 3
 Maximum number of reciprocal cells 5x 2x 3

    FEWALD:  cpu time    0.0116: real time    0.0117


--------------------------------------- Iteration      1(   1)  ---------------------------------------


    POTLOK:  cpu time    0.0854: real time    0.6346
    SETDIJ:  cpu time    0.0022: real time    0.0024
     EDDAV:  cpu time    2.9168: real time    2.9611
 BZINTS: Fermi energy:  7.059309;144.000000 electrons
         Band energy:-462.960722;  BLOECHL correction: -0.027506
       DOS:  cpu time    0.0123: real time    0.0124
    --------------------------------------------
      LOOP:  cpu time    3.0167: real time    3.6105

 eigenvalue-minimisations  :  2768
 total energy-change (2. order) : 0.1189410E+04  (-0.4785044E+04)
 number of electron     144.0000000 magnetization 
 augmentation part      144.0000000 magnetization 

 Free energy of the ion-electron system (eV)
  ---------------------------------------------------
  alpha Z        PSCENC =       170.45750602
  Ewald energy   TEWEN  =     11984.54640372
  -Hartree energ DENC   =    -18097.60718735
  -exchange      EXHF   =         0.00000000
  -V(xc)+E(xc)   XCENC  =        42.45443217
  PAW double counting   =      3692.15173346    -3390.49189382
  entropy T*S    EENTRO =         0.00000000
  eigenvalues    EBANDS =      -462.96072159
  atomic energy  EATOM  =      7250.85976021
  Solvation  Ediel_sol  =         0.00000000
  ---------------------------------------------------
  free energy    TOTEN  =      1189.41003282 eV

  energy without entropy =     1189.41003282  energy(sigma->0) =     1189.41003282


--------------------------------------------------------------------------------------------------------




--------------------------------------- Iteration      1(   2)  ---------------------------------------


     EDDAV:  cpu time    3.6565: real time    3.6929
 BZINTS: Fermi energy: -2.016441;144.000000 electrons
         Band energy:***********;  BLOECHL correction:  0.000000
       DOS:  cpu time    0.0021: real time    0.0021
    --------------------------------------------
      LOOP:  cpu time    3.6586: real time    3.6951

 eigenvalue-minimisations  :  3816
 total energy-change (2. order) :-0.1127536E+04  (-0.1098258E+04)
 number of electron     144.0000000 magnetization 
 augmentation part      144.0000000 magnetization 

 Free energy of the ion-electron system (eV)
  ---------------------------------------------------
  alpha Z        PSCENC =       170.45750602
  Ewald energy   TEWEN  =     11984.54640372
  -Hartree energ DENC   =    -18097.60718735
  -exchange      EXHF   =         0.00000000
  -V(xc)+E(xc)   XCENC  =        42.45443217
  PAW double counting   =      3692.15173346    -3390.49189382
  entropy T*S    EENTRO =         0.00000000
  eigenvalues    EBANDS =     -1590.49704279
  atomic energy  EATOM  =      7250.85976021
  Solvation  Ediel_sol  =         0.00000000
  ---------------------------------------------------
  free energy    TOTEN  =        61.87371162 eV

  energy without entropy =       61.87371162  energy(sigma->0) =       61.87371162


--------------------------------------------------------------------------------------------------------




--------------------------------------- Iteration      1(   3)  ---------------------------------------


     EDDAV:  cpu time    2.7841: real time    2.8026
 BZINTS: Fermi energy: -3.346577;144.000000 electrons
         Band energy:***********;  BLOECHL correction:  0.000000
       DOS:  cpu time    0.0020: real time    0.0020
    --------------------------------------------
      LOOP:  cpu time    2.7860: real time    2.8046

 eigenvalue-minimisations  :  3240
 total energy-change (2. order) :-0.1707826E+03  (-0.1700616E+03)
 number of electron     144.0000000 magnetization 
 augmentation part      144.0000000 magnetization 

 Free energy of the ion-electron system (eV)
  ---------------------------------------------------
  alpha Z        PSCENC =       170.45750602
  Ewald energy   TEWEN  =     11984.54640372
  -Hartree energ DENC   =    -18097.60718735
  -exchange      EXHF   =         0.00000000
  -V(xc)+E(xc)   XCENC  =        42.45443217
  PAW double counting   =      3692.15173346    -3390.49189382
  entropy T*S    EENTRO =         0.00000000
  eigenvalues    EBANDS =     -1761.27968696
  atomic energy  EATOM  =      7250.85976021
  Solvation  Ediel_sol  =         0.00000000
  ---------------------------------------------------
  free energy    TOTEN  =      -108.90893255 eV

  energy without entropy =     -108.90893255  energy(sigma->0) =     -108.90893255


--------------------------------------------------------------------------------------------------------




--------------------------------------- Iteration      1(   4)  ---------------------------------------


     EDDAV:  cpu time    3.3664: real time    3.3852
 BZINTS: Fermi energy: -3.353477;144.000000 electrons
         Band energy:***********;  BLOECHL correction:  0.000000
       DOS:  cpu time    0.0026: real time    0.0026
    --------------------------------------------
      LOOP:  cpu time    3.3690: real time    3.3878

 eigenvalue-minimisations  :  3744
 total energy-change (2. order) :-0.6012570E+01  (-0.5996251E+01)
 number of electron     144.0000000 magnetization 
 augmentation part      144.0000000 magnetization 

 Free energy of the ion-electron system (eV)
  ---------------------------------------------------
  alpha Z        PSCENC =       170.45750602
  Ewald energy   TEWEN  =     11984.54640372
  -Hartree energ DENC   =    -18097.60718735
  -exchange      EXHF   =         0.00000000
  -V(xc)+E(xc)   XCENC  =        42.45443217
  PAW double counting   =      3692.15173346    -3390.49189382
  entropy T*S    EENTRO =         0.00000000
  eigenvalues    EBANDS =     -1767.29225725
  atomic energy  EATOM  =      7250.85976021
  Solvation  Ediel_sol  =         0.00000000
  ---------------------------------------------------
  free energy    TOTEN  =      -114.92150284 eV

  energy without entropy =     -114.92150284  energy(sigma->0) =     -114.92150284


--------------------------------------------------------------------------------------------------------




--------------------------------------- Iteration      1(   5)  ---------------------------------------


     EDDAV:  cpu time    3.8495: real time    3.8713
 BZINTS: Fermi energy: -3.395971;144.000000 electrons
         Band energy:***********;  BLOECHL correction:  0.000000
       DOS:  cpu time    0.0020: real time    0.0020
    CHARGE:  cpu time    0.1580: real time    0.1585
    MIXING:  cpu time    0.0054: real time    0.0058
    --------------------------------------------
      LOOP:  cpu time    4.0149: real time    4.0376

 eigenvalue-minimisations  :  4184
 total energy-change (2. order) :-0.2827172E+00  (-0.2826322E+00)
 number of electron     144.0000001 magnetization 
 augmentation part      -17.5548417 magnetization 

 Broyden mixing:
  rms(total) = 0.91251E+00    rms(broyden)= 0.91250E+00
  rms(prec ) = 0.11928E+01
  weight for this iteration     100.00

 Free energy of the ion-electron system (eV)
  ---------------------------------------------------
  alpha Z        PSCENC =       170.45750602
  Ewald energy   TEWEN  =     11984.54640372
  -Hartree energ DENC   =    -18097.60718735
  -exchange      EXHF   =         0.00000000
  -V(xc)+E(xc)   XCENC  =        42.45443217
  PAW double counting   =      3692.15173346    -3390.49189382
  entropy T*S    EENTRO =         0.00000000
  eigenvalues    EBANDS =     -1767.57497445
  atomic energy  EATOM  =      7250.85976021
  Solvation  Ediel_sol  =         0.00000000
  ---------------------------------------------------
  free energy    TOTEN  =      -115.20422004 eV

  energy without entropy =     -115.20422004  energy(sigma->0) =     -115.20422004


--------------------------------------------------------------------------------------------------------




--------------------------------------- Iteration      1(   6)  ---------------------------------------


    POTLOK:  cpu time    0.0599: real time    0.0707
    SETDIJ:  cpu time    0.0066: real time    0.0066
     EDDAV:  cpu time    2.7604: real time    2.7670
 BZINTS: Fermi energy: -2.213066;144.000000 electrons
         Band energy:***********;  BLOECHL correction:  0.000000
       DOS:  cpu time    0.0024: real time    0.0024
    CHARGE:  cpu time    0.1498: real time    0.1502
    MIXING:  cpu time    0.0077: real time    0.0078
    --------------------------------------------
      LOOP:  cpu time    2.9869: real time    3.0046

 eigenvalue-minimisations  :  3000
 total energy-change (2. order) : 0.8256030E+01  (-0.2040963E+01)
 number of electron     144.0000000 magnetization 
 augmentation part      -17.4450672 magnetization 

 Broyden mixing:
  rms(total) = 0.46373E+00    rms(broyden)= 0.46373E+00
  rms(prec ) = 0.58577E+00
  weight for this iteration     100.00

 eigenvalues of (default mixing * dielectric matrix)
  average eigenvalue GAMMA=   1.5387
  1.5387

 Free energy of the ion-electron system (eV)
  ---------------------------------------------------
  alpha Z        PSCENC =       170.45750602
  Ewald energy   TEWEN  =     11984.54640372
  -Hartree energ DENC   =    -18193.68102293
  -exchange      EXHF   =         0.00000000
  -V(xc)+E(xc)   XCENC  =        45.22437050
  PAW double counting   =      3728.90551925    -3434.40925739
  entropy T*S    EENTRO =         0.00000000
  eigenvalues    EBANDS =     -1658.85146897
  atomic energy  EATOM  =      7250.85976021
  Solvation  Ediel_sol  =         0.00000000
  ---------------------------------------------------
  free energy    TOTEN  =      -106.94818959 eV

  energy without entropy =     -106.94818959  energy(sigma->0) =     -106.94818959


--------------------------------------------------------------------------------------------------------




--------------------------------------- Iteration      1(   7)  ---------------------------------------


    POTLOK:  cpu time    0.0585: real time    0.0694
    SETDIJ:  cpu time    0.0052: real time    0.0052
     EDDAV:  cpu time    3.4933: real time    3.5016
 BZINTS: Fermi energy: -1.425357;144.000000 electrons
         Band energy:***********;  BLOECHL correction:  0.000000
       DOS:  cpu time    0.0022: real time    0.0022
    CHARGE:  cpu time    0.1792: real time    0.1796
    MIXING:  cpu time    0.0048: real time    0.0050
    --------------------------------------------
      LOOP:  cpu time    3.7431: real time    3.7629

 eigenvalue-minimisations  :  3480
 total energy-change (2. order) : 0.1348246E+01  (-0.9742908E+00)
 number of electron     144.0000000 magnetization 
 augmentation part      -17.5302790 magnetization 

 Broyden mixing:
  rms(total) = 0.24397E+00    rms(broyden)= 0.24397E+00
  rms(prec ) = 0.29591E+00
  weight for this iteration     100.00

 eigenvalues of (default mixing * dielectric matrix)
  average eigenvalue GAMMA=   1.8464
  1.8464  1.8464

 Free energy of the ion-electron system (eV)
  ---------------------------------------------------
  alpha Z        PSCENC =       170.45750602
  Ewald energy   TEWEN  =     11984.54640372
  -Hartree energ DENC   =    -18273.17664872
  -exchange      EXHF   =         0.00000000
  -V(xc)+E(xc)   XCENC  =        47.50284791
  PAW double counting   =      3775.72019444    -3487.05377958
  entropy T*S    EENTRO =         0.00000000
  eigenvalues    EBANDS =     -1574.45622774
  atomic energy  EATOM  =      7250.85976021
  Solvation  Ediel_sol  =         0.00000000
  ---------------------------------------------------
  free energy    TOTEN  =      -105.59994374 eV

  energy without entropy =     -105.59994374  energy(sigma->0) =     -105.59994374


--------------------------------------------------------------------------------------------------------




--------------------------------------- Iteration      1(   8)  ---------------------------------------


    POTLOK:  cpu time    0.0646: real time    0.0756
    SETDIJ:  cpu time    0.0017: real time    0.0017
     EDDAV:  cpu time    3.1724: real time    3.1799
 BZINTS: Fermi energy: -1.251917;144.000000 electrons
         Band energy:***********;  BLOECHL correction:  0.000000
       DOS:  cpu time    0.0021: real time    0.0021
    CHARGE:  cpu time    0.1798: real time    0.1802
    MIXING:  cpu time    0.0055: real time    0.0060
    --------------------------------------------
      LOOP:  cpu time    3.4262: real time    3.4456

 eigenvalue-minimisations  :  3120
 total energy-change (2. order) : 0.2282107E+00  (-0.3485864E+00)
 number of electron     144.0000000 magnetization 
 augmentation part      -17.6573467 magnetization 

 Broyden mixing:
  rms(total) = 0.11536E+00    rms(broyden)= 0.11536E+00
  rms(prec ) = 0.18944E+00
  weight for this iteration     100.00

 eigenvalues of (default mixing * dielectric matrix)
  average eigenvalue GAMMA=   1.6769
  2.6105  1.2101  1.2101

 Free energy of the ion-electron system (eV)
  ---------------------------------------------------
  alpha Z        PSCENC =       170.45750602
  Ewald energy   TEWEN  =     11984.54640372
  -Hartree energ DENC   =    -18310.27620520
  -exchange      EXHF   =         0.00000000
  -V(xc)+E(xc)   XCENC  =        48.45876168
  PAW double counting   =      3825.22353657    -3538.38168981
  entropy T*S    EENTRO =         0.00000000
  eigenvalues    EBANDS =     -1536.25980620
  atomic energy  EATOM  =      7250.85976021
  Solvation  Ediel_sol  =         0.00000000
  ---------------------------------------------------
  free energy    TOTEN  =      -105.37173300 eV

  energy without entropy =     -105.37173300  energy(sigma->0) =     -105.37173300


--------------------------------------------------------------------------------------------------------




--------------------------------------- Iteration      1(   9)  ---------------------------------------


    POTLOK:  cpu time    0.0609: real time    0.0719
    SETDIJ:  cpu time    0.0024: real time    0.0024
     EDDAV:  cpu time    2.8371: real time    2.8438
 BZINTS: Fermi energy: -0.833203;144.000000 electrons
         Band energy:***********;  BLOECHL correction:  0.000000
       DOS:  cpu time    0.0025: real time    0.0025
    CHARGE:  cpu time    0.1425: real time    0.1428
    MIXING:  cpu time    0.0047: real time    0.0047
    --------------------------------------------
      LOOP:  cpu time    3.0501: real time    3.0683

 eigenvalue-minimisations  :  3112
 total energy-change (2. order) : 0.2757833E+00  (-0.1167094E+00)
 number of electron     144.0000000 magnetization 
 augmentation part      -17.6331245 magnetization 

 Broyden mixing:
  rms(total) = 0.57301E-01    rms(broyden)= 0.57301E-01
  rms(prec ) = 0.81910E-01
  weight for this iteration     100.00

 eigenvalues of (default mixing * dielectric matrix)
  average eigenvalue GAMMA=   1.4127
  2.5339  1.2100  1.2100  0.6966

 Free energy of the ion-electron system (eV)
  ---------------------------------------------------
  alpha Z        PSCENC =       170.45750602
  Ewald energy   TEWEN  =     11984.54640372
  -Hartree energ DENC   =    -18351.89651892
  -exchange      EXHF   =         0.00000000
  -V(xc)+E(xc)   XCENC  =        49.39481041
  PAW double counting   =      3836.42368175    -3550.93130020
  entropy T*S    EENTRO =         0.00000000
  eigenvalues    EBANDS =     -1493.95029265
  atomic energy  EATOM  =      7250.85976021
  Solvation  Ediel_sol  =         0.00000000
  ---------------------------------------------------
  free energy    TOTEN  =      -105.09594966 eV

  energy without entropy =     -105.09594966  energy(sigma->0) =     -105.09594966


--------------------------------------------------------------------------------------------------------




--------------------------------------- Iteration      1(  10)  ---------------------------------------


    POTLOK:  cpu time    0.0587: real time    0.0697
    SETDIJ:  cpu time    0.0021: real time    0.0021
     EDDAV:  cpu time    3.2823: real time    3.2900
 BZINTS: Fermi energy: -0.753245;144.000000 electrons
         Band energy:***********;  BLOECHL correction:  0.000000
       DOS:  cpu time    0.0021: real time    0.0021
    CHARGE:  cpu time    0.1523: real time    0.1526
    MIXING:  cpu time    0.0078: real time    0.0079
    --------------------------------------------
      LOOP:  cpu time    3.5052: real time    3.5244

 eigenvalue-minimisations  :  3488
 total energy-change (2. order) :-0.1657360E-01  (-0.2387125E-01)
 number of electron     144.0000000 magnetization 
 augmentation part      -17.6551962 magnetization 

 Broyden mixing:
  rms(total) = 0.42136E-01    rms(broyden)= 0.42136E-01
  rms(prec ) = 0.63386E-01
  weight for this iteration     100.00

 eigenvalues of (default mixing * dielectric matrix)
  average eigenvalue GAMMA=   1.6087
  2.5004  2.5004  1.1046  0.9690  0.9690

 Free energy of the ion-electron system (eV)
  ---------------------------------------------------
  alpha Z        PSCENC =       170.45750602
  Ewald energy   TEWEN  =     11984.54640372
  -Hartree energ DENC   =    -18361.77177250
  -exchange      EXHF   =         0.00000000
  -V(xc)+E(xc)   XCENC  =        49.39930306
  PAW double counting   =      3831.54228649    -3545.69447576
  entropy T*S    EENTRO =         0.00000000
  eigenvalues    EBANDS =     -1484.45153450
  atomic energy  EATOM  =      7250.85976021
  Solvation  Ediel_sol  =         0.00000000
  ---------------------------------------------------
  free energy    TOTEN  =      -105.11252325 eV

  energy without entropy =     -105.11252325  energy(sigma->0) =     -105.11252325


--------------------------------------------------------------------------------------------------------




--------------------------------------- Iteration      1(  11)  ---------------------------------------


    POTLOK:  cpu time    0.0672: real time    0.0786
    SETDIJ:  cpu time    0.0017: real time    0.0017
     EDDAV:  cpu time    3.1057: real time    3.1131
 BZINTS: Fermi energy: -0.650299;144.000000 electrons
         Band energy:***********;  BLOECHL correction:  0.000000
       DOS:  cpu time    0.0026: real time    0.0026
    CHARGE:  cpu time    0.1604: real time    0.1607
    MIXING:  cpu time    0.0060: real time    0.0061
    --------------------------------------------
      LOOP:  cpu time    3.3437: real time    3.3629

 eigenvalue-minimisations  :  3120
 total energy-change (2. order) : 0.8781727E-02  (-0.6769800E-02)
 number of electron     144.0000000 magnetization 
 augmentation part      -17.6596391 magnetization 

 Broyden mixing:
  rms(total) = 0.16519E-01    rms(broyden)= 0.16519E-01
  rms(prec ) = 0.32820E-01
  weight for this iteration     100.00

 eigenvalues of (default mixing * dielectric matrix)
  average eigenvalue GAMMA=   1.6255
  2.8328  2.8328  1.2124  0.9413  0.9670  0.9670

 Free energy of the ion-electron system (eV)
  ---------------------------------------------------
  alpha Z        PSCENC =       170.45750602
  Ewald energy   TEWEN  =     11984.54640372
  -Hartree energ DENC   =    -18381.94012122
  -exchange      EXHF   =         0.00000000
  -V(xc)+E(xc)   XCENC  =        49.58257437
  PAW double counting   =      3832.42196345    -3546.25328956
  entropy T*S    EENTRO =         0.00000000
  eigenvalues    EBANDS =     -1464.77853851
  atomic energy  EATOM  =      7250.85976021
  Solvation  Ediel_sol  =         0.00000000
  ---------------------------------------------------
  free energy    TOTEN  =      -105.10374153 eV

  energy without entropy =     -105.10374153  energy(sigma->0) =     -105.10374153


--------------------------------------------------------------------------------------------------------




--------------------------------------- Iteration      1(  12)  ---------------------------------------


    POTLOK:  cpu time    0.0743: real time    0.0855
    SETDIJ:  cpu time    0.0017: real time    0.0017
     EDDAV:  cpu time    2.9265: real time    2.9333
 BZINTS: Fermi energy: -0.572017;144.000000 electrons
         Band energy:***********;  BLOECHL correction:  0.000000
       DOS:  cpu time    0.0025: real time    0.0025
    CHARGE:  cpu time    0.1555: real time    0.1559
    MIXING:  cpu time    0.0059: real time    0.0059
    --------------------------------------------
      LOOP:  cpu time    3.1663: real time    3.1849

 eigenvalue-minimisations  :  3096
 total energy-change (2. order) :-0.4973080E-02  (-0.1572870E-02)
 number of electron     144.0000000 magnetization 
 augmentation part      -17.6538402 magnetization 

 Broyden mixing:
  rms(total) = 0.12471E-01    rms(broyden)= 0.12471E-01
  rms(prec ) = 0.21431E-01
  weight for this iteration     100.00

 eigenvalues of (default mixing * dielectric matrix)
  average eigenvalue GAMMA=   1.7819
  3.8336  2.5519  2.0291  1.1262  1.1262  0.9030  0.9030

 Free energy of the ion-electron system (eV)
  ---------------------------------------------------
  alpha Z        PSCENC =       170.45750602
  Ewald energy   TEWEN  =     11984.54640372
  -Hartree energ DENC   =    -18394.85826384
  -exchange      EXHF   =         0.00000000
  -V(xc)+E(xc)   XCENC  =        49.65101707
  PAW double counting   =      3830.11584365    -3543.80424038
  entropy T*S    EENTRO =         0.00000000
  eigenvalues    EBANDS =     -1452.07674106
  atomic energy  EATOM  =      7250.85976021
  Solvation  Ediel_sol  =         0.00000000
  ---------------------------------------------------
  free energy    TOTEN  =      -105.10871461 eV

  energy without entropy =     -105.10871461  energy(sigma->0) =     -105.10871461


--------------------------------------------------------------------------------------------------------




--------------------------------------- Iteration      1(  13)  ---------------------------------------


    POTLOK:  cpu time    0.0645: real time    0.0752
    SETDIJ:  cpu time    0.0018: real time    0.0018
     EDDAV:  cpu time    3.2761: real time    3.2838
 BZINTS: Fermi energy: -0.480715;144.000000 electrons
         Band energy:***********;  BLOECHL correction:  0.000000
       DOS:  cpu time    0.0020: real time    0.0020
    CHARGE:  cpu time    0.1645: real time    0.1649
    MIXING:  cpu time    0.0056: real time    0.0057
    --------------------------------------------
      LOOP:  cpu time    3.5145: real time    3.5334

 eigenvalue-minimisations  :  3224
 total energy-change (2. order) :-0.9711913E-02  (-0.1025712E-02)
 number of electron     144.0000000 magnetization 
 augmentation part      -17.6556803 magnetization 

 Broyden mixing:
  rms(total) = 0.64874E-02    rms(broyden)= 0.64874E-02
  rms(prec ) = 0.11108E-01
  weight for this iteration     100.00

 eigenvalues of (default mixing * dielectric matrix)
  average eigenvalue GAMMA=   1.8338
  4.2217  2.9187  2.4127  1.2224  1.2224  0.8969  0.8877  0.8877

 Free energy of the ion-electron system (eV)
  ---------------------------------------------------
  alpha Z        PSCENC =       170.45750602
  Ewald energy   TEWEN  =     11984.54640372
  -Hartree energ DENC   =    -18405.84978228
  -exchange      EXHF   =         0.00000000
  -V(xc)+E(xc)   XCENC  =        49.70735723
  PAW double counting   =      3828.32502537    -3542.12609783
  entropy T*S    EENTRO =         0.00000000
  eigenvalues    EBANDS =     -1441.03859896
  atomic energy  EATOM  =      7250.85976021
  Solvation  Ediel_sol  =         0.00000000
  ---------------------------------------------------
  free energy    TOTEN  =      -105.11842652 eV

  energy without entropy =     -105.11842652  energy(sigma->0) =     -105.11842652


--------------------------------------------------------------------------------------------------------




--------------------------------------- Iteration      1(  14)  ---------------------------------------


    POTLOK:  cpu time    0.0619: real time    0.0730
    SETDIJ:  cpu time    0.0016: real time    0.0016
     EDDAV:  cpu time    3.1201: real time    3.1274
 BZINTS: Fermi energy: -0.464369;144.000000 electrons
         Band energy:***********;  BLOECHL correction:  0.000000
       DOS:  cpu time    0.0021: real time    0.0021
    CHARGE:  cpu time    0.1535: real time    0.1539
    MIXING:  cpu time    0.0055: real time    0.0056
    --------------------------------------------
      LOOP:  cpu time    3.3448: real time    3.3636

 eigenvalue-minimisations  :  3104
 total energy-change (2. order) :-0.5410742E-02  (-0.2903125E-03)
 number of electron     144.0000000 magnetization 
 augmentation part      -17.6563947 magnetization 

 Broyden mixing:
  rms(total) = 0.54589E-02    rms(broyden)= 0.54588E-02
  rms(prec ) = 0.87418E-02
  weight for this iteration     100.00

 eigenvalues of (default mixing * dielectric matrix)
  average eigenvalue GAMMA=   1.8694
  4.6454  3.1484  2.1075  1.6033  1.4357  0.9115  0.9115  1.0305  1.0305

 Free energy of the ion-electron system (eV)
  ---------------------------------------------------
  alpha Z        PSCENC =       170.45750602
  Ewald energy   TEWEN  =     11984.54640372
  -Hartree energ DENC   =    -18409.21019093
  -exchange      EXHF   =         0.00000000
  -V(xc)+E(xc)   XCENC  =        49.70660470
  PAW double counting   =      3827.43666423    -3541.24876973
  entropy T*S    EENTRO =         0.00000000
  eigenvalues    EBANDS =     -1437.67181549
  atomic energy  EATOM  =      7250.85976021
  Solvation  Ediel_sol  =         0.00000000
  ---------------------------------------------------
  free energy    TOTEN  =      -105.12383726 eV

  energy without entropy =     -105.12383726  energy(sigma->0) =     -105.12383726


--------------------------------------------------------------------------------------------------------




--------------------------------------- Iteration      1(  15)  ---------------------------------------


    POTLOK:  cpu time    0.0660: real time    0.0773
    SETDIJ:  cpu time    0.0017: real time    0.0017
     EDDAV:  cpu time    2.8194: real time    2.8261
 BZINTS: Fermi energy: -0.455433;144.000000 electrons
         Band energy:***********;  BLOECHL correction:  0.000000
       DOS:  cpu time    0.0024: real time    0.0024
    CHARGE:  cpu time    0.1803: real time    0.1807
    MIXING:  cpu time    0.0063: real time    0.0063
    --------------------------------------------
      LOOP:  cpu time    3.0761: real time    3.0945

 eigenvalue-minimisations  :  3016
 total energy-change (2. order) :-0.1984321E-02  (-0.1803518E-03)
 number of electron     144.0000000 magnetization 
 augmentation part      -17.6581405 magnetization 

 Broyden mixing:
  rms(total) = 0.20828E-02    rms(broyden)= 0.20828E-02
  rms(prec ) = 0.39892E-02
  weight for this iteration     100.00

 eigenvalues of (default mixing * dielectric matrix)
  average eigenvalue GAMMA=   1.9653
  5.4250  3.6380  2.4490  1.7345  0.9084  0.9084  1.2677  1.2677  1.0269  1.0269

 Free energy of the ion-electron system (eV)
  ---------------------------------------------------
  alpha Z        PSCENC =       170.45750602
  Ewald energy   TEWEN  =     11984.54640372
  -Hartree energ DENC   =    -18410.87611070
  -exchange      EXHF   =         0.00000000
  -V(xc)+E(xc)   XCENC  =        49.70043600
  PAW double counting   =      3827.90709720    -3541.68546694
  entropy T*S    EENTRO =         0.00000000
  eigenvalues    EBANDS =     -1436.03544709
  atomic energy  EATOM  =      7250.85976021
  Solvation  Ediel_sol  =         0.00000000
  ---------------------------------------------------
  free energy    TOTEN  =      -105.12582158 eV

  energy without entropy =     -105.12582158  energy(sigma->0) =     -105.12582158


--------------------------------------------------------------------------------------------------------




--------------------------------------- Iteration      1(  16)  ---------------------------------------


    POTLOK:  cpu time    0.0731: real time    0.0849
    SETDIJ:  cpu time    0.0016: real time    0.0016
     EDDAV:  cpu time    3.0661: real time    3.0733
 BZINTS: Fermi energy: -0.449303;144.000000 electrons
         Band energy:***********;  BLOECHL correction:  0.000000
       DOS:  cpu time    0.0022: real time    0.0022
    CHARGE:  cpu time    0.1602: real time    0.1605
    MIXING:  cpu time    0.0060: real time    0.0061
    --------------------------------------------
      LOOP:  cpu time    3.3092: real time    3.3287

 eigenvalue-minimisations  :  3120
 total energy-change (2. order) :-0.9722124E-03  (-0.6632448E-04)
 number of electron     144.0000000 magnetization 
 augmentation part      -17.6580837 magnetization 

 Broyden mixing:
  rms(total) = 0.15041E-02    rms(broyden)= 0.15041E-02
  rms(prec ) = 0.26934E-02
  weight for this iteration     100.00

 eigenvalues of (default mixing * dielectric matrix)
  average eigenvalue GAMMA=   2.0189
  5.6920  4.0457  2.4788  1.8112  1.8112  0.9119  0.9119  1.2768  1.2768  0.9956
  0.9956

 Free energy of the ion-electron system (eV)
  ---------------------------------------------------
  alpha Z        PSCENC =       170.45750602
  Ewald energy   TEWEN  =     11984.54640372
  -Hartree energ DENC   =    -18412.20402321
  -exchange      EXHF   =         0.00000000
  -V(xc)+E(xc)   XCENC  =        49.69759917
  PAW double counting   =      3828.07766941    -3541.86495168
  entropy T*S    EENTRO =         0.00000000
  eigenvalues    EBANDS =     -1434.69675744
  atomic energy  EATOM  =      7250.85976021
  Solvation  Ediel_sol  =         0.00000000
  ---------------------------------------------------
  free energy    TOTEN  =      -105.12679380 eV

  energy without entropy =     -105.12679380  energy(sigma->0) =     -105.12679380


--------------------------------------------------------------------------------------------------------




--------------------------------------- Iteration      1(  17)  ---------------------------------------


    POTLOK:  cpu time    0.0688: real time    0.0794
    SETDIJ:  cpu time    0.0017: real time    0.0017
     EDDAV:  cpu time    3.0198: real time    3.0269
 BZINTS: Fermi energy: -0.445123;144.000000 electrons
         Band energy:***********;  BLOECHL correction:  0.000000
       DOS:  cpu time    0.0025: real time    0.0025
    CHARGE:  cpu time    0.1577: real time    0.1581
    MIXING:  cpu time    0.0082: real time    0.0082
    --------------------------------------------
      LOOP:  cpu time    3.2587: real time    3.2768

 eigenvalue-minimisations  :  3136
 total energy-change (2. order) :-0.4778298E-03  (-0.2564899E-04)
 number of electron     144.0000000 magnetization 
 augmentation part      -17.6580153 magnetization 

 Broyden mixing:
  rms(total) = 0.90473E-03    rms(broyden)= 0.90473E-03
  rms(prec ) = 0.17250E-02
  weight for this iteration     100.00

 eigenvalues of (default mixing * dielectric matrix)
  average eigenvalue GAMMA=   2.0410
  5.9932  4.3494  2.7460  2.1814  1.6845  0.9109  0.9109  1.3328  1.3328  0.9577
  1.0464  1.0464

 Free energy of the ion-electron system (eV)
  ---------------------------------------------------
  alpha Z        PSCENC =       170.45750602
  Ewald energy   TEWEN  =     11984.54640372
  -Hartree energ DENC   =    -18413.18573022
  -exchange      EXHF   =         0.00000000
  -V(xc)+E(xc)   XCENC  =        49.69956147
  PAW double counting   =      3828.08894149    -3541.87382533
  entropy T*S    EENTRO =         0.00000000
  eigenvalues    EBANDS =     -1433.71988898
  atomic energy  EATOM  =      7250.85976021
  Solvation  Ediel_sol  =         0.00000000
  ---------------------------------------------------
  free energy    TOTEN  =      -105.12727163 eV

  energy without entropy =     -105.12727163  energy(sigma->0) =     -105.12727163


--------------------------------------------------------------------------------------------------------




--------------------------------------- Iteration      1(  18)  ---------------------------------------


    POTLOK:  cpu time    0.0609: real time    0.0723
    SETDIJ:  cpu time    0.0039: real time    0.0039
     EDDAV:  cpu time    2.9112: real time    2.9181
 BZINTS: Fermi energy: -0.445057;144.000000 electrons
         Band energy:***********;  BLOECHL correction:  0.000000
       DOS:  cpu time    0.0022: real time    0.0022
    CHARGE:  cpu time    0.1526: real time    0.1529
    MIXING:  cpu time    0.0078: real time    0.0079
    --------------------------------------------
      LOOP:  cpu time    3.1386: real time    3.1573

 eigenvalue-minimisations  :  2984
 total energy-change (2. order) :-0.6715707E-03  (-0.1350007E-04)
 number of electron     144.0000000 magnetization 
 augmentation part      -17.6578989 magnetization 

 Broyden mixing:
  rms(total) = 0.56292E-03    rms(broyden)= 0.56292E-03
  rms(prec ) = 0.10314E-02
  weight for this iteration     100.00

 eigenvalues of (default mixing * dielectric matrix)
  average eigenvalue GAMMA=   2.1158
  6.3327  4.9554  2.9653  2.4893  1.8501  0.9101  0.9101  1.4071  1.4071  1.1739
  1.1739  0.9653  0.9653

 Free energy of the ion-electron system (eV)
  ---------------------------------------------------
  alpha Z        PSCENC =       170.45750602
  Ewald energy   TEWEN  =     11984.54640372
  -Hartree energ DENC   =    -18413.76091887
  -exchange      EXHF   =         0.00000000
  -V(xc)+E(xc)   XCENC  =        49.70099811
  PAW double counting   =      3828.06967771    -3541.85281594
  entropy T*S    EENTRO =         0.00000000
  eigenvalues    EBANDS =     -1433.14855416
  atomic energy  EATOM  =      7250.85976021
  Solvation  Ediel_sol  =         0.00000000
  ---------------------------------------------------
  free energy    TOTEN  =      -105.12794320 eV

  energy without entropy =     -105.12794320  energy(sigma->0) =     -105.12794320


--------------------------------------------------------------------------------------------------------




--------------------------------------- Iteration      1(  19)  ---------------------------------------


    POTLOK:  cpu time    0.0617: real time    0.0728
    SETDIJ:  cpu time    0.0026: real time    0.0026
     EDDAV:  cpu time    2.6000: real time    2.6061
 BZINTS: Fermi energy: -0.447464;144.000000 electrons
         Band energy:***********;  BLOECHL correction:  0.000000
       DOS:  cpu time    0.0022: real time    0.0022
    CHARGE:  cpu time    0.1581: real time    0.1585
    MIXING:  cpu time    0.0062: real time    0.0062
    --------------------------------------------
      LOOP:  cpu time    2.8308: real time    2.8484

 eigenvalue-minimisations  :  2616
 total energy-change (2. order) :-0.6422771E-03  (-0.7338461E-05)
 number of electron     144.0000000 magnetization 
 augmentation part      -17.6580303 magnetization 

 Broyden mixing:
  rms(total) = 0.42970E-03    rms(broyden)= 0.42970E-03
  rms(prec ) = 0.64208E-03
  weight for this iteration     100.00

 eigenvalues of (default mixing * dielectric matrix)
  average eigenvalue GAMMA=   2.2177
  6.7049  5.6037  3.3568  2.7002  2.1558  1.6224  1.6224  0.9101  0.9101  1.2305
  1.2305  0.9689  1.0155  1.0155

 Free energy of the ion-electron system (eV)
  ---------------------------------------------------
  alpha Z        PSCENC =       170.45750602
  Ewald energy   TEWEN  =     11984.54640372
  -Hartree energ DENC   =    -18414.07560920
  -exchange      EXHF   =         0.00000000
  -V(xc)+E(xc)   XCENC  =        49.69997102
  PAW double counting   =      3828.02093581    -3541.80243929
  entropy T*S    EENTRO =         0.00000000
  eigenvalues    EBANDS =     -1432.83511378
  atomic energy  EATOM  =      7250.85976021
  Solvation  Ediel_sol  =         0.00000000
  ---------------------------------------------------
  free energy    TOTEN  =      -105.12858547 eV

  energy without entropy =     -105.12858547  energy(sigma->0) =     -105.12858547


--------------------------------------------------------------------------------------------------------




--------------------------------------- Iteration      1(  20)  ---------------------------------------


    POTLOK:  cpu time    0.0634: real time    0.0736
    SETDIJ:  cpu time    0.0019: real time    0.0019
     EDDAV:  cpu time    2.5276: real time    2.5335
 BZINTS: Fermi energy: -0.451280;144.000000 electrons
         Band energy:***********;  BLOECHL correction:  0.000000
       DOS:  cpu time    0.0022: real time    0.0022
    CHARGE:  cpu time    0.1433: real time    0.1437
    MIXING:  cpu time    0.0067: real time    0.0068
    --------------------------------------------
      LOOP:  cpu time    2.7450: real time    2.7616

 eigenvalue-minimisations  :  2616
 total energy-change (2. order) :-0.4449107E-03  (-0.7466897E-05)
 number of electron     144.0000000 magnetization 
 augmentation part      -17.6580945 magnetization 

 Broyden mixing:
  rms(total) = 0.17141E-03    rms(broyden)= 0.17141E-03
  rms(prec ) = 0.24648E-03
  weight for this iteration     100.00

 eigenvalues of (default mixing * dielectric matrix)
  average eigenvalue GAMMA=   2.3141
  7.5269  6.3690  3.5197  3.0864  2.3460  1.6671  1.6671  0.9102  0.9102  1.2769
  1.2769  1.1156  1.1156  0.9622  0.9622

 Free energy of the ion-electron system (eV)
  ---------------------------------------------------
  alpha Z        PSCENC =       170.45750602
  Ewald energy   TEWEN  =     11984.54640372
  -Hartree energ DENC   =    -18414.20874202
  -exchange      EXHF   =         0.00000000
  -V(xc)+E(xc)   XCENC  =        49.69976463
  PAW double counting   =      3828.01477162    -3541.79631944
  entropy T*S    EENTRO =         0.00000000
  eigenvalues    EBANDS =     -1432.70217514
  atomic energy  EATOM  =      7250.85976021
  Solvation  Ediel_sol  =         0.00000000
  ---------------------------------------------------
  free energy    TOTEN  =      -105.12903038 eV

  energy without entropy =     -105.12903038  energy(sigma->0) =     -105.12903038


--------------------------------------------------------------------------------------------------------




--------------------------------------- Iteration      1(  21)  ---------------------------------------


    POTLOK:  cpu time    0.0585: real time    0.0688
    SETDIJ:  cpu time    0.0032: real time    0.0032
     EDDAV:  cpu time    2.5756: real time    2.5816
 BZINTS: Fermi energy: -0.456027;144.000000 electrons
         Band energy:***********;  BLOECHL correction:  0.000000
       DOS:  cpu time    0.0024: real time    0.0024
    CHARGE:  cpu time    0.1623: real time    0.1627
    MIXING:  cpu time    0.0065: real time    0.0065
    --------------------------------------------
      LOOP:  cpu time    2.8084: real time    2.8253

 eigenvalue-minimisations  :  2424
 total energy-change (2. order) :-0.1431159E-03  (-0.2150676E-05)
 number of electron     144.0000000 magnetization 
 augmentation part      -17.6580663 magnetization 

 Broyden mixing:
  rms(total) = 0.10257E-03    rms(broyden)= 0.10257E-03
  rms(prec ) = 0.12456E-03
  weight for this iteration     100.00

 eigenvalues of (default mixing * dielectric matrix)
  average eigenvalue GAMMA=   2.3756
  8.5678  6.6013  3.7524  3.1696  2.3853  1.8967  1.8967  0.9102  0.9102  1.2998
  1.2998  1.1883  1.1883  0.9773  0.9773  0.9894

 Free energy of the ion-electron system (eV)
  ---------------------------------------------------
  alpha Z        PSCENC =       170.45750602
  Ewald energy   TEWEN  =     11984.54640372
  -Hartree energ DENC   =    -18414.17379596
  -exchange      EXHF   =         0.00000000
  -V(xc)+E(xc)   XCENC  =        49.69910111
  PAW double counting   =      3828.01728019    -3541.79947632
  entropy T*S    EENTRO =         0.00000000
  eigenvalues    EBANDS =     -1432.73595246
  atomic energy  EATOM  =      7250.85976021
  Solvation  Ediel_sol  =         0.00000000
  ---------------------------------------------------
  free energy    TOTEN  =      -105.12917350 eV

  energy without entropy =     -105.12917350  energy(sigma->0) =     -105.12917350


--------------------------------------------------------------------------------------------------------




--------------------------------------- Iteration      1(  22)  ---------------------------------------


    POTLOK:  cpu time    0.0622: real time    0.0733
    SETDIJ:  cpu time    0.0016: real time    0.0016
     EDDAV:  cpu time    2.5183: real time    2.5242
 BZINTS: Fermi energy: -0.460260;144.000000 electrons
         Band energy:***********;  BLOECHL correction:  0.000000
       DOS:  cpu time    0.0022: real time    0.0022
    CHARGE:  cpu time    0.1541: real time    0.1545
    MIXING:  cpu time    0.0077: real time    0.0078
    --------------------------------------------
      LOOP:  cpu time    2.7462: real time    2.7636

 eigenvalue-minimisations  :  2384
 total energy-change (2. order) :-0.3063782E-04  (-0.2635386E-06)
 number of electron     144.0000000 magnetization 
 augmentation part      -17.6580620 magnetization 

 Broyden mixing:
  rms(total) = 0.50666E-04    rms(broyden)= 0.50666E-04
  rms(prec ) = 0.64334E-04
  weight for this iteration     100.00

 eigenvalues of (default mixing * dielectric matrix)
  average eigenvalue GAMMA=   2.3817
  8.9227  6.8707  3.8254  3.3513  2.5357  2.0816  1.8131  0.9102  0.9102  1.4135
  1.2726  1.2726  1.1595  1.1595  1.0795  0.9552  0.9552

 Free energy of the ion-electron system (eV)
  ---------------------------------------------------
  alpha Z        PSCENC =       170.45750602
  Ewald energy   TEWEN  =     11984.54640372
  -Hartree energ DENC   =    -18414.17810354
  -exchange      EXHF   =         0.00000000
  -V(xc)+E(xc)   XCENC  =        49.69892821
  PAW double counting   =      3828.00620323    -3541.78830982
  entropy T*S    EENTRO =         0.00000000
  eigenvalues    EBANDS =     -1432.73159217
  atomic energy  EATOM  =      7250.85976021
  Solvation  Ediel_sol  =         0.00000000
  ---------------------------------------------------
  free energy    TOTEN  =      -105.12920414 eV

  energy without entropy =     -105.12920414  energy(sigma->0) =     -105.12920414


--------------------------------------------------------------------------------------------------------




--------------------------------------- Iteration      1(  23)  ---------------------------------------


    POTLOK:  cpu time    0.0714: real time    0.0820
    SETDIJ:  cpu time    0.0016: real time    0.0016
     EDDAV:  cpu time    2.3169: real time    2.3223
 BZINTS: Fermi energy: -0.464166;144.000000 electrons
         Band energy:***********;  BLOECHL correction:  0.000000
       DOS:  cpu time    0.0025: real time    0.0025
    CHARGE:  cpu time    0.1584: real time    0.1587
    MIXING:  cpu time    0.0075: real time    0.0075
    --------------------------------------------
      LOOP:  cpu time    2.5583: real time    2.5748

 eigenvalue-minimisations  :  2112
 total energy-change (2. order) :-0.1613220E-04  (-0.1466042E-06)
 number of electron     144.0000000 magnetization 
 augmentation part      -17.6580619 magnetization 

 Broyden mixing:
  rms(total) = 0.23054E-04    rms(broyden)= 0.23054E-04
  rms(prec ) = 0.30101E-04
  weight for this iteration     100.00

 eigenvalues of (default mixing * dielectric matrix)
  average eigenvalue GAMMA=   2.3616
  8.9968  6.9616  3.6896  3.6896  2.5269  2.1438  1.8738  1.8738  0.9102  0.9102
  1.2676  1.2676  1.2047  1.2047  0.9759  0.9759  1.0329  1.0041

 Free energy of the ion-electron system (eV)
  ---------------------------------------------------
  alpha Z        PSCENC =       170.45750602
  Ewald energy   TEWEN  =     11984.54640372
  -Hartree energ DENC   =    -18414.16975705
  -exchange      EXHF   =         0.00000000
  -V(xc)+E(xc)   XCENC  =        49.69887425
  PAW double counting   =      3828.00688166    -3541.78900184
  entropy T*S    EENTRO =         0.00000000
  eigenvalues    EBANDS =     -1432.73988724
  atomic energy  EATOM  =      7250.85976021
  Solvation  Ediel_sol  =         0.00000000
  ---------------------------------------------------
  free energy    TOTEN  =      -105.12922027 eV

  energy without entropy =     -105.12922027  energy(sigma->0) =     -105.12922027


--------------------------------------------------------------------------------------------------------




--------------------------------------- Iteration      1(  24)  ---------------------------------------


    POTLOK:  cpu time    0.0634: real time    0.0744
    SETDIJ:  cpu time    0.0017: real time    0.0017
     EDDAV:  cpu time    2.0957: real time    2.1006
 BZINTS: Fermi energy: -0.381327;144.000000 electrons
         Band energy:***********;  BLOECHL correction:  0.000000
       DOS:  cpu time    0.0025: real time    0.0025
    CHARGE:  cpu time    0.1495: real time    0.1498
    MIXING:  cpu time    0.0078: real time    0.0078
    --------------------------------------------
      LOOP:  cpu time    2.3205: real time    2.3369

 eigenvalue-minimisations  :  1936
 total energy-change (2. order) :-0.2342779E-05  (-0.1565830E-07)
 number of electron     144.0000000 magnetization 
 augmentation part      -17.6580659 magnetization 

 Broyden mixing:
  rms(total) = 0.16691E-04    rms(broyden)= 0.16691E-04
  rms(prec ) = 0.24230E-04
  weight for this iteration     100.00

 eigenvalues of (default mixing * dielectric matrix)
  average eigenvalue GAMMA=   2.3682
  9.0582  7.0328  3.8307  3.8307  2.8452  2.3096  2.2469  1.6528  1.5463  0.9102
  0.9102  1.2578  1.2578  1.1526  1.1526  0.9627  0.9627  1.0381  1.0381

 Free energy of the ion-electron system (eV)
  ---------------------------------------------------
  alpha Z        PSCENC =       170.45750602
  Ewald energy   TEWEN  =     11984.54640372
  -Hartree energ DENC   =    -18414.16573685
  -exchange      EXHF   =         0.00000000
  -V(xc)+E(xc)   XCENC  =        49.69881323
  PAW double counting   =      3828.00805290    -3541.79014044
  entropy T*S    EENTRO =         0.00000000
  eigenvalues    EBANDS =     -1432.74388141
  atomic energy  EATOM  =      7250.85976021
  Solvation  Ediel_sol  =         0.00000000
  ---------------------------------------------------
  free energy    TOTEN  =      -105.12922261 eV

  energy without entropy =     -105.12922261  energy(sigma->0) =     -105.12922261


--------------------------------------------------------------------------------------------------------




--------------------------------------- Iteration      1(  25)  ---------------------------------------


    POTLOK:  cpu time    0.0648: real time    0.0753
    SETDIJ:  cpu time    0.0016: real time    0.0016
     EDDAV:  cpu time    2.2025: real time    2.2077
 BZINTS: Fermi energy: -0.384480;144.000000 electrons
         Band energy:***********;  BLOECHL correction:  0.000000
       DOS:  cpu time    0.0031: real time    0.0032
    CHARGE:  cpu time    0.1616: real time    0.1620
    MIXING:  cpu time    0.0080: real time    0.0081
    --------------------------------------------
      LOOP:  cpu time    2.4416: real time    2.4577

 eigenvalue-minimisations  :  1856
 total energy-change (2. order) :-0.1172629E-05  (-0.1690819E-07)
 number of electron     144.0000000 magnetization 
 augmentation part      -17.6580671 magnetization 

 Broyden mixing:
  rms(total) = 0.61249E-05    rms(broyden)= 0.61249E-05
  rms(prec ) = 0.89592E-05
  weight for this iteration     100.00

 eigenvalues of (default mixing * dielectric matrix)
  average eigenvalue GAMMA=   2.3329
  9.1095  7.0066  4.0008  3.7987  2.9685  2.5139  1.8950  1.8950  0.9102  0.9102
  1.4674  1.4674  1.2239  1.2239  1.1622  1.1622  1.0521  0.9715  0.9715  0.9482

 Free energy of the ion-electron system (eV)
  ---------------------------------------------------
  alpha Z        PSCENC =       170.45750602
[...]
     26     -13.6818      2.00000
     27     -13.2078      2.00000
     28     -13.1985      2.00000
     29     -13.1600      2.00000
     30     -13.1521      2.00000
     31     -13.1306      2.00000
     32     -13.1293      2.00000
     33     -11.0039      2.00000
     34     -10.9919      2.00000
     35     -10.6365      2.00000
     36     -10.6218      2.00000
     37      -6.3889      2.00000
     38      -6.3728      2.00000
     39      -6.1478      2.00000
     40      -6.1396      2.00000
     41      -6.0809      2.00000
     42      -6.0709      2.00000
     43      -5.8268      2.00000
     44      -5.8133      2.00000
     45      -5.7786      2.00000
     46      -5.7323      2.00000
     47      -5.6981      2.00000
     48      -5.5874      2.00000
     49      -2.7592      2.00000
     50      -2.6680      2.00000
     51      -2.5097      2.00000
     52      -2.4616      2.00000
     53      -2.1703      2.00000
     54      -2.0960      2.00000
     55      -2.0765      2.00000
     56      -2.0373      2.00000
     57      -1.8982      2.00000
     58      -1.8736      2.00000
     59      -1.7637      2.00000
     60      -1.6775      2.00000
     61      -1.6123      2.00000
     62      -1.5426      2.00000
     63      -1.4392      2.00000
     64      -1.3779      2.00000
     65      -1.2512      2.00000
     66      -1.1831      2.00000
     67      -1.1204      2.00000
     68      -0.9996      2.00000
     69      -0.8759      2.00000
     70      -0.7880      2.00000
     71      -0.7604      2.00000
     72      -0.7037      2.00000
     73       0.4306      0.00000
     74       0.4603      0.00000
     75       0.5949      0.00000
     76       0.6336      0.00000
     77       0.7026      0.00000
     78       0.8161      0.00000
     79       0.9461      0.00000
     80       0.9887      0.00000
     81       1.0049      0.00000
     82       1.1501      0.00000
     83       1.2844      0.00000
     84       1.3760      0.00000
     85       1.4268      0.00000
     86       1.5686      0.00000
     87       1.6696      0.00000
     88       1.7874      0.00000

 k-point    15 :       0.0000    0.5000    0.4000
  band No.  band energies     occupation 
      1     -29.5142      2.00000
      2     -29.5142      2.00000
      3     -28.4878      2.00000
      4     -28.4878      2.00000
      5     -28.4323      2.00000
      6     -28.4323      2.00000
      7     -27.8284      2.00000
      8     -27.8283      2.00000
      9     -14.8543      2.00000
     10     -14.8543      2.00000
     11     -14.7885      2.00000
     12     -14.7885      2.00000
     13     -14.7171      2.00000
     14     -14.7171      2.00000
     15     -13.9127      2.00000
     16     -13.9127      2.00000
     17     -13.8152      2.00000
     18     -13.8152      2.00000
     19     -13.7737      2.00000
     20     -13.7737      2.00000
     21     -13.7560      2.00000
     22     -13.7560      2.00000
     23     -13.7479      2.00000
     24     -13.7479      2.00000
     25     -13.6853      2.00000
     26     -13.6853      2.00000
     27     -13.2029      2.00000
     28     -13.2029      2.00000
     29     -13.1560      2.00000
     30     -13.1560      2.00000
     31     -13.1295      2.00000
     32     -13.1295      2.00000
     33     -10.9923      2.00000
     34     -10.9923      2.00000
     35     -10.6196      2.00000
     36     -10.6196      2.00000
     37      -6.4094      2.00000
     38      -6.4093      2.00000
     39      -6.1183      2.00000
     40      -6.1183      2.00000
     41      -6.0762      2.00000
     42      -6.0761      2.00000
     43      -5.7974      2.00000
     44      -5.7974      2.00000
     45      -5.7636      2.00000
     46      -5.7636      2.00000
     47      -5.6398      2.00000
     48      -5.6398      2.00000
     49      -2.6668      2.00000
     50      -2.6668      2.00000
     51      -2.5042      2.00000
     52      -2.5041      2.00000
     53      -2.1278      2.00000
     54      -2.1277      2.00000
     55      -2.0714      2.00000
     56      -2.0714      2.00000
     57      -1.8910      2.00000
     58      -1.8910      2.00000
     59      -1.6679      2.00000
     60      -1.6678      2.00000
     61      -1.4777      2.00000
     62      -1.4777      2.00000
     63      -1.4632      2.00000
     64      -1.4632      2.00000
     65      -1.2339      2.00000
     66      -1.2339      2.00000
     67      -1.0556      2.00000
     68      -1.0556      2.00000
     69      -0.8634      2.00000
     70      -0.8634      2.00000
     71      -0.7368      2.00000
     72      -0.7368      2.00000
     73       0.3495      0.00000
     74       0.3496      0.00000
     75       0.5837      0.00000
     76       0.5837      0.00000
     77       0.7553      0.00000
     78       0.7553      0.00000
     79       0.9333      0.00000
     80       0.9333      0.00000
     81       1.0007      0.00000
     82       1.0008      0.00000
     83       1.3515      0.00000
     84       1.3515      0.00000
     85       1.5361      0.00000
     86       1.5361      0.00000
     87       1.6291      0.00000
     88       1.6291      0.00000


--------------------------------------------------------------------------------------------------------


 soft charge-density along one line, spin component           1
         0         1         2         3         4         5         6         7         8         9
 total charge-density along one line
 
 pseudopotential strength for first ion, spin component:           1
  5.089  -5.595  -0.000  -0.008  -0.037  -0.000  -0.003  -0.015
 -5.595  -2.740   0.000   0.002   0.007  -0.000  -0.001  -0.006
 -0.000   0.000  -6.779  -0.000  -0.000   1.860  -0.000  -0.000
 -0.008   0.002  -0.000  -6.774  -0.002  -0.000   1.872  -0.004
 -0.037   0.007  -0.000  -0.002  -6.774  -0.000  -0.004   1.871
 -0.000  -0.000   1.860  -0.000  -0.000   7.309  -0.000  -0.000
 -0.003  -0.001  -0.000   1.872  -0.004  -0.000   7.310  -0.000
 -0.015  -0.006  -0.000  -0.004   1.871  -0.000  -0.000   7.310
 -0.000   0.000  -0.013  -0.000  -0.000  -0.009  -0.000  -0.000
 -0.000   0.000  -0.001  -0.000  -0.000  -0.000  -0.000  -0.000
  0.002  -0.001   0.000  -0.004   0.007   0.000  -0.003   0.005
 -0.002   0.001  -0.000  -0.013  -0.002  -0.000  -0.008  -0.002
  0.003  -0.001   0.000  -0.001  -0.012   0.000  -0.001  -0.008
  0.000   0.000   0.001   0.000   0.000   0.000   0.000   0.000
  0.000   0.000   0.000   0.000   0.000  -0.000   0.000   0.000
 -0.000  -0.000  -0.000   0.000  -0.000  -0.000   0.000  -0.000
  0.000   0.000   0.000   0.001   0.000   0.000   0.000   0.000
 -0.000  -0.000  -0.000   0.000   0.000  -0.000   0.000   0.000
 total augmentation occupancy for first ion, spin component:           1
  2.102  -0.256   0.000   0.012   0.055   0.000  -0.006  -0.020  -0.000  -0.000   0.016  -0.010   0.033   0.000   0.000  -0.010
 -0.256   0.638   0.000  -0.033  -0.144  -0.000   0.012   0.033   0.000   0.000  -0.027   0.013  -0.064   0.000  -0.000   0.041
  0.000   0.000   2.012   0.000   0.000  -0.011   0.000   0.000  -0.084   0.022  -0.000   0.000   0.000   0.078  -0.042   0.000
  0.012  -0.033   0.000   2.000   0.003   0.000  -0.002  -0.002   0.000   0.000  -0.045  -0.068  -0.014   0.000   0.000   0.044
  0.055  -0.144   0.000   0.003   1.995   0.000  -0.002  -0.000   0.000   0.000   0.035  -0.007  -0.052  -0.000   0.000  -0.032
  0.000   0.000  -0.011   0.000  -0.000   0.008   0.000   0.000   0.022  -0.009  -0.000   0.000   0.000  -0.030   0.014   0.000
 -0.006   0.012   0.000  -0.002  -0.002  -0.000   0.005   0.001  -0.000   0.000   0.016   0.016   0.005   0.000   0.000  -0.022
 -0.020   0.033   0.000  -0.002  -0.000   0.000   0.001   0.004  -0.000   0.000  -0.007   0.000   0.008   0.000   0.000   0.008
  0.000   0.000  -0.084  -0.000   0.000   0.022   0.000   0.000   0.146  -0.014   0.000  -0.000   0.000  -0.184   0.019  -0.000
  0.000   0.000   0.022   0.000   0.000  -0.009   0.000   0.000  -0.014   0.068   0.000  -0.000   0.000   0.018  -0.084   0.000
  0.016  -0.027  -0.000  -0.045   0.035   0.000   0.016  -0.007   0.000   0.000   0.121   0.051   0.020   0.000   0.000  -0.148
 -0.010   0.013   0.000  -0.068  -0.007   0.000   0.016   0.000   0.000  -0.000   0.051   0.087   0.009   0.000   0.000  -0.070
  0.033  -0.064   0.000  -0.014  -0.052   0.000   0.005   0.008   0.000   0.000   0.020   0.009   0.096   0.000   0.000  -0.027
  0.000   0.000   0.078   0.000   0.000  -0.030   0.000   0.000  -0.184   0.018   0.000   0.000   0.000   0.260  -0.033   0.000
  0.000   0.000  -0.042   0.000   0.000   0.014   0.000   0.000   0.019  -0.084   0.000   0.000   0.000  -0.033   0.114   0.000
 -0.010   0.041   0.000   0.044  -0.032  -0.000  -0.022   0.008  -0.000   0.000  -0.148  -0.070  -0.027   0.000   0.000   0.202
  0.007  -0.031   0.000   0.063  -0.000  -0.000  -0.022  -0.001   0.000   0.000  -0.068  -0.110  -0.012   0.000   0.000   0.105
 -0.025   0.077   0.000   0.022   0.050   0.000  -0.008  -0.011  -0.000   0.000  -0.028  -0.013  -0.126   0.000   0.000   0.044


------------------------ aborting loop because EDIFF is reached ----------------------------------------


    CHARGE:  cpu time    0.1585: real time    0.1589
    FORLOC:  cpu time    0.0107: real time    0.0108
    FORNL :  cpu time    0.6415: real time    0.6431
    STRESS:  cpu time    1.6549: real time    1.6589
    FORCOR:  cpu time    0.0673: real time    0.0674
    FORHAR:  cpu time    0.0254: real time    0.0254
    MIXING:  cpu time    0.0081: real time    0.0293
    OFIELD:  cpu time    0.0000: real time    0.0000

 ---------------------------------------------------------------------------------------------

         DFTD3 V3.0 Rev 1        
 IVDW         = 11
 DF pbe       
 parameters
 VDW_S6       =    1.0000
 VDW_S8       =    0.7220
 VDW_SR       =    1.2170
 rs18     =    1.0000
 alpha6   =   14.0000
 alpha8   =   16.0000
 k1-k3    =   16.0000    1.3333   -4.0000
 VDW_RADIUS   =   50.2022 A
 VDW_CNRADIUS =   21.1671 A
 Edisp (eV)   -2.32543

 E6    (eV) :    -0.8702
 E8    (eV) :    -1.4553
 % E8        : 62.58
    FORVDW:  cpu time    0.0370: real time    0.0538

  FORCE on cell =-STRESS in cart. coord.  units (eV):
  Direction    XX          YY          ZZ          XY          YZ          ZX
  --------------------------------------------------------------------------------------
  Alpha Z   170.45751   170.45751   170.45751
  Ewald  -19745.42745 16132.28796 15597.67226    -0.00002     0.00000   147.16131
  Hartree-16680.83261 17757.94656 17337.04835     0.00000    -0.00000   111.94210
  E(xc)    -462.10236  -460.29235  -460.70269    -0.00000    -0.00000     0.19514
  Local   35010.81244-35325.36914-34361.91541     0.00001    -0.00000  -257.11172
  n-local   338.96697   339.02963   339.98952     0.05933    -0.19958    -1.55792
  augment  -169.25304  -169.60643  -169.52638    -0.00000    -0.00000     0.30943
  Kinetic  1529.45865  1546.44583  1538.73204    -0.03965    -0.81331    -0.92620
  Fock        0.00000     0.00000     0.00000     0.00000     0.00000     0.00000
  vdW        -1.28402    -2.65367    -2.57984     0.00000    -0.00000     0.03074
  -------------------------------------------------------------------------------------
  Total      -9.20391   -11.75410   -10.82464     0.00000     0.00000     0.04288
  in kB      -7.81034    -9.97441    -9.18568     0.00000     0.00000     0.03639
  external pressure =       -8.99 kB  Pullay stress =        0.00 kB


 VOLUME and BASIS-vectors are now :
 -----------------------------------------------------------------------------
  energy-cutoff  :      500.00
  volume of cell :     1888.05
      direct lattice vectors                 reciprocal lattice vectors
    24.009468079  0.000000000  0.000000000     0.041650236  0.000000000  0.000000000
     0.000000000  6.777849674  0.000000000     0.000000000  0.147539419  0.000000000
     0.000000000  0.000000000 11.602143288     0.000000000  0.000000000  0.086190971

  length of vectors
    24.009468079  6.777849674 11.602143288     0.041650236  0.147539419  0.086190971


 FORCES acting on ions
    electron-ion (+dipol)            ewald-force                    non-local-force                 convergence-correction
 -----------------------------------------------------------------------------------------------
   0.784E+03 0.102E-04 0.445E+02   -.779E+03 0.983E-05 -.437E+02   -.428E+01 -.611E-18 -.830E+00   0.759E-04 -.653E-09 0.657E-05
   -.784E+03 -.631E-04 -.445E+02   0.779E+03 -.127E-04 0.437E+02   0.428E+01 -.564E-18 0.830E+00   -.759E-04 0.668E-09 -.657E-05
   0.810E+02 -.603E-04 -.373E+02   -.808E+02 -.187E-04 0.361E+02   -.192E+00 0.246E-18 0.128E+01   0.770E-04 0.105E-08 -.575E-04
   -.810E+02 0.116E-04 0.373E+02   0.808E+02 0.131E-04 -.361E+02   0.192E+00 0.296E-18 -.128E+01   -.770E-04 -.999E-09 0.575E-04
   0.631E+03 -.610E-04 -.488E+02   -.628E+03 -.167E-04 0.493E+02   -.196E+01 -.150E-17 -.470E+00   0.152E-03 0.843E-09 -.536E-04
   -.631E+03 0.903E-05 0.488E+02   0.628E+03 0.145E-04 -.493E+02   0.196E+01 0.145E-17 0.470E+00   -.152E-03 -.827E-09 0.536E-04
   0.365E+03 0.120E-04 -.106E+02   -.364E+03 0.133E-04 0.983E+01   -.955E+00 0.705E-19 0.837E+00   0.128E-03 -.971E-09 0.905E-05
   -.365E+03 -.617E-04 0.106E+02   0.364E+03 -.133E-04 -.983E+01   0.955E+00 0.129E-17 -.837E+00   -.128E-03 0.936E-09 -.904E-05
   0.275E+03 0.367E+02 -.468E+02   -.275E+03 -.382E+02 0.477E+02   -.829E-01 0.149E+01 -.858E+00   0.927E-04 0.498E-04 -.454E-04
   -.275E+03 -.367E+02 0.468E+02   0.275E+03 0.382E+02 -.477E+02   0.829E-01 -.149E+01 0.858E+00   -.927E-04 -.498E-04 0.454E-04
   0.124E+03 -.326E+02 0.302E+01   -.123E+03 0.338E+02 -.201E+01   -.418E+00 -.111E+01 -.101E+01   0.329E-04 -.322E-04 -.225E-05
   -.124E+03 0.326E+02 -.302E+01   0.123E+03 -.338E+02 0.201E+01   0.418E+00 0.111E+01 0.101E+01   -.329E-04 0.322E-04 0.225E-05
   -.275E+03 0.367E+02 0.468E+02   0.275E+03 -.382E+02 -.477E+02   0.829E-01 0.149E+01 0.858E+00   -.927E-04 0.498E-04 0.454E-04
   0.275E+03 -.367E+02 -.468E+02   -.275E+03 0.382E+02 0.477E+02   -.829E-01 -.149E+01 -.858E+00   0.927E-04 -.498E-04 -.454E-04
   -.124E+03 -.326E+02 -.302E+01   0.123E+03 0.338E+02 0.201E+01   0.418E+00 -.111E+01 0.101E+01   -.329E-04 -.322E-04 0.225E-05
   0.124E+03 0.326E+02 0.302E+01   -.123E+03 -.338E+02 -.201E+01   -.418E+00 0.111E+01 -.101E+01   0.329E-04 0.322E-04 -.225E-05
   0.332E+03 -.422E-05 0.459E+02   -.333E+03 -.605E-05 -.465E+02   0.139E+01 -.532E-18 0.666E+00   0.739E-04 0.284E-09 0.237E-04
   -.332E+03 0.614E-05 -.459E+02   0.333E+03 0.630E-05 0.465E+02   -.139E+01 -.520E-18 -.666E+00   -.739E-04 -.289E-09 -.236E-04
   0.322E+02 0.966E-05 -.111E+02   -.306E+02 0.762E-05 0.103E+02   -.142E+01 0.299E-18 0.773E+00   -.164E-04 -.398E-09 -.172E-04
   -.322E+02 -.157E-05 0.111E+02   0.306E+02 -.727E-05 -.103E+02   0.142E+01 0.290E-18 -.773E+00   0.164E-04 0.375E-09 0.172E-04
   0.243E+03 0.440E-05 0.116E+02   -.243E+03 0.810E-05 -.127E+02   -.477E+00 -.489E-18 0.111E+01   0.890E-04 -.346E-09 0.343E-04
   -.243E+03 -.553E-05 -.116E+02   0.243E+03 -.815E-05 0.127E+02   0.477E+00 0.721E-18 -.111E+01   -.890E-04 0.330E-09 -.343E-04
   0.158E+03 -.623E-05 0.603E+02   -.157E+03 -.754E-05 -.620E+02   -.748E+00 -.182E-17 0.169E+01   0.412E-04 0.364E-09 0.544E-04
   -.158E+03 0.373E-05 -.603E+02   0.157E+03 0.737E-05 0.620E+02   0.748E+00 0.321E-18 -.169E+01   -.412E-04 -.362E-09 -.544E-04
 -----------------------------------------------------------------------------------------------
   0.782E-04 -.208E-03 0.514E-04   -.227E-12 0.151E-13 0.497E-13   -.222E-15 -.446E-15 -.222E-15   0.154E-08 -.202E-10 -.231E-08
 
 
 POSITION                                       TOTAL-FORCE (eV/Angst)
 -----------------------------------------------------------------------------------
      0.13670      1.69446      8.17984         0.799734     -0.000000      0.000443
      9.07277      5.08339      3.42230        -0.799734     -0.000000     -0.000443
      4.36803      5.08339      2.16640         0.067803      0.000000      0.000100
      4.84143      1.69446      9.43575        -0.067803      0.000000     -0.000100
      1.43529      5.08339     10.64462         0.690095      0.000000     -0.000650
      7.77418      1.69446      0.95753        -0.690095     -0.000000      0.000650
      3.06944      1.69446      4.59310         0.398278     -0.000000     -0.000139
      6.14002      5.08339      7.00905        -0.398278     -0.000000      0.000139
      1.75027      0.49431      1.66519        -0.126100     -0.000930      0.000119
      7.45920      6.28354      9.93696         0.126100      0.000930     -0.000119
      2.75446      6.29062      7.64926         0.122705      0.000032     -0.000202
      6.45500      0.48723      3.95288        -0.122705     -0.000032      0.000202
      7.45920      3.88324      9.93696         0.126100     -0.000930     -0.000119
      1.75027      2.89461      1.66519        -0.126100      0.000930      0.000119
      6.45500      2.90169      3.95288        -0.122705      0.000032      0.000202
      2.75446      3.87616      7.64926         0.122705     -0.000032     -0.000202
      0.74693      5.08339      6.96020        -0.197343      0.000000      0.000403
      8.46254      1.69446      4.64194         0.197343     -0.000000     -0.000403
      3.75780      1.69446      0.95989         0.192127      0.000000      0.000443
      5.45166      5.08339     10.64226        -0.192127     -0.000000     -0.000443
      1.78112      1.69446     11.15920        -0.194267     -0.000000      0.000000
      7.42835      5.08339      0.44295         0.194267      0.000000     -0.000000
      2.72362      5.08339      5.53788        -0.244899      0.000000     -0.000470
      6.48585      1.69446      6.06426         0.244899      0.000000      0.000470
 -----------------------------------------------------------------------------------
    total drift:                                0.000078     -0.000208      0.000051


--------------------------------------------------------------------------------------------------------



  FREE ENERGIE OF THE ION-ELECTRON SYSTEM (eV)
  ---------------------------------------------------
  free  energy   TOTEN  =      -107.45465388 eV

  energy  without entropy=     -107.45465388  energy(sigma->0) =     -107.45465388
 


--------------------------------------------------------------------------------------------------------


    POTLOK:  cpu time    0.0909: real time    0.0911


--------------------------------------------------------------------------------------------------------


 writing wavefunctions
     LOOP+:  cpu time   88.8360: real time   90.9216
    4ORBIT:  cpu time    0.0000: real time    0.0000
 BZINTS: Fermi energy: -0.387163;144.000000 electrons
         Band energy:***********;  BLOECHL correction:  0.000000

 total amount of memory used by VASP MPI-rank0    79355. kBytes
=======================================================================

   base      :      30000. kBytes
   nonlr-proj:       2649. kBytes
   fftplans  :       5898. kBytes
   grid      :       8824. kBytes
   one-center:         93. kBytes
   wavefun   :      31891. kBytes
 
  
  
 General timing and accounting informations for this job:
 ========================================================
  
                  Total CPU time used (sec):       96.707
                            User time (sec):       91.316
                          System time (sec):        5.391
                         Elapsed time (sec):      101.668
  
                   Maximum memory used (kb):      174512.
                   Average memory used (kb):           0.
  
                          Minor page faults:        64519
                          Major page faults:          212
                 Voluntary context switches:        15073
