 vasp.5.4.4.18Apr17-6-g9f103f2a35 (build Nov 21 2017 15:30:27) complex          
  
 executed on             LinuxIFC date 2020.09.14  15:52:27
 running on   64 total cores
 distrk:  each k-point on   32 cores,    2 groups
 distr:  one band on NCORES_PER_BAND=   4 cores,    8 groups


--------------------------------------------------------------------------------------------------------


 INCAR:
 POTCAR:   PAW_PBE Ba_sv 06Sep2000                
 POTCAR:   PAW_PBE Si 05Jan2001                   

 ----------------------------------------------------------------------------- 
|                                                                             |
|           W    W    AA    RRRRR   N    N  II  N    N   GGGG   !!!           |
|           W    W   A  A   R    R  NN   N  II  NN   N  G    G  !!!           |
|           W    W  A    A  R    R  N N  N  II  N N  N  G       !!!           |
|           W WW W  AAAAAA  RRRRR   N  N N  II  N  N N  G  GGG   !            |
|           WW  WW  A    A  R   R   N   NN  II  N   NN  G    G                |
|           W    W  A    A  R    R  N    N  II  N    N   GGGG   !!!           |
|                                                                             |
|      You have enabled k-point parallelism (KPAR>1).                         |
|      This developmental code was originally  written by Paul Kent at ORNL,  |
|      and carefully double checked in Vienna.                                |
|      GW as well as linear response parallelism added by Martijn Marsman     |
|      and Georg Kresse.                                                      |
|      Carefully verify results versus KPAR=1.                                |
|      Report problems to Paul Kent and Vienna.                               |
|                                                                             |
 ----------------------------------------------------------------------------- 

 POTCAR:   PAW_PBE Ba_sv 06Sep2000                
   VRHFIN =Ba: 5s5p6s                                                           
   LEXCH  = PE                                                                  
   EATOM  =   700.2255 eV,   51.4651 Ry                                         
                                                                                
   TITEL  = PAW_PBE Ba_sv 06Sep2000                                             
   LULTRA =        F    use ultrasoft PP ?                                      
   IUNSCR =        1    unscreen: 0-lin 1-nonlin 2-no                           
   RPACOR =    2.400    partial core radius                                     
   POMASS =  137.327; ZVAL   =   10.000    mass and valenz                      
   RCORE  =    2.800    outmost cutoff radius                                   
   RWIGS  =    3.740; RWIGS  =    1.979    wigner-seitz radius (au A)           
   ENMAX  =  187.210; ENMIN  =  140.408 eV                                      
   RCLOC  =    2.516    cutoff for local pot                                    
   LCOR   =        T    correct aug charges                                     
   LPAW   =        T    paw PP                                                  
   EAUG   =  351.165                                                            
   DEXC   =     .000                                                            
   RMAX   =    3.370    core radius for proj-oper                               
   RAUG   =    1.300    factor for augmentation sphere                          
   RDEP   =    2.976    radius for radial grids                                 
   QCUT   =   -3.709; QGAM   =    7.419    optimization parameters              
                                                                                
   Description                                                                  
     l     E      TYP  RCUT    TYP  RCUT                                        
     0   .000     23  2.800                                                     
     0   .000     23  2.800                                                     
     1   .000     23  2.700                                                     
     1  2.000     23  2.700                                                     
     2   .000     23  2.700                                                     
     2   .000     23  2.700                                                     
  local pseudopotential read in
  partial core-charges read in
  atomic valenz-charges read in
  non local Contribution for L=           0  read in
    real space projection operators read in
  non local Contribution for L=           0  read in
    real space projection operators read in
  non local Contribution for L=           1  read in
    real space projection operators read in
  non local Contribution for L=           1  read in
    real space projection operators read in
  non local Contribution for L=           2  read in
    real space projection operators read in
  non local Contribution for L=           2  read in
    real space projection operators read in
    PAW grid and wavefunctions read in
 
   number of l-projection  operators is LMAX  =           6
   number of lm-projection operators is LMMAX =          18
 
 POTCAR:   PAW_PBE Si 05Jan2001                   
   VRHFIN =Si: s2p2                                                             
   LEXCH  = PE                                                                  
   EATOM  =   103.0669 eV,    7.5752 Ry                                         
                                                                                
   TITEL  = PAW_PBE Si 05Jan2001                                                
   LULTRA =        F    use ultrasoft PP ?                                      
   IUNSCR =        1    unscreen: 0-lin 1-nonlin 2-no                           
   RPACOR =    1.500    partial core radius                                     
   POMASS =   28.085; ZVAL   =    4.000    mass and valenz                      
   RCORE  =    1.900    outmost cutoff radius                                   
   RWIGS  =    2.480; RWIGS  =    1.312    wigner-seitz radius (au A)           
   ENMAX  =  245.345; ENMIN  =  184.009 eV                                      
   ICORE  =        2    local potential                                         
   LCOR   =        T    correct aug charges                                     
   LPAW   =        T    paw PP                                                  
   EAUG   =  322.069                                                            
   DEXC   =    -.007                                                            
   RMAX   =    2.944    core radius for proj-oper                               
   RAUG   =    1.300    factor for augmentation sphere                          
   RDEP   =    1.993    radius for radial grids                                 
   QCUT   =   -4.246; QGAM   =    8.493    optimization parameters              
                                                                                
   Description                                                                  
     l     E      TYP  RCUT    TYP  RCUT                                        
     0   .000     23  1.900                                                     
     0   .000     23  1.900                                                     
     1   .000     23  1.900                                                     
     1   .000     23  1.900                                                     
     2   .000      7  1.900                                                     
  local pseudopotential read in
  partial core-charges read in
  atomic valenz-charges read in
  non local Contribution for L=           0  read in
    real space projection operators read in
  non local Contribution for L=           0  read in
    real space projection operators read in
  non local Contribution for L=           1  read in
    real space projection operators read in
  non local Contribution for L=           1  read in
    real space projection operators read in
    PAW grid and wavefunctions read in
 
   number of l-projection  operators is LMAX  =           4
   number of lm-projection operators is LMMAX =           8
 
 Optimization of the real space projectors (new method)

 maximal supplied QI-value         = 13.42
 optimisation between [QCUT,QGAM] = [ 11.40, 22.81] = [ 36.42,145.68] Ry 
 Optimized for a Real-space Cutoff    1.56 Angstroem

   l    n(q)    QCUT    max X(q) W(low)/X(q) W(high)/X(q)  e(spline) 
   0     11    11.404     7.198    0.14E-04    0.26E-04    0.99E-07
   0     11    11.404    15.603    0.29E-04    0.72E-04    0.44E-06
   1     10    11.404     3.746    0.20E-04    0.24E-04    0.43E-07
   1     10    11.404     4.362    0.22E-03    0.97E-04    0.22E-06
   2     10    11.404     5.782    0.83E-04    0.62E-05    0.27E-06
   2     10    11.404    65.505    0.42E-03    0.31E-04    0.12E-05
 Optimization of the real space projectors (new method)

 maximal supplied QI-value         = 19.84
 optimisation between [QCUT,QGAM] = [ 11.31, 22.82] = [ 35.82,145.81] Ry 
 Optimized for a Real-space Cutoff    1.16 Angstroem

   l    n(q)    QCUT    max X(q) W(low)/X(q) W(high)/X(q)  e(spline) 
   0      8    11.310     8.708    0.14E-04    0.11E-04    0.43E-08
   0      8    11.310   106.241    0.27E-03    0.30E-03    0.38E-07
   1      7    11.310     5.901    0.82E-05    0.48E-04    0.19E-07
   1      7    11.310    73.241    0.27E-03    0.27E-03    0.74E-07
 PAW_PBE Ba_sv 06Sep2000                :
 energy of atom  1       EATOM= -700.2255
 kinetic energy error for atom=    0.0005 (will be added to EATOM!!)
 PAW_PBE Si 05Jan2001                   :
 energy of atom  2       EATOM= -103.0669
 kinetic energy error for atom=    0.0006 (will be added to EATOM!!)
 
 
 POSCAR: ba8 si16                                
  positions in direct lattice
  velocities in cartesian coordinates
 exchange correlation table for  LEXCH =        8
   RHO(1)=    0.500       N(1)  =     2000
   RHO(2)=  100.500       N(2)  =     4000
 


--------------------------------------------------------------------------------------------------------


 ion  position               nearest neighbor table
   1  0.006  0.250  0.706-  21 3.42  16 3.45  11 3.45  17 3.66  17 3.66   5 4.39   5 4.39   7 4.63
                             4 4.72
   2  0.372  0.750  0.294-  22 3.42  12 3.45  15 3.45  18 3.66  18 3.66   6 4.39   6 4.39   8 4.63
                             3 4.72
   3  0.182  0.750  0.187-  20 3.30  22 3.40  12 3.42  15 3.42   9 3.45  14 3.45  19 3.64  19 3.64
                            23 3.74   5 4.27   7 4.37   7 4.37   2 4.72
   4  0.195  0.250  0.813-  19 3.30  21 3.40  16 3.42  11 3.42  13 3.45  10 3.45  20 3.64  20 3.64
                            24 3.74   6 4.27   8 4.37   8 4.37   1 4.72
   5  0.060  0.750  0.919-   9 3.43  14 3.43  21 3.45  21 3.45  11 3.51  16 3.51  17 3.77  20 3.87
                             3 4.27   1 4.39   1 4.39
   6  0.318  0.250  0.081-  13 3.43  10 3.43  22 3.45  22 3.45  15 3.51  12 3.51  18 3.77  19 3.87
                             4 4.27   2 4.39   2 4.39
   7  0.128  0.250  0.397-  14 3.42   9 3.42  15 3.51  12 3.51  23 3.53  23 3.53  24 3.58  19 3.69
                            16 3.75  11 3.75   3 4.37   3 4.37   1 4.63
   8  0.249  0.750  0.603-  10 3.42  13 3.42  11 3.51  16 3.51  24 3.53  24 3.53  23 3.58  20 3.69
                            12 3.75  15 3.75   4 4.37   4 4.37   2 4.63
   9  0.073  0.073  0.146-  14 2.40  21 2.42  19 2.44   7 3.42   5 3.43   3 3.45
  10  0.304  0.927  0.854-  13 2.40  22 2.42  20 2.44   8 3.42   6 3.43   4 3.45
  11  0.115  0.928  0.659-  16 2.41  23 2.43  17 2.44   4 3.42   1 3.45   5 3.51   8 3.51   7 3.75

  12  0.263  0.072  0.341-  15 2.41  24 2.43  18 2.44   3 3.42   2 3.45   6 3.51   7 3.51   8 3.75

  13  0.304  0.573  0.854-  10 2.40  22 2.42  20 2.44   8 3.42   6 3.43   4 3.45
  14  0.073  0.427  0.146-   9 2.40  21 2.42  19 2.44   7 3.42   5 3.43   3 3.45
  15  0.263  0.428  0.341-  12 2.41  24 2.43  18 2.44   3 3.42   2 3.45   6 3.51   7 3.51   8 3.75

  16  0.115  0.572  0.659-  11 2.41  23 2.43  17 2.44   4 3.42   1 3.45   5 3.51   8 3.51   7 3.75

  17  0.031  0.750  0.599-  23 2.44  11 2.44  16 2.44   1 3.66   1 3.66   5 3.77
  18  0.346  0.250  0.401-  24 2.44  15 2.44  12 2.44   2 3.66   2 3.66   6 3.77
  19  0.157  0.250  0.085-  21 2.43  14 2.44   9 2.44   4 3.30   3 3.64   3 3.64   7 3.69   6 3.87

  20  0.221  0.750  0.915-  22 2.43  10 2.44  13 2.44   3 3.30   4 3.64   4 3.64   8 3.69   5 3.87

  21  0.074  0.250  0.964-  14 2.42   9 2.42  19 2.43   4 3.40   1 3.42   5 3.45   5 3.45
  22  0.303  0.750  0.036-  10 2.42  13 2.42  20 2.43   3 3.40   2 3.42   6 3.45   6 3.45
  23  0.113  0.750  0.477-  11 2.43  16 2.43  17 2.44   7 3.53   7 3.53   8 3.58   3 3.74
  24  0.264  0.250  0.523-  15 2.43  12 2.43  18 2.44   8 3.53   8 3.53   7 3.58   4 3.74
 
  LATTYP: Found a simple orthorhombic cell.
 ALAT       =     6.7778496742
 B/A-ratio  =     1.7117734747
 C/A-ratio  =     3.5423429602
  
  Lattice vectors:
  
 A1 = (   0.0000000000,   6.7778496742,   0.0000000000)
 A2 = (   0.0000000000,   0.0000000000, -11.6021432877)
 A3 = ( -24.0094680786,   0.0000000000,   0.0000000000)


Analysis of symmetry for initial positions (statically):
=====================================================================
 Subroutine PRICEL returns:
 Original cell was already a primitive cell.
 

 Routine SETGRP: Setting up the symmetry group for a 
 simple orthorhombic supercell.


 Subroutine GETGRP returns: Found  4 space group operations
 (whereof  1 operations were pure point group operations)
 out of a pool of  8 trial point group operations.


The static configuration has the point symmetry C_1 .
 The point group associated with its full space group is C_2h.


Analysis of symmetry for dynamics (positions and initial velocities):
=====================================================================
 Subroutine PRICEL returns:
 Original cell was already a primitive cell.
 

 Routine SETGRP: Setting up the symmetry group for a 
 simple orthorhombic supercell.


 Subroutine GETGRP returns: Found  4 space group operations
 (whereof  1 operations were pure point group operations)
 out of a pool of  8 trial point group operations.


The dynamic configuration has the point symmetry C_1 .
 The point group associated with its full space group is C_2h.


Analysis of constrained symmetry for selective dynamics:
=====================================================================
 Subroutine PRICEL returns:
 Original cell was already a primitive cell.
 

 Routine SETGRP: Setting up the symmetry group for a 
 simple orthorhombic supercell.


 Subroutine GETGRP returns: Found  4 space group operations
 (whereof  1 operations were pure point group operations)
 out of a pool of  8 trial point group operations.


The constrained configuration has the point symmetry C_1 .
 The point group associated with its full space group is C_2h.


 Subroutine INISYM returns: Found  4 space group operations
 (whereof  1 operations are pure point group operations),
 and found     1 'primitive' translations

 
 
 KPOINTS: k-density: 8.0                          

Automatic generation of k-mesh.
Space group operators:
 irot       det(A)        alpha          n_x          n_y          n_z        tau_x        tau_y        tau_z
    1     1.000000     0.000000     1.000000     0.000000     0.000000     0.000000     0.000000     0.000000
    2    -1.000000     0.000000     1.000000     0.000000     0.000000    -0.622671     0.000000     0.000000
    3     1.000000   180.000000     0.000000     1.000000     0.000000    -0.622671     0.500000     0.000000
    4    -1.000000   180.000000     0.000000     1.000000     0.000000     0.000000     0.500000     0.000000
 
 Subroutine IBZKPT returns following result:
 ===========================================
 
 Found     15 irreducible k-points:
 
 Following reciprocal coordinates:
            Coordinates               Weight
  0.000000  0.000000  0.000000      1.000000
  0.000000  0.125000  0.000000      2.000000
  0.000000  0.250000  0.000000      2.000000
  0.000000  0.375000  0.000000      2.000000
  0.000000  0.500000  0.000000      1.000000
  0.000000  0.000000  0.200000      2.000000
  0.000000  0.125000  0.200000      4.000000
  0.000000  0.250000  0.200000      4.000000
  0.000000  0.375000  0.200000      4.000000
  0.000000  0.500000  0.200000      2.000000
  0.000000  0.000000  0.400000      2.000000
  0.000000  0.125000  0.400000      4.000000
  0.000000  0.250000  0.400000      4.000000
  0.000000  0.375000  0.400000      4.000000
  0.000000  0.500000  0.400000      2.000000
 
 Following cartesian coordinates:
            Coordinates               Weight
  0.000000  0.000000  0.000000      1.000000
  0.000000  0.018442  0.000000      2.000000
  0.000000  0.036885  0.000000      2.000000
  0.000000  0.055327  0.000000      2.000000
  0.000000  0.073770  0.000000      1.000000
  0.000000  0.000000  0.017238      2.000000
  0.000000  0.018442  0.017238      4.000000
  0.000000  0.036885  0.017238      4.000000
  0.000000  0.055327  0.017238      4.000000
  0.000000  0.073770  0.017238      2.000000
  0.000000  0.000000  0.034476      2.000000
  0.000000  0.018442  0.034476      4.000000
  0.000000  0.036885  0.034476      4.000000
  0.000000  0.055327  0.034476      4.000000
  0.000000  0.073770  0.034476      2.000000
 
 TETIRR: Found    108 inequivalent tetrahedra from      240


--------------------------------------------------------------------------------------------------------




 Dimension of arrays:
   k-points           NKPTS =     15   k-points in BZ     NKDIM =     15   number of bands    NBANDS=     88
   number of dos      NEDOS =    301   number of ions     NIONS =     24
   non local maximal  LDIM  =      6   non local SUM 2l+1 LMDIM =     18
   total plane-waves  NPLWV = 358400
   max r-space proj   IRMAX =   3093   max aug-charges    IRDMAX=  12081
   dimension x,y,z NGX =   140 NGY =   40 NGZ =   64
   dimension x,y,z NGXF=   280 NGYF=   80 NGZF=  128
   support grid    NGXF=   280 NGYF=   80 NGZF=  128
   ions per type =               8  16
   NGX,Y,Z   is equivalent  to a cutoff of   9.69,  9.81,  9.17 a.u.
   NGXF,Y,Z  is equivalent  to a cutoff of  19.39, 19.62, 18.34 a.u.

 SYSTEM =  unknown system                          
 POSCAR =  ba8 si16                                

 Startparameter for this run:
   NWRITE =      2    write-flag & timer
   PREC   = normal    normal or accurate (medium, high low for compatibility)
   ISTART =      0    job   : 0-new  1-cont  2-samecut
   ICHARG =      2    charge: 1-file 2-atom 10-const
   ISPIN  =      1    spin polarized calculation?
   LNONCOLLINEAR =      F non collinear calculations
   LSORBIT =      F    spin-orbit coupling
   INIWAV =      1    electr: 0-lowe 1-rand  2-diag
   LASPH  =      F    aspherical Exc in radial PAW
   METAGGA=      F    non-selfconsistent MetaGGA calc.

 Electronic Relaxation 1
   ENCUT  =  500.0 eV  36.75 Ry    6.06 a.u.  43.77 12.36 21.15*2*pi/ulx,y,z
   ENINI  =  500.0     initial cutoff
   ENAUG  =  351.2 eV  augmentation charge cutoff
   NELM   =    100;   NELMIN=  2; NELMDL= -5     # of ELM steps 
   EDIFF  = 0.1E-05   stopping-criterion for ELM
   LREAL  =      T    real-space projection
   NLSPLINE    = F    spline interpolate recip. space projectors
   LCOMPAT=      F    compatible to vasp.4.4
   GGA_COMPAT  = T    GGA compatible to vasp.4.4-vasp.4.6
   LMAXPAW     = -100 max onsite density
   LMAXMIX     =    2 max onsite mixed and CHGCAR
   VOSKOWN=      0    Vosko Wilk Nusair interpolation
   ROPT   =   -0.00050  -0.00050
 Ionic relaxation
   EDIFFG = -.1E-02   stopping-criterion for IOM
   NSW    =      0    number of steps for IOM
   NBLOCK =      1;   KBLOCK =      1    inner block; outer block 
   IBRION =     -1    ionic relax: 0-MD 1-quasi-New 2-CG
   NFREE  =      0    steps in history (QN), initial steepest desc. (CG)
   ISIF   =      2    stress and relaxation
   IWAVPR =     10    prediction:  0-non 1-charg 2-wave 3-comb
   ISYM   =      2    0-nonsym 1-usesym 2-fastsym
   LCORR  =      T    Harris-Foulkes like correction to forces

   POTIM  = 0.3000    time-step for ionic-motion
   TEIN   =    0.0    initial temperature
   TEBEG  =    0.0;   TEEND  =   0.0 temperature during run
   SMASS  =  -3.00    Nose mass-parameter (am)
   estimated Nose-frequenzy (Omega)   =  0.10E-29 period in steps =****** mass=  -0.132E-25a.u.
   SCALEE = 1.0000    scale energy and forces
   NPACO  =    256;   APACO  = 16.0  distance and # of slots for P.C.
   PSTRESS=    0.0 pullay stress

  Mass of Ions in am
   POMASS = 137.33 28.09
  Ionic Valenz
   ZVAL   =  10.00  4.00
  Atomic Wigner-Seitz radii
   RWIGS  =  -1.00 -1.00
  virtual crystal weights 
   VCA    =   1.00  1.00
   NELECT =     144.0000    total number of electrons
   NUPDOWN=      -1.0000    fix difference up-down

 DOS related values:
   EMIN   =  10.00;   EMAX   =-10.00  energy-range for DOS
   EFERMI =   0.00
   ISMEAR =    -5;   SIGMA  =   0.01  broadening in eV -4-tet -1-fermi 0-gaus

 Electronic relaxation 2 (details)
   IALGO  =     38    algorithm
   LDIAG  =      T    sub-space diagonalisation (order eigenvalues)
   LSUBROT=      F    optimize rotation matrix (better conditioning)
   TURBO    =      0    0=normal 1=particle mesh
   IRESTART =      0    0=no restart 2=restart with 2 vectors
   NREBOOT  =      0    no. of reboots
   NMIN     =      0    reboot dimension
   EREF     =   0.00    reference energy to select bands
   IMIX   =      4    mixing-type and parameters
     AMIX     =   0.40;   BMIX     =  1.00
     AMIX_MAG =   1.60;   BMIX_MAG =  1.00
     AMIN     =   0.10
     WC   =   100.;   INIMIX=   1;  MIXPRE=   1;  MAXMIX= -45

 Intra band minimization:
   WEIMIN = 0.0000     energy-eigenvalue tresh-hold
   EBREAK =  0.28E-08  absolut break condition
   DEPER  =   0.30     relativ break condition  

   TIME   =   0.40     timestep for ELM

  volume/ion in A,a.u.               =      78.67       530.88
  Fermi-wavevector in a.u.,A,eV,Ry     =   0.694264  1.311969  6.558046  0.482003
  Thomas-Fermi vector in A             =   1.776709
 
 Write flags
   LWAVE        =      T    write WAVECAR
   LDOWNSAMPLE  =      F    k-point downsampling of WAVECAR
   LCHARG       =      T    write CHGCAR
   LVTOT        =      F    write LOCPOT, total local potential
   LVHAR        =      F    write LOCPOT, Hartree potential only
   LELF         =      F    write electronic localiz. function (ELF)
   LORBIT       =      0    0 simple, 1 ext, 2 COOP (PROOUT), +10 PAW based schemes


 Dipole corrections
   LMONO  =      F    monopole corrections only (constant potential shift)
   LDIPOL =      F    correct potential (dipole corrections)
   IDIPOL =      0    1-x, 2-y, 3-z, 4-all directions 
   EPSILON=  1.0000000 bulk dielectric constant

 Exchange correlation treatment:
   GGA     =    --    GGA type
   LEXCH   =     8    internal setting for exchange type
   VOSKOWN=      0    Vosko Wilk Nusair interpolation
   LHFCALC =     F    Hartree Fock is set to
   LHFONE  =     F    Hartree Fock one center treatment
   AEXX    =    0.0000 exact exchange contribution

 Linear response parameters
   LEPSILON=     F    determine dielectric tensor
   LRPA    =     F    only Hartree local field effects (RPA)
   LNABLA  =     F    use nabla operator in PAW spheres
   LVEL    =     F    velocity operator in full k-point grid
   LINTERFAST=   F  fast interpolation
   KINTER  =     0    interpolate to denser k-point grid
   CSHIFT  =0.1000    complex shift for real part using Kramers Kronig
   OMEGAMAX=  -1.0    maximum frequency
   DEG_THRESHOLD= 0.2000000E-02 threshold for treating states as degnerate
   RTIME   =   -0.100 relaxation time in fs
  (WPLASMAI=    0.000 imaginary part of plasma frequency in eV, 0.658/RTIME)
   DFIELD  = 0.0000000 0.0000000 0.0000000 field for delta impulse in time
 
 Orbital magnetization related:
   ORBITALMAG=     F  switch on orbital magnetization
   LCHIMAG   =     F  perturbation theory with respect to B field
   DQ        =  0.001000  dq finite difference perturbation B field
   LLRAUG    =     F  two centre corrections for induced B field



--------------------------------------------------------------------------------------------------------


 Static calculation
 charge density and potential will be updated during run
 non-spin polarized calculation
 Variant of blocked Davidson
 Davidson routine will perform the subspace rotation
 perform sub-space diagonalisation
    after iterative eigenvector-optimisation
 modified Broyden-mixing scheme, WC =      100.0
 initial mixing is a Kerker type mixing with AMIX =  0.4000 and BMIX =      1.0000
 Hartree-type preconditioning will be used
 using additional bands           16
 real space projection scheme for non local part
 use partial core corrections
 calculate Harris-corrections to forces 
   (improved forces if not selfconsistent)
 use gradient corrections 
 use of overlap-Matrix (Vanderbilt PP)
 Fermi weights with tetrahedron method with Bloechl corrections


--------------------------------------------------------------------------------------------------------


  energy-cutoff  :      500.00
  volume of cell :     1888.05
      direct lattice vectors                 reciprocal lattice vectors
    24.009468079  0.000000000  0.000000000     0.041650236  0.000000000  0.000000000
     0.000000000  6.777849674  0.000000000     0.000000000  0.147539419  0.000000000
     0.000000000  0.000000000 11.602143288     0.000000000  0.000000000  0.086190971

  length of vectors
    24.009468079  6.777849674 11.602143288     0.041650236  0.147539419  0.086190971


 
 k-points in units of 2pi/SCALE and weight: k-density: 8.0                          
   0.00000000  0.00000000  0.00000000       0.025
   0.00000000  0.01844243  0.00000000       0.050
   0.00000000  0.03688485  0.00000000       0.050
   0.00000000  0.05532728  0.00000000       0.050
   0.00000000  0.07376971  0.00000000       0.025
   0.00000000  0.00000000  0.01723819       0.050
   0.00000000  0.01844243  0.01723819       0.100
   0.00000000  0.03688485  0.01723819       0.100
   0.00000000  0.05532728  0.01723819       0.100
   0.00000000  0.07376971  0.01723819       0.050
   0.00000000  0.00000000  0.03447639       0.050
   0.00000000  0.01844243  0.03447639       0.100
   0.00000000  0.03688485  0.03447639       0.100
   0.00000000  0.05532728  0.03447639       0.100
   0.00000000  0.07376971  0.03447639       0.050
 
 k-points in reciprocal lattice and weights: k-density: 8.0                          
   0.00000000  0.00000000  0.00000000       0.025
   0.00000000  0.12500000  0.00000000       0.050
   0.00000000  0.25000000  0.00000000       0.050
   0.00000000  0.37500000  0.00000000       0.050
   0.00000000  0.50000000  0.00000000       0.025
   0.00000000  0.00000000  0.20000000       0.050
   0.00000000  0.12500000  0.20000000       0.100
   0.00000000  0.25000000  0.20000000       0.100
   0.00000000  0.37500000  0.20000000       0.100
   0.00000000  0.50000000  0.20000000       0.050
   0.00000000  0.00000000  0.40000000       0.050
   0.00000000  0.12500000  0.40000000       0.100
   0.00000000  0.25000000  0.40000000       0.100
   0.00000000  0.37500000  0.40000000       0.100
   0.00000000  0.50000000  0.40000000       0.050
 
 position of ions in fractional coordinates (direct lattice) 
   0.00569361  0.25000000  0.70581192
   0.37163537  0.75000002  0.29418808
   0.18192962  0.75000002  0.18733889
   0.19539936  0.25000000  0.81266109
   0.05978014  0.75000002  0.91930529
   0.31754884  0.25000000  0.08069469
   0.12784309  0.25000000  0.39745231
   0.24948589  0.75000002  0.60254773
   0.07289913  0.07289094  0.14553513
   0.30442985  0.92710905  0.85446485
   0.11472410  0.92765278  0.65865925
   0.26260488  0.07234721  0.34134075
   0.30442985  0.57289095  0.85446485
   0.07289913  0.42710905  0.14553513
   0.26260488  0.42765278  0.34134075
   0.11472410  0.57234722  0.65865925
   0.03110981  0.75000002  0.59947522
   0.34621916  0.25000000  0.40052478
   0.15651343  0.25000000  0.08535123
   0.22081556  0.75000002  0.91464875
   0.07418398  0.25000000  0.96404452
   0.30314500  0.75000002  0.03595549
   0.11343925  0.75000002  0.47686023
   0.26388973  0.25000000  0.52313969
 
 position of ions in cartesian coordinates  (Angst):
   0.13670066  1.69446242  8.18893100
   8.92276745  5.08338737  3.41321229
   4.36803341  5.08338737  2.17353266
   4.69143467  1.69446242  9.42861039
   1.43528938  5.08338737 10.66591174
   7.62417870  1.69446242  0.93623131
   3.06944466  1.69446242  4.61129861
   5.99002342  5.08338737  6.99084515
   1.75026941  0.49404385  1.68851941
   7.30919867  6.28380576  9.91362364
   2.75446463  6.28749109  7.64185905
   6.30500345  0.49035852  3.96028424
   7.30919867  3.88296875  9.91362364
   1.75026941  2.89488092  1.68851941
   6.30500345  2.89856625  3.96028424
   2.75446463  3.87928342  7.64185905
   0.74692994  5.08338737  6.95519744
   8.31253796  1.69446242  4.64694585
   3.75780416  1.69446242  0.99025720
   5.30166416  5.08338737 10.61188585
   1.78111780  1.69446242 11.18498270
   7.27835016  5.08338737  0.41716077
   2.72361612  5.08338737  5.53260075
   6.33585195  1.69446242  6.06954159
 


--------------------------------------------------------------------------------------------------------


 k-point  1 :   0.0000 0.0000 0.0000  plane waves:   47989
 k-point  2 :   0.0000 0.1250 0.0000  plane waves:   47929
 k-point  3 :   0.0000 0.2500 0.0000  plane waves:   47901
 k-point  4 :   0.0000 0.3750 0.0000  plane waves:   47910
 k-point  5 :   0.0000 0.5000 0.0000  plane waves:   47868
 k-point  6 :   0.0000 0.0000 0.2000  plane waves:   48006
 k-point  7 :   0.0000 0.1250 0.2000  plane waves:   47967
 k-point  8 :   0.0000 0.2500 0.2000  plane waves:   47907
 k-point  9 :   0.0000 0.3750 0.2000  plane waves:   47884
 k-point 10 :   0.0000 0.5000 0.2000  plane waves:   47884
 k-point 11 :   0.0000 0.0000 0.4000  plane waves:   47922
 k-point 12 :   0.0000 0.1250 0.4000  plane waves:   47954
 k-point 13 :   0.0000 0.2500 0.4000  plane waves:   47967
 k-point 14 :   0.0000 0.3750 0.4000  plane waves:   47928
 k-point 15 :   0.0000 0.5000 0.4000  plane waves:   47890

 maximum and minimum number of plane-waves per node :     12077    11868

 maximum number of plane-waves:     48006
 maximum index in each direction: 
   IXMAX=   43   IYMAX=   12   IZMAX=   21
   IXMIN=  -43   IYMIN=  -12   IZMIN=  -21


 real space projection operators:
  total allocation   :       4529.66 KBytes
  max/ min on nodes  :       1132.94       1131.91


 parallel 3D FFT for wavefunctions:
    minimum data exchange during FFTs selected (reduces bandwidth)
 parallel 3D FFT for charge:
    minimum data exchange during FFTs selected (reduces bandwidth)


 total amount of memory used by VASP MPI-rank0    79349. kBytes
=======================================================================

   base      :      30000. kBytes
   nonlr-proj:       2643. kBytes
   fftplans  :       5898. kBytes
   grid      :       8824. kBytes
   one-center:         93. kBytes
   wavefun   :      31891. kBytes
 
     INWAV:  cpu time    0.0000: real time    0.0000
 Broyden mixing: mesh for mixing (old mesh)
   NGX = 87   NGY = 25   NGZ = 43
  (NGX  =280   NGY  = 80   NGZ  =128)
  gives a total of  93525 points

 initial charge density was supplied:
 charge density of overlapping atoms calculated
 number of electron     144.0000000 magnetization 
 keeping initial charge density in first step


--------------------------------------------------------------------------------------------------------


 Maximum index for non-local projection operator          745
 Maximum index for augmentation-charges          599 (set IRDMAX)


--------------------------------------------------------------------------------------------------------


 First call to EWALD:  gamma=   0.143
 Maximum number of real-space cells 2x 5x 3
 Maximum number of reciprocal cells 5x 2x 3

    FEWALD:  cpu time    0.0071: real time    0.0071


--------------------------------------- Iteration      1(   1)  ---------------------------------------


    POTLOK:  cpu time    0.0644: real time    0.1338
    SETDIJ:  cpu time    0.0023: real time    0.0025
     EDDAV:  cpu time    2.6074: real time    2.6201
 BZINTS: Fermi energy:  7.093273;144.000000 electrons
         Band energy:-463.587886;  BLOECHL correction: -0.025170
       DOS:  cpu time    0.0128: real time    0.0128
    --------------------------------------------
      LOOP:  cpu time    2.6869: real time    2.7692

 eigenvalue-minimisations  :  2768
 total energy-change (2. order) : 0.1195292E+04  (-0.4788886E+04)
 number of electron     144.0000000 magnetization 
 augmentation part      144.0000000 magnetization 

 Free energy of the ion-electron system (eV)
  ---------------------------------------------------
  alpha Z        PSCENC =       170.45750602
  Ewald energy   TEWEN  =     12493.05972199
  -Hartree energ DENC   =    -18600.21588731
  -exchange      EXHF   =         0.00000000
  -V(xc)+E(xc)   XCENC  =        43.05916193
  PAW double counting   =      3692.15173346    -3390.49189382
  entropy T*S    EENTRO =         0.00000000
  eigenvalues    EBANDS =      -463.58788556
  atomic energy  EATOM  =      7250.85976021
  Solvation  Ediel_sol  =         0.00000000
  ---------------------------------------------------
  free energy    TOTEN  =      1195.29221692 eV

  energy without entropy =     1195.29221692  energy(sigma->0) =     1195.29221692


--------------------------------------------------------------------------------------------------------




--------------------------------------- Iteration      1(   2)  ---------------------------------------


     EDDAV:  cpu time    3.2454: real time    3.2637
 BZINTS: Fermi energy: -1.945984;144.000000 electrons
         Band energy:***********;  BLOECHL correction:  0.000000
       DOS:  cpu time    0.0024: real time    0.0024
    --------------------------------------------
      LOOP:  cpu time    3.2478: real time    3.2661

 eigenvalue-minimisations  :  3768
 total energy-change (2. order) :-0.1132295E+04  (-0.1102433E+04)
 number of electron     144.0000000 magnetization 
 augmentation part      144.0000000 magnetization 

 Free energy of the ion-electron system (eV)
  ---------------------------------------------------
  alpha Z        PSCENC =       170.45750602
  Ewald energy   TEWEN  =     12493.05972199
  -Hartree energ DENC   =    -18600.21588731
  -exchange      EXHF   =         0.00000000
  -V(xc)+E(xc)   XCENC  =        43.05916193
  PAW double counting   =      3692.15173346    -3390.49189382
  entropy T*S    EENTRO =         0.00000000
  eigenvalues    EBANDS =     -1595.88308689
  atomic energy  EATOM  =      7250.85976021
  Solvation  Ediel_sol  =         0.00000000
  ---------------------------------------------------
  free energy    TOTEN  =        62.99701559 eV

  energy without entropy =       62.99701559  energy(sigma->0) =       62.99701559


--------------------------------------------------------------------------------------------------------




--------------------------------------- Iteration      1(   3)  ---------------------------------------


     EDDAV:  cpu time    2.9033: real time    2.9213
 BZINTS: Fermi energy: -3.384926;144.000000 electrons
         Band energy:***********;  BLOECHL correction:  0.000000
       DOS:  cpu time    0.0020: real time    0.0020
    --------------------------------------------
      LOOP:  cpu time    2.9054: real time    2.9233

 eigenvalue-minimisations  :  3224
 total energy-change (2. order) :-0.1721174E+03  (-0.1713939E+03)
 number of electron     144.0000000 magnetization 
 augmentation part      144.0000000 magnetization 

 Free energy of the ion-electron system (eV)
  ---------------------------------------------------
  alpha Z        PSCENC =       170.45750602
  Ewald energy   TEWEN  =     12493.05972199
  -Hartree energ DENC   =    -18600.21588731
  -exchange      EXHF   =         0.00000000
  -V(xc)+E(xc)   XCENC  =        43.05916193
  PAW double counting   =      3692.15173346    -3390.49189382
  entropy T*S    EENTRO =         0.00000000
  eigenvalues    EBANDS =     -1768.00047778
  atomic energy  EATOM  =      7250.85976021
  Solvation  Ediel_sol  =         0.00000000
  ---------------------------------------------------
  free energy    TOTEN  =      -109.12037531 eV

  energy without entropy =     -109.12037531  energy(sigma->0) =     -109.12037531


--------------------------------------------------------------------------------------------------------




--------------------------------------- Iteration      1(   4)  ---------------------------------------


     EDDAV:  cpu time    3.2468: real time    3.2651
 BZINTS: Fermi energy: -3.421344;144.000000 electrons
         Band energy:***********;  BLOECHL correction:  0.000000
       DOS:  cpu time    0.0020: real time    0.0020
    --------------------------------------------
      LOOP:  cpu time    3.2488: real time    3.2672

 eigenvalue-minimisations  :  3768
 total energy-change (2. order) :-0.6049992E+01  (-0.6033726E+01)
 number of electron     144.0000000 magnetization 
 augmentation part      144.0000000 magnetization 

 Free energy of the ion-electron system (eV)
  ---------------------------------------------------
  alpha Z        PSCENC =       170.45750602
  Ewald energy   TEWEN  =     12493.05972199
  -Hartree energ DENC   =    -18600.21588731
  -exchange      EXHF   =         0.00000000
  -V(xc)+E(xc)   XCENC  =        43.05916193
  PAW double counting   =      3692.15173346    -3390.49189382
  entropy T*S    EENTRO =         0.00000000
  eigenvalues    EBANDS =     -1774.05046965
  atomic energy  EATOM  =      7250.85976021
  Solvation  Ediel_sol  =         0.00000000
  ---------------------------------------------------
  free energy    TOTEN  =      -115.17036718 eV

  energy without entropy =     -115.17036718  energy(sigma->0) =     -115.17036718


--------------------------------------------------------------------------------------------------------




--------------------------------------- Iteration      1(   5)  ---------------------------------------


     EDDAV:  cpu time    3.5518: real time    3.5712
 BZINTS: Fermi energy: -3.441817;144.000000 electrons
         Band energy:***********;  BLOECHL correction:  0.000000
       DOS:  cpu time    0.0023: real time    0.0023
    CHARGE:  cpu time    0.1546: real time    0.1550
    MIXING:  cpu time    0.0064: real time    0.0066
    --------------------------------------------
      LOOP:  cpu time    3.7152: real time    3.7352

 eigenvalue-minimisations  :  4200
 total energy-change (2. order) :-0.2847352E+00  (-0.2846534E+00)
 number of electron     143.9999991 magnetization 
 augmentation part      -17.5699878 magnetization 

 Broyden mixing:
  rms(total) = 0.90933E+00    rms(broyden)= 0.90933E+00
  rms(prec ) = 0.11982E+01
  weight for this iteration     100.00

 Free energy of the ion-electron system (eV)
  ---------------------------------------------------
  alpha Z        PSCENC =       170.45750602
  Ewald energy   TEWEN  =     12493.05972199
  -Hartree energ DENC   =    -18600.21588731
  -exchange      EXHF   =         0.00000000
  -V(xc)+E(xc)   XCENC  =        43.05916193
  PAW double counting   =      3692.15173346    -3390.49189382
  entropy T*S    EENTRO =         0.00000000
  eigenvalues    EBANDS =     -1774.33520481
  atomic energy  EATOM  =      7250.85976021
  Solvation  Ediel_sol  =         0.00000000
  ---------------------------------------------------
  free energy    TOTEN  =      -115.45510233 eV

  energy without entropy =     -115.45510233  energy(sigma->0) =     -115.45510233


--------------------------------------------------------------------------------------------------------




--------------------------------------- Iteration      1(   6)  ---------------------------------------


    POTLOK:  cpu time    0.0579: real time    0.0683
    SETDIJ:  cpu time    0.0019: real time    0.0019
     EDDAV:  cpu time    2.7332: real time    2.7397
 BZINTS: Fermi energy: -2.227588;144.000000 electrons
         Band energy:***********;  BLOECHL correction:  0.000000
       DOS:  cpu time    0.0023: real time    0.0023
    CHARGE:  cpu time    0.1527: real time    0.1530
    MIXING:  cpu time    0.0081: real time    0.0082
    --------------------------------------------
      LOOP:  cpu time    2.9562: real time    2.9734

 eigenvalue-minimisations  :  3000
 total energy-change (2. order) : 0.8322971E+01  (-0.2047983E+01)
 number of electron     143.9999991 magnetization 
 augmentation part      -17.4647093 magnetization 

 Broyden mixing:
  rms(total) = 0.46326E+00    rms(broyden)= 0.46326E+00
  rms(prec ) = 0.58778E+00
  weight for this iteration     100.00

 eigenvalues of (default mixing * dielectric matrix)
  average eigenvalue GAMMA=   1.5327
  1.5327

 Free energy of the ion-electron system (eV)
  ---------------------------------------------------
  alpha Z        PSCENC =       170.45750602
  Ewald energy   TEWEN  =     12493.05972199
  -Hartree energ DENC   =    -18700.54664922
  -exchange      EXHF   =         0.00000000
  -V(xc)+E(xc)   XCENC  =        45.77285623
  PAW double counting   =      3732.22355605    -3437.73313820
  entropy T*S    EENTRO =         0.00000000
  eigenvalues    EBANDS =     -1661.22574432
  atomic energy  EATOM  =      7250.85976021
  Solvation  Ediel_sol  =         0.00000000
  ---------------------------------------------------
  free energy    TOTEN  =      -107.13213124 eV

  energy without entropy =     -107.13213124  energy(sigma->0) =     -107.13213124


--------------------------------------------------------------------------------------------------------




--------------------------------------- Iteration      1(   7)  ---------------------------------------


    POTLOK:  cpu time    0.0558: real time    0.0659
    SETDIJ:  cpu time    0.0021: real time    0.0021
     EDDAV:  cpu time    3.0363: real time    3.0435
 BZINTS: Fermi energy: -1.352583;144.000000 electrons
         Band energy:***********;  BLOECHL correction:  0.000000
       DOS:  cpu time    0.0022: real time    0.0022
    CHARGE:  cpu time    0.1525: real time    0.1529
    MIXING:  cpu time    0.0050: real time    0.0054
    --------------------------------------------
      LOOP:  cpu time    3.2540: real time    3.2721

 eigenvalue-minimisations  :  3480
 total energy-change (2. order) : 0.1381827E+01  (-0.9689424E+00)
 number of electron     143.9999990 magnetization 
 augmentation part      -17.5497484 magnetization 

 Broyden mixing:
  rms(total) = 0.24453E+00    rms(broyden)= 0.24453E+00
  rms(prec ) = 0.29704E+00
  weight for this iteration     100.00

 eigenvalues of (default mixing * dielectric matrix)
  average eigenvalue GAMMA=   1.8331
  1.8331  1.8331

 Free energy of the ion-electron system (eV)
  ---------------------------------------------------
  alpha Z        PSCENC =       170.45750602
  Ewald energy   TEWEN  =     12493.05972199
  -Hartree energ DENC   =    -18782.12065978
  -exchange      EXHF   =         0.00000000
  -V(xc)+E(xc)   XCENC  =        48.03171218
  PAW double counting   =      3781.66982452    -3493.02201477
  entropy T*S    EENTRO =         0.00000000
  eigenvalues    EBANDS =     -1574.68615487
  atomic energy  EATOM  =      7250.85976021
  Solvation  Ediel_sol  =         0.00000000
  ---------------------------------------------------
  free energy    TOTEN  =      -105.75030449 eV

  energy without entropy =     -105.75030449  energy(sigma->0) =     -105.75030449


--------------------------------------------------------------------------------------------------------




--------------------------------------- Iteration      1(   8)  ---------------------------------------


    POTLOK:  cpu time    0.0566: real time    0.0670
    SETDIJ:  cpu time    0.0015: real time    0.0015
     EDDAV:  cpu time    2.8148: real time    2.8214
 BZINTS: Fermi energy: -1.229282;144.000000 electrons
         Band energy:***********;  BLOECHL correction:  0.000000
       DOS:  cpu time    0.0023: real time    0.0023
    CHARGE:  cpu time    0.1495: real time    0.1498
    MIXING:  cpu time    0.0053: real time    0.0056
    --------------------------------------------
      LOOP:  cpu time    3.0298: real time    3.0476

 eigenvalue-minimisations  :  3112
 total energy-change (2. order) : 0.2384258E+00  (-0.3478558E+00)
 number of electron     143.9999990 magnetization 
 augmentation part      -17.6731264 magnetization 

 Broyden mixing:
  rms(total) = 0.11533E+00    rms(broyden)= 0.11533E+00
  rms(prec ) = 0.19159E+00
  weight for this iteration     100.00

 eigenvalues of (default mixing * dielectric matrix)
  average eigenvalue GAMMA=   1.6722
  2.6054  1.2056  1.2056

 Free energy of the ion-electron system (eV)
  ---------------------------------------------------
  alpha Z        PSCENC =       170.45750602
  Ewald energy   TEWEN  =     12493.05972199
  -Hartree energ DENC   =    -18819.42594198
  -exchange      EXHF   =         0.00000000
  -V(xc)+E(xc)   XCENC  =        48.99453083
  PAW double counting   =      3831.15435617    -3544.34475370
  entropy T*S    EENTRO =         0.00000000
  eigenvalues    EBANDS =     -1536.26705821
  atomic energy  EATOM  =      7250.85976021
  Solvation  Ediel_sol  =         0.00000000
  ---------------------------------------------------
  free energy    TOTEN  =      -105.51187866 eV

  energy without entropy =     -105.51187866  energy(sigma->0) =     -105.51187866


--------------------------------------------------------------------------------------------------------




--------------------------------------- Iteration      1(   9)  ---------------------------------------


    POTLOK:  cpu time    0.0562: real time    0.0665
    SETDIJ:  cpu time    0.0016: real time    0.0016
     EDDAV:  cpu time    2.8016: real time    2.8082
 BZINTS: Fermi energy: -0.802163;144.000000 electrons
         Band energy:***********;  BLOECHL correction:  0.000000
       DOS:  cpu time    0.0020: real time    0.0020
    CHARGE:  cpu time    0.1543: real time    0.1547
    MIXING:  cpu time    0.0056: real time    0.0057
    --------------------------------------------
      LOOP:  cpu time    3.0212: real time    3.0385

 eigenvalue-minimisations  :  3112
 total energy-change (2. order) : 0.2803433E+00  (-0.1230302E+00)
 number of electron     143.9999990 magnetization 
 augmentation part      -17.6509806 magnetization 

 Broyden mixing:
  rms(total) = 0.58560E-01    rms(broyden)= 0.58560E-01
  rms(prec ) = 0.82454E-01
  weight for this iteration     100.00

 eigenvalues of (default mixing * dielectric matrix)
  average eigenvalue GAMMA=   1.4107
  2.5222  1.2043  1.2043  0.7120

 Free energy of the ion-electron system (eV)
  ---------------------------------------------------
  alpha Z        PSCENC =       170.45750602
  Ewald energy   TEWEN  =     12493.05972199
  -Hartree energ DENC   =    -18863.20646270
  -exchange      EXHF   =         0.00000000
  -V(xc)+E(xc)   XCENC  =        49.94201881
  PAW double counting   =      3843.32924615    -3557.91071864
  entropy T*S    EENTRO =         0.00000000
  eigenvalues    EBANDS =     -1491.76260724
  atomic energy  EATOM  =      7250.85976021
  Solvation  Ediel_sol  =         0.00000000
  ---------------------------------------------------
  free energy    TOTEN  =      -105.23153539 eV

  energy without entropy =     -105.23153539  energy(sigma->0) =     -105.23153539


--------------------------------------------------------------------------------------------------------




--------------------------------------- Iteration      1(  10)  ---------------------------------------


    POTLOK:  cpu time    0.0566: real time    0.0673
    SETDIJ:  cpu time    0.0015: real time    0.0015
     EDDAV:  cpu time    3.0505: real time    3.0577
 BZINTS: Fermi energy: -0.761922;144.000000 electrons
         Band energy:***********;  BLOECHL correction:  0.000000
       DOS:  cpu time    0.0020: real time    0.0020
    CHARGE:  cpu time    0.1464: real time    0.1468
    MIXING:  cpu time    0.0052: real time    0.0052
    --------------------------------------------
      LOOP:  cpu time    3.2622: real time    3.2806

 eigenvalue-minimisations  :  3480
 total energy-change (2. order) :-0.1821346E-01  (-0.2272921E-01)
 number of electron     143.9999990 magnetization 
 augmentation part      -17.6741868 magnetization 

 Broyden mixing:
  rms(total) = 0.41657E-01    rms(broyden)= 0.41657E-01
  rms(prec ) = 0.63259E-01
  weight for this iteration     100.00

 eigenvalues of (default mixing * dielectric matrix)
  average eigenvalue GAMMA=   1.6032
  2.4922  2.4922  0.9741  0.9741  1.0834

 Free energy of the ion-electron system (eV)
  ---------------------------------------------------
  alpha Z        PSCENC =       170.45750602
  Ewald energy   TEWEN  =     12493.05972199
  -Hartree energ DENC   =    -18871.92692467
  -exchange      EXHF   =         0.00000000
  -V(xc)+E(xc)   XCENC  =        49.91771112
  PAW double counting   =      3838.16165357    -3552.34281961
  entropy T*S    EENTRO =         0.00000000
  eigenvalues    EBANDS =     -1483.43635747
  atomic energy  EATOM  =      7250.85976021
  Solvation  Ediel_sol  =         0.00000000
  ---------------------------------------------------
  free energy    TOTEN  =      -105.24974884 eV

  energy without entropy =     -105.24974884  energy(sigma->0) =     -105.24974884


--------------------------------------------------------------------------------------------------------




--------------------------------------- Iteration      1(  11)  ---------------------------------------


    POTLOK:  cpu time    0.0560: real time    0.0663
    SETDIJ:  cpu time    0.0019: real time    0.0019
     EDDAV:  cpu time    2.7395: real time    2.7460
 BZINTS: Fermi energy: -0.629034;144.000000 electrons
         Band energy:***********;  BLOECHL correction:  0.000000
       DOS:  cpu time    0.0020: real time    0.0020
    CHARGE:  cpu time    0.1447: real time    0.1450
    MIXING:  cpu time    0.0047: real time    0.0047
    --------------------------------------------
      LOOP:  cpu time    2.9488: real time    2.9660

 eigenvalue-minimisations  :  3096
 total energy-change (2. order) : 0.9113595E-02  (-0.6593312E-02)
 number of electron     143.9999990 magnetization 
 augmentation part      -17.6772234 magnetization 

 Broyden mixing:
  rms(total) = 0.16911E-01    rms(broyden)= 0.16911E-01
  rms(prec ) = 0.33638E-01
  weight for this iteration     100.00

 eigenvalues of (default mixing * dielectric matrix)
  average eigenvalue GAMMA=   1.6197
  2.8016  2.8016  1.2565  0.9804  0.9804  0.8980

 Free energy of the ion-electron system (eV)
  ---------------------------------------------------
  alpha Z        PSCENC =       170.45750602
  Ewald energy   TEWEN  =     12493.05972199
  -Hartree energ DENC   =    -18892.43254752
  -exchange      EXHF   =         0.00000000
  -V(xc)+E(xc)   XCENC  =        50.10483407
  PAW double counting   =      3838.84151178    -3552.70773556
  entropy T*S    EENTRO =         0.00000000
  eigenvalues    EBANDS =     -1463.42368624
  atomic energy  EATOM  =      7250.85976021
  Solvation  Ediel_sol  =         0.00000000
  ---------------------------------------------------
  free energy    TOTEN  =      -105.24063525 eV

  energy without entropy =     -105.24063525  energy(sigma->0) =     -105.24063525


--------------------------------------------------------------------------------------------------------




--------------------------------------- Iteration      1(  12)  ---------------------------------------


    POTLOK:  cpu time    0.0547: real time    0.0655
    SETDIJ:  cpu time    0.0015: real time    0.0015
     EDDAV:  cpu time    2.6893: real time    2.6956
 BZINTS: Fermi energy: -0.550863;144.000000 electrons
         Band energy:***********;  BLOECHL correction:  0.000000
       DOS:  cpu time    0.0019: real time    0.0019
    CHARGE:  cpu time    0.1468: real time    0.1471
    MIXING:  cpu time    0.0068: real time    0.0068
    --------------------------------------------
      LOOP:  cpu time    2.9009: real time    2.9185

 eigenvalue-minimisations  :  3088
 total energy-change (2. order) :-0.4652313E-02  (-0.1595455E-02)
 number of electron     143.9999990 magnetization 
 augmentation part      -17.6710909 magnetization 

 Broyden mixing:
  rms(total) = 0.12561E-01    rms(broyden)= 0.12561E-01
  rms(prec ) = 0.21724E-01
  weight for this iteration     100.00

 eigenvalues of (default mixing * dielectric matrix)
  average eigenvalue GAMMA=   1.7845
  3.8567  2.5691  1.9976  1.1257  1.1257  0.9084  0.9084

 Free energy of the ion-electron system (eV)
  ---------------------------------------------------
  alpha Z        PSCENC =       170.45750602
  Ewald energy   TEWEN  =     12493.05972199
  -Hartree energ DENC   =    -18905.60858548
  -exchange      EXHF   =         0.00000000
  -V(xc)+E(xc)   XCENC  =        50.18006676
  PAW double counting   =      3836.55390594    -3550.29560412
  entropy T*S    EENTRO =         0.00000000
  eigenvalues    EBANDS =     -1450.45205889
  atomic energy  EATOM  =      7250.85976021
  Solvation  Ediel_sol  =         0.00000000
  ---------------------------------------------------
  free energy    TOTEN  =      -105.24528756 eV

  energy without entropy =     -105.24528756  energy(sigma->0) =     -105.24528756


--------------------------------------------------------------------------------------------------------




--------------------------------------- Iteration      1(  13)  ---------------------------------------


    POTLOK:  cpu time    0.0577: real time    0.0677
    SETDIJ:  cpu time    0.0017: real time    0.0017
     EDDAV:  cpu time    2.7435: real time    2.7500
 BZINTS: Fermi energy: -0.490150;144.000000 electrons
         Band energy:***********;  BLOECHL correction:  0.000000
       DOS:  cpu time    0.0020: real time    0.0020
    CHARGE:  cpu time    0.1585: real time    0.1589
    MIXING:  cpu time    0.0055: real time    0.0056
    --------------------------------------------
      LOOP:  cpu time    2.9691: real time    2.9859

 eigenvalue-minimisations  :  3200
 total energy-change (2. order) :-0.1016049E-01  (-0.1039313E-02)
 number of electron     143.9999990 magnetization 
 augmentation part      -17.6731349 magnetization 

 Broyden mixing:
  rms(total) = 0.64676E-02    rms(broyden)= 0.64676E-02
  rms(prec ) = 0.10863E-01
  weight for this iteration     100.00

 eigenvalues of (default mixing * dielectric matrix)
  average eigenvalue GAMMA=   1.8296
  4.2038  2.9152  2.3765  1.2302  1.2302  0.8951  0.8929  0.8929

 Free energy of the ion-electron system (eV)
  ---------------------------------------------------
  alpha Z        PSCENC =       170.45750602
  Ewald energy   TEWEN  =     12493.05972199
  -Hartree energ DENC   =    -18916.91930599
  -exchange      EXHF   =         0.00000000
  -V(xc)+E(xc)   XCENC  =        50.23448204
  PAW double counting   =      3834.70524761    -3548.54712616
  entropy T*S    EENTRO =         0.00000000
  eigenvalues    EBANDS =     -1439.10573379
  atomic energy  EATOM  =      7250.85976021
  Solvation  Ediel_sol  =         0.00000000
  ---------------------------------------------------
  free energy    TOTEN  =      -105.25544805 eV

  energy without entropy =     -105.25544805  energy(sigma->0) =     -105.25544805


--------------------------------------------------------------------------------------------------------




--------------------------------------- Iteration      1(  14)  ---------------------------------------


    POTLOK:  cpu time    0.0575: real time    0.0677
    SETDIJ:  cpu time    0.0015: real time    0.0015
     EDDAV:  cpu time    2.7009: real time    2.7073
 BZINTS: Fermi energy: -0.388030;144.000000 electrons
         Band energy:***********;  BLOECHL correction:  0.000000
       DOS:  cpu time    0.0024: real time    0.0024
    CHARGE:  cpu time    0.1482: real time    0.1485
    MIXING:  cpu time    0.0067: real time    0.0068
    --------------------------------------------
      LOOP:  cpu time    2.9172: real time    2.9341

 eigenvalue-minimisations  :  3168
 total energy-change (2. order) :-0.5789204E-02  (-0.3062049E-03)
 number of electron     143.9999990 magnetization 
 augmentation part      -17.6737271 magnetization 

 Broyden mixing:
  rms(total) = 0.55182E-02    rms(broyden)= 0.55182E-02
  rms(prec ) = 0.88332E-02
  weight for this iteration     100.00

 eigenvalues of (default mixing * dielectric matrix)
  average eigenvalue GAMMA=   1.8808
  4.6468  3.1773  2.0338  1.8246  1.3817  0.9176  0.9176  1.0137  1.0137

 Free energy of the ion-electron system (eV)
  ---------------------------------------------------
  alpha Z        PSCENC =       170.45750602
  Ewald energy   TEWEN  =     12493.05972199
  -Hartree energ DENC   =    -18920.35181244
  -exchange      EXHF   =         0.00000000
  -V(xc)+E(xc)   XCENC  =        50.23432779
  PAW double counting   =      3833.84097126    -3547.69468092
  entropy T*S    EENTRO =         0.00000000
  eigenvalues    EBANDS =     -1435.66703117
  atomic energy  EATOM  =      7250.85976021
  Solvation  Ediel_sol  =         0.00000000
  ---------------------------------------------------
  free energy    TOTEN  =      -105.26123726 eV

  energy without entropy =     -105.26123726  energy(sigma->0) =     -105.26123726


--------------------------------------------------------------------------------------------------------




--------------------------------------- Iteration      1(  15)  ---------------------------------------


    POTLOK:  cpu time    0.0581: real time    0.0693
    SETDIJ:  cpu time    0.0058: real time    0.0058
     EDDAV:  cpu time    2.6277: real time    2.6339
 BZINTS: Fermi energy: -0.466061;144.000000 electrons
         Band energy:***********;  BLOECHL correction:  0.000000
       DOS:  cpu time    0.0020: real time    0.0020
    CHARGE:  cpu time    0.1456: real time    0.1460
    MIXING:  cpu time    0.0060: real time    0.0061
    --------------------------------------------
      LOOP:  cpu time    2.8453: real time    2.8631

 eigenvalue-minimisations  :  3000
 total energy-change (2. order) :-0.2297890E-02  (-0.1925287E-03)
 number of electron     143.9999990 magnetization 
 augmentation part      -17.6753909 magnetization 

 Broyden mixing:
  rms(total) = 0.20229E-02    rms(broyden)= 0.20229E-02
  rms(prec ) = 0.38346E-02
  weight for this iteration     100.00

 eigenvalues of (default mixing * dielectric matrix)
  average eigenvalue GAMMA=   1.9691
  5.4261  3.6659  2.4598  1.6933  0.9151  0.9151  1.2949  1.2949  1.0131  1.0131

 Free energy of the ion-electron system (eV)
  ---------------------------------------------------
  alpha Z        PSCENC =       170.45750602
  Ewald energy   TEWEN  =     12493.05972199
  -Hartree energ DENC   =    -18922.03354487
  -exchange      EXHF   =         0.00000000
  -V(xc)+E(xc)   XCENC  =        50.22918789
  PAW double counting   =      3834.34431261    -3548.16777456
  entropy T*S    EENTRO =         0.00000000
  eigenvalues    EBANDS =     -1434.01270444
  atomic energy  EATOM  =      7250.85976021
  Solvation  Ediel_sol  =         0.00000000
  ---------------------------------------------------
  free energy    TOTEN  =      -105.26353515 eV

  energy without entropy =     -105.26353515  energy(sigma->0) =     -105.26353515


--------------------------------------------------------------------------------------------------------




--------------------------------------- Iteration      1(  16)  ---------------------------------------


    POTLOK:  cpu time    0.0578: real time    0.0680
    SETDIJ:  cpu time    0.0015: real time    0.0015
     EDDAV:  cpu time    2.7162: real time    2.7226
 BZINTS: Fermi energy: -0.374254;144.000000 electrons
         Band energy:***********;  BLOECHL correction:  0.000000
       DOS:  cpu time    0.0025: real time    0.0026
    CHARGE:  cpu time    0.1606: real time    0.1610
    MIXING:  cpu time    0.0057: real time    0.0058
    --------------------------------------------
      LOOP:  cpu time    2.9444: real time    2.9614

 eigenvalue-minimisations  :  3136
 total energy-change (2. order) :-0.1046172E-02  (-0.6391539E-04)
 number of electron     143.9999990 magnetization 
 augmentation part      -17.6754261 magnetization 

 Broyden mixing:
  rms(total) = 0.14795E-02    rms(broyden)= 0.14795E-02
  rms(prec ) = 0.26082E-02
  weight for this iteration     100.00

 eigenvalues of (default mixing * dielectric matrix)
  average eigenvalue GAMMA=   2.0291
  5.7516  4.0165  2.4475  1.8644  1.8644  0.9188  0.9188  1.2821  1.2821  0.9868
  0.9868

 Free energy of the ion-electron system (eV)
  ---------------------------------------------------
  alpha Z        PSCENC =       170.45750602
  Ewald energy   TEWEN  =     12493.05972199
  -Hartree energ DENC   =    -18923.32084254
  -exchange      EXHF   =         0.00000000
  -V(xc)+E(xc)   XCENC  =        50.22635748
  PAW double counting   =      3834.48588070    -3548.31898917
  entropy T*S    EENTRO =         0.00000000
  eigenvalues    EBANDS =     -1432.71397601
  atomic energy  EATOM  =      7250.85976021
  Solvation  Ediel_sol  =         0.00000000
  ---------------------------------------------------
  free energy    TOTEN  =      -105.26458132 eV

  energy without entropy =     -105.26458132  energy(sigma->0) =     -105.26458132


--------------------------------------------------------------------------------------------------------




--------------------------------------- Iteration      1(  17)  ---------------------------------------


    POTLOK:  cpu time    0.0575: real time    0.0673
    SETDIJ:  cpu time    0.0043: real time    0.0043
     EDDAV:  cpu time    2.7019: real time    2.7083
 BZINTS: Fermi energy: -0.371078;144.000000 electrons
         Band energy:***********;  BLOECHL correction:  0.000000
       DOS:  cpu time    0.0024: real time    0.0024
    CHARGE:  cpu time    0.1447: real time    0.1450
    MIXING:  cpu time    0.0063: real time    0.0064
    --------------------------------------------
      LOOP:  cpu time    2.9171: real time    2.9337

 eigenvalue-minimisations  :  3136
 total energy-change (2. order) :-0.5064304E-03  (-0.2305370E-04)
 number of electron     143.9999990 magnetization 
 augmentation part      -17.6753371 magnetization 

 Broyden mixing:
  rms(total) = 0.80187E-03    rms(broyden)= 0.80187E-03
  rms(prec ) = 0.15782E-02
  weight for this iteration     100.00

 eigenvalues of (default mixing * dielectric matrix)
  average eigenvalue GAMMA=   2.0375
  5.9615  4.3791  2.7289  2.1827  1.6922  1.3416  1.3416  0.9182  0.9182  0.9478
  1.0192  1.0192

 Free energy of the ion-electron system (eV)
  ---------------------------------------------------
  alpha Z        PSCENC =       170.45750602
  Ewald energy   TEWEN  =     12493.05972199
  -Hartree energ DENC   =    -18924.31291247
  -exchange      EXHF   =         0.00000000
  -V(xc)+E(xc)   XCENC  =        50.22828249
  PAW double counting   =      3834.46551723    -3548.29552804
  entropy T*S    EENTRO =         0.00000000
  eigenvalues    EBANDS =     -1431.72743518
  atomic energy  EATOM  =      7250.85976021
  Solvation  Ediel_sol  =         0.00000000
  ---------------------------------------------------
  free energy    TOTEN  =      -105.26508775 eV

  energy without entropy =     -105.26508775  energy(sigma->0) =     -105.26508775


--------------------------------------------------------------------------------------------------------




--------------------------------------- Iteration      1(  18)  ---------------------------------------


    POTLOK:  cpu time    0.0556: real time    0.0663
    SETDIJ:  cpu time    0.0014: real time    0.0014
     EDDAV:  cpu time    2.4691: real time    2.4749
 BZINTS: Fermi energy: -0.372341;144.000000 electrons
         Band energy:***********;  BLOECHL correction:  0.000000
       DOS:  cpu time    0.0023: real time    0.0023
    CHARGE:  cpu time    0.1471: real time    0.1475
    MIXING:  cpu time    0.0095: real time    0.0095
    --------------------------------------------
      LOOP:  cpu time    2.6851: real time    2.7020

 eigenvalue-minimisations  :  2744
 total energy-change (2. order) :-0.4686894E-03  (-0.1061791E-04)
 number of electron     143.9999990 magnetization 
 augmentation part      -17.6752932 magnetization 

 Broyden mixing:
  rms(total) = 0.53717E-03    rms(broyden)= 0.53717E-03
  rms(prec ) = 0.10221E-02
  weight for this iteration     100.00

 eigenvalues of (default mixing * dielectric matrix)
  average eigenvalue GAMMA=   2.1078
  6.3353  4.8725  2.9332  2.4772  1.8190  1.4529  1.4529  0.9172  0.9172  1.1551
  1.1551  0.9566  0.9566

 Free energy of the ion-electron system (eV)
  ---------------------------------------------------
  alpha Z        PSCENC =       170.45750602
  Ewald energy   TEWEN  =     12493.05972199
  -Hartree energ DENC   =    -18924.77644309
  -exchange      EXHF   =         0.00000000
  -V(xc)+E(xc)   XCENC  =        50.22941558
  PAW double counting   =      3834.48068037    -3548.30963151
  entropy T*S    EENTRO =         0.00000000
  eigenvalues    EBANDS =     -1431.26656601
  atomic energy  EATOM  =      7250.85976021
  Solvation  Ediel_sol  =         0.00000000
  ---------------------------------------------------
  free energy    TOTEN  =      -105.26555644 eV

  energy without entropy =     -105.26555644  energy(sigma->0) =     -105.26555644


--------------------------------------------------------------------------------------------------------




--------------------------------------- Iteration      1(  19)  ---------------------------------------


    POTLOK:  cpu time    0.0588: real time    0.0685
    SETDIJ:  cpu time    0.0127: real time    0.0128
     EDDAV:  cpu time    2.3920: real time    2.3977
 BZINTS: Fermi energy: -0.375039;144.000000 electrons
         Band energy:***********;  BLOECHL correction:  0.000000
       DOS:  cpu time    0.0024: real time    0.0024
    CHARGE:  cpu time    0.1793: real time    0.1798
    MIXING:  cpu time    0.0066: real time    0.0067
    --------------------------------------------
      LOOP:  cpu time    2.6519: real time    2.6678

 eigenvalue-minimisations  :  2632
 total energy-change (2. order) :-0.5672473E-03  (-0.6123096E-05)
 number of electron     143.9999990 magnetization 
 augmentation part      -17.6754039 magnetization 

 Broyden mixing:
  rms(total) = 0.40573E-03    rms(broyden)= 0.40573E-03
  rms(prec ) = 0.62544E-03
  weight for this iteration     100.00

 eigenvalues of (default mixing * dielectric matrix)
  average eigenvalue GAMMA=   2.1762
  6.4686  5.4959  3.2952  2.6144  2.0634  1.6190  1.6190  0.9172  0.9172  1.2374
  1.2374  0.9574  1.0127  1.0127

 Free energy of the ion-electron system (eV)
  ---------------------------------------------------
  alpha Z        PSCENC =       170.45750602
  Ewald energy   TEWEN  =     12493.05972199
  -Hartree energ DENC   =    -18925.14015186
  -exchange      EXHF   =         0.00000000
  -V(xc)+E(xc)   XCENC  =        50.22856366
  PAW double counting   =      3834.43412792    -3548.26094745
  entropy T*S    EENTRO =         0.00000000
  eigenvalues    EBANDS =     -1430.90470418
  atomic energy  EATOM  =      7250.85976021
  Solvation  Ediel_sol  =         0.00000000
  ---------------------------------------------------
  free energy    TOTEN  =      -105.26612369 eV

  energy without entropy =     -105.26612369  energy(sigma->0) =     -105.26612369


--------------------------------------------------------------------------------------------------------




--------------------------------------- Iteration      1(  20)  ---------------------------------------


    POTLOK:  cpu time    0.0558: real time    0.0669
    SETDIJ:  cpu time    0.0044: real time    0.0044
     EDDAV:  cpu time    2.3764: real time    2.3820
 BZINTS: Fermi energy: -0.379389;144.000000 electrons
         Band energy:***********;  BLOECHL correction:  0.000000
       DOS:  cpu time    0.0023: real time    0.0024
    CHARGE:  cpu time    0.1760: real time    0.1764
    MIXING:  cpu time    0.0078: real time    0.0079
    --------------------------------------------
      LOOP:  cpu time    2.6227: real time    2.6399

 eigenvalue-minimisations  :  2592
 total energy-change (2. order) :-0.4129086E-03  (-0.6219745E-05)
 number of electron     143.9999990 magnetization 
 augmentation part      -17.6754497 magnetization 

 Broyden mixing:
  rms(total) = 0.17998E-03    rms(broyden)= 0.17998E-03
  rms(prec ) = 0.26808E-03
  weight for this iteration     100.00

 eigenvalues of (default mixing * dielectric matrix)
  average eigenvalue GAMMA=   2.2898
  7.2430  6.3546  3.5343  3.0787  2.3495  1.6606  1.6606  0.9173  0.9173  1.2742
  1.2742  1.0850  1.0850  0.9565  0.9565

 Free energy of the ion-electron system (eV)
  ---------------------------------------------------
  alpha Z        PSCENC =       170.45750602
  Ewald energy   TEWEN  =     12493.05972199
  -Hartree energ DENC   =    -18925.28820275
  -exchange      EXHF   =         0.00000000
  -V(xc)+E(xc)   XCENC  =        50.22861693
  PAW double counting   =      3834.42791189    -3548.25487414
  entropy T*S    EENTRO =         0.00000000
  eigenvalues    EBANDS =     -1430.75697675
  atomic energy  EATOM  =      7250.85976021
  Solvation  Ediel_sol  =         0.00000000
  ---------------------------------------------------
  free energy    TOTEN  =      -105.26653660 eV

  energy without entropy =     -105.26653660  energy(sigma->0) =     -105.26653660


--------------------------------------------------------------------------------------------------------




--------------------------------------- Iteration      1(  21)  ---------------------------------------


    POTLOK:  cpu time    0.0559: real time    0.0665
    SETDIJ:  cpu time    0.0074: real time    0.0075
     EDDAV:  cpu time    2.2625: real time    2.2679
 BZINTS: Fermi energy: -0.384298;144.000000 electrons
         Band energy:***********;  BLOECHL correction:  0.000000
       DOS:  cpu time    0.0024: real time    0.0024
    CHARGE:  cpu time    0.1776: real time    0.1781
    MIXING:  cpu time    0.0082: real time    0.0082
    --------------------------------------------
      LOOP:  cpu time    2.5141: real time    2.5306

 eigenvalue-minimisations  :  2392
 total energy-change (2. order) :-0.1677784E-03  (-0.2449857E-05)
 number of electron     143.9999990 magnetization 
 augmentation part      -17.6754219 magnetization 

 Broyden mixing:
  rms(total) = 0.11032E-03    rms(broyden)= 0.11032E-03
  rms(prec ) = 0.13351E-03
  weight for this iteration     100.00

 eigenvalues of (default mixing * dielectric matrix)
  average eigenvalue GAMMA=   2.3586
  8.2274  6.6861  3.7681  3.1353  2.3860  1.8828  1.8828  0.9173  0.9173  1.3252
  1.3252  1.1742  1.1742  0.9730  0.9730  0.9898

 Free energy of the ion-electron system (eV)
  ---------------------------------------------------
  alpha Z        PSCENC =       170.45750602
  Ewald energy   TEWEN  =     12493.05972199
  -Hartree energ DENC   =    -18925.27194385
  -exchange      EXHF   =         0.00000000
  -V(xc)+E(xc)   XCENC  =        50.22785694
  PAW double counting   =      3834.42374003    -3548.25131319
  entropy T*S    EENTRO =         0.00000000
  eigenvalues    EBANDS =     -1430.77203253
  atomic energy  EATOM  =      7250.85976021
  Solvation  Ediel_sol  =         0.00000000
  ---------------------------------------------------
  free energy    TOTEN  =      -105.26670437 eV

  energy without entropy =     -105.26670437  energy(sigma->0) =     -105.26670437


--------------------------------------------------------------------------------------------------------




--------------------------------------- Iteration      1(  22)  ---------------------------------------


    POTLOK:  cpu time    0.0584: real time    0.0683
    SETDIJ:  cpu time    0.0047: real time    0.0047
     EDDAV:  cpu time    2.2805: real time    2.2859
 BZINTS: Fermi energy: -0.388533;144.000000 electrons
         Band energy:***********;  BLOECHL correction:  0.000000
       DOS:  cpu time    0.0024: real time    0.0024
    CHARGE:  cpu time    0.1583: real time    0.1586
    MIXING:  cpu time    0.0076: real time    0.0077
    --------------------------------------------
      LOOP:  cpu time    2.5118: real time    2.5275

 eigenvalue-minimisations  :  2448
 total energy-change (2. order) :-0.3578258E-04  (-0.3257765E-06)
 number of electron     143.9999990 magnetization 
 augmentation part      -17.6754079 magnetization 

 Broyden mixing:
  rms(total) = 0.51729E-04    rms(broyden)= 0.51729E-04
  rms(prec ) = 0.66128E-04
  weight for this iteration     100.00

 eigenvalues of (default mixing * dielectric matrix)
  average eigenvalue GAMMA=   2.3792
  8.8492  6.9071  3.8590  3.3252  2.5451  2.1205  1.6872  0.9173  0.9173  1.4921
  1.2847  1.2847  1.2006  1.0800  1.0800  0.9484  0.9484

 Free energy of the ion-electron system (eV)
  ---------------------------------------------------
  alpha Z        PSCENC =       170.45750602
  Ewald energy   TEWEN  =     12493.05972199
  -Hartree energ DENC   =    -18925.28102528
  -exchange      EXHF   =         0.00000000
  -V(xc)+E(xc)   XCENC  =        50.22775128
  PAW double counting   =      3834.41299513    -3548.24049321
  entropy T*S    EENTRO =         0.00000000
  eigenvalues    EBANDS =     -1430.76295630
  atomic energy  EATOM  =      7250.85976021
  Solvation  Ediel_sol  =         0.00000000
  ---------------------------------------------------
  free energy    TOTEN  =      -105.26674016 eV

  energy without entropy =     -105.26674016  energy(sigma->0) =     -105.26674016


--------------------------------------------------------------------------------------------------------




--------------------------------------- Iteration      1(  23)  ---------------------------------------


    POTLOK:  cpu time    0.0587: real time    0.0686
    SETDIJ:  cpu time    0.0048: real time    0.0048
     EDDAV:  cpu time    2.0974: real time    2.1024
 BZINTS: Fermi energy: -0.392382;144.000000 electrons
         Band energy:***********;  BLOECHL correction:  0.000000
       DOS:  cpu time    0.0024: real time    0.0025
    CHARGE:  cpu time    0.1724: real time    0.1728
    MIXING:  cpu time    0.0087: real time    0.0087
    --------------------------------------------
      LOOP:  cpu time    2.3444: real time    2.3599

 eigenvalue-minimisations  :  2144
 total energy-change (2. order) :-0.1865602E-04  (-0.1629914E-06)
 number of electron     143.9999990 magnetization 
 augmentation part      -17.6754091 magnetization 

 Broyden mixing:
  rms(total) = 0.23089E-04    rms(broyden)= 0.23089E-04
  rms(prec ) = 0.30039E-04
  weight for this iteration     100.00

 eigenvalues of (default mixing * dielectric matrix)
  average eigenvalue GAMMA=   2.3669
  8.9767  6.9851  3.7152  3.7152  2.5514  2.0863  1.8867  1.8867  0.9173  0.9173
  1.2667  1.2667  1.2027  1.2027  1.0922  0.9659  0.9659  1.0028

 Free energy of the ion-electron system (eV)
  ---------------------------------------------------
  alpha Z        PSCENC =       170.45750602
  Ewald energy   TEWEN  =     12493.05972199
  -Hartree energ DENC   =    -18925.26745265
  -exchange      EXHF   =         0.00000000
  -V(xc)+E(xc)   XCENC  =        50.22763653
  PAW double counting   =      3834.41416889    -3548.24171212
  entropy T*S    EENTRO =         0.00000000
  eigenvalues    EBANDS =     -1430.77638769
  atomic energy  EATOM  =      7250.85976021
  Solvation  Ediel_sol  =         0.00000000
  ---------------------------------------------------
  free energy    TOTEN  =      -105.26675881 eV

  energy without entropy =     -105.26675881  energy(sigma->0) =     -105.26675881


--------------------------------------------------------------------------------------------------------




--------------------------------------- Iteration      1(  24)  ---------------------------------------


    POTLOK:  cpu time    0.0581: real time    0.0684
    SETDIJ:  cpu time    0.0047: real time    0.0047
     EDDAV:  cpu time    1.9787: real time    1.9834
 BZINTS: Fermi energy: -0.395757;144.000000 electrons
         Band energy:***********;  BLOECHL correction:  0.000000
       DOS:  cpu time    0.0027: real time    0.0027
    CHARGE:  cpu time    0.1763: real time    0.1767
    MIXING:  cpu time    0.0091: real time    0.0092
    --------------------------------------------
      LOOP:  cpu time    2.2296: real time    2.2451

 eigenvalue-minimisations  :  1968
 total energy-change (2. order) :-0.2847347E-05  (-0.1808758E-07)
 number of electron     143.9999990 magnetization 
 augmentation part      -17.6754126 magnetization 

 Broyden mixing:
  rms(total) = 0.14911E-04    rms(broyden)= 0.14911E-04
  rms(prec ) = 0.21644E-04
  weight for this iteration     100.00

 eigenvalues of (default mixing * dielectric matrix)
  average eigenvalue GAMMA=   2.3681
  9.0567  7.0656  3.8353  3.8353  2.8391  2.2789  2.2789  1.5853  1.5853  0.9173
  0.9173  1.2640  1.2640  1.1337  1.1337  0.9553  0.9553  1.0465  1.0465

 Free energy of the ion-electron system (eV)
  ---------------------------------------------------
  alpha Z        PSCENC =       170.45750602
  Ewald energy   TEWEN  =     12493.05972199
  -Hartree energ DENC   =    -18925.26619597
  -exchange      EXHF   =         0.00000000
  -V(xc)+E(xc)   XCENC  =        50.22759147
  PAW double counting   =      3834.41534743    -3548.24286980
  entropy T*S    EENTRO =         0.00000000
  eigenvalues    EBANDS =     -1430.77762301
  atomic energy  EATOM  =      7250.85976021
  Solvation  Ediel_sol  =         0.00000000
  ---------------------------------------------------
  free energy    TOTEN  =      -105.26676166 eV

  energy without entropy =     -105.26676166  energy(sigma->0) =     -105.26676166


--------------------------------------------------------------------------------------------------------




--------------------------------------- Iteration      1(  25)  ---------------------------------------


    POTLOK:  cpu time    0.0562: real time    0.0669
    SETDIJ:  cpu time    0.0067: real time    0.0067
     EDDAV:  cpu time    1.8759: real time    1.8803
 BZINTS: Fermi energy: -0.398618;144.000000 electrons
         Band energy:***********;  BLOECHL correction:  0.000000
       DOS:  cpu time    0.0024: real time    0.0024
    CHARGE:  cpu time    0.1770: real time    0.1774
    MIXING:  cpu time    0.0084: real time    0.0084
    --------------------------------------------
      LOOP:  cpu time    2.1266: real time    2.1422

 eigenvalue-minimisations  :  1832
 total energy-change (2. order) :-0.1288912E-05  (-0.1857235E-07)
 number of electron     143.9999990 magnetization 
 augmentation part      -17.6754135 magnetization 

 Broyden mixing:
  rms(total) = 0.60825E-05    rms(broyden)= 0.60825E-05
  rms(prec ) = 0.88890E-05
  weight for this iteration     100.00

 eigenvalues of (default mixing * dielectric matrix)
  average eigenvalue GAMMA=   2.3361
  9.1515  7.0164  4.0161  3.8350  2.8641  2.5170  1.9017  1.9017  1.4986  1.4986
  0.9173  0.9173  1.2246  1.2246  1.1421  1.1421  1.0638  0.9676  0.9676  0.9536

[...]
     26     -13.5776      2.00000
     27     -13.1123      2.00000
     28     -13.1021      2.00000
     29     -13.0707      2.00000
     30     -13.0632      2.00000
     31     -13.0315      2.00000
     32     -13.0307      2.00000
     33     -11.0351      2.00000
     34     -11.0201      2.00000
     35     -10.6296      2.00000
     36     -10.6136      2.00000
     37      -6.4217      2.00000
     38      -6.4018      2.00000
     39      -6.1854      2.00000
     40      -6.1666      2.00000
     41      -6.1125      2.00000
     42      -6.0916      2.00000
     43      -5.8300      2.00000
     44      -5.8163      2.00000
     45      -5.7833      2.00000
     46      -5.7323      2.00000
     47      -5.6887      2.00000
     48      -5.5794      2.00000
     49      -2.7969      2.00000
     50      -2.6982      2.00000
     51      -2.5256      2.00000
     52      -2.4676      2.00000
     53      -2.2174      2.00000
     54      -2.1278      2.00000
     55      -2.1059      2.00000
     56      -2.0741      2.00000
     57      -1.9028      2.00000
     58      -1.8786      2.00000
     59      -1.7834      2.00000
     60      -1.7028      2.00000
     61      -1.6130      2.00000
     62      -1.5659      2.00000
     63      -1.4688      2.00000
     64      -1.3836      2.00000
     65      -1.2713      2.00000
     66      -1.1968      2.00000
     67      -1.1255      2.00000
     68      -1.0155      2.00000
     69      -0.8850      2.00000
     70      -0.7658      2.00000
     71      -0.7509      2.00000
     72      -0.6850      2.00000
     73       0.4062      0.00000
     74       0.4363      0.00000
     75       0.5740      0.00000
     76       0.6208      0.00000
     77       0.6795      0.00000
     78       0.8236      0.00000
     79       0.9328      0.00000
     80       0.9734      0.00000
     81       0.9941      0.00000
     82       1.1582      0.00000
     83       1.2882      0.00000
     84       1.3798      0.00000
     85       1.4160      0.00000
     86       1.5860      0.00000
     87       1.6780      0.00000
     88       1.7780      0.00000

 k-point    15 :       0.0000    0.5000    0.4000
  band No.  band energies     occupation 
      1     -29.5403      2.00000
      2     -29.5403      2.00000
      3     -28.4748      2.00000
      4     -28.4748      2.00000
      5     -28.3073      2.00000
      6     -28.3073      2.00000
      7     -27.7083      2.00000
      8     -27.7083      2.00000
      9     -14.8775      2.00000
     10     -14.8775      2.00000
     11     -14.8125      2.00000
     12     -14.8125      2.00000
     13     -14.7426      2.00000
     14     -14.7426      2.00000
     15     -13.8939      2.00000
     16     -13.8939      2.00000
     17     -13.7687      2.00000
     18     -13.7687      2.00000
     19     -13.7541      2.00000
     20     -13.7541      2.00000
     21     -13.7001      2.00000
     22     -13.7001      2.00000
     23     -13.6589      2.00000
     24     -13.6589      2.00000
     25     -13.5807      2.00000
     26     -13.5807      2.00000
     27     -13.1070      2.00000
     28     -13.1070      2.00000
     29     -13.0663      2.00000
     30     -13.0663      2.00000
     31     -13.0310      2.00000
     32     -13.0310      2.00000
     33     -11.0219      2.00000
     34     -11.0219      2.00000
     35     -10.6120      2.00000
     36     -10.6120      2.00000
     37      -6.4396      2.00000
     38      -6.4396      2.00000
     39      -6.1500      2.00000
     40      -6.1500      2.00000
     41      -6.1006      2.00000
     42      -6.1005      2.00000
     43      -5.8016      2.00000
     44      -5.8016      2.00000
     45      -5.7648      2.00000
     46      -5.7647      2.00000
     47      -5.6333      2.00000
     48      -5.6333      2.00000
     49      -2.7033      2.00000
     50      -2.7033      2.00000
     51      -2.5139      2.00000
     52      -2.5139      2.00000
     53      -2.1666      2.00000
     54      -2.1666      2.00000
     55      -2.1069      2.00000
     56      -2.1069      2.00000
     57      -1.8920      2.00000
     58      -1.8920      2.00000
     59      -1.6889      2.00000
     60      -1.6889      2.00000
     61      -1.5086      2.00000
     62      -1.5086      2.00000
     63      -1.4605      2.00000
     64      -1.4605      2.00000
     65      -1.2526      2.00000
     66      -1.2526      2.00000
     67      -1.0607      2.00000
     68      -1.0607      2.00000
     69      -0.8745      2.00000
     70      -0.8745      2.00000
     71      -0.7168      2.00000
     72      -0.7168      2.00000
     73       0.3219      0.00000
     74       0.3220      0.00000
     75       0.5612      0.00000
     76       0.5612      0.00000
     77       0.7384      0.00000
     78       0.7384      0.00000
     79       0.9381      0.00000
     80       0.9381      0.00000
     81       0.9996      0.00000
     82       0.9997      0.00000
     83       1.3553      0.00000
     84       1.3553      0.00000
     85       1.5384      0.00000
     86       1.5384      0.00000
     87       1.6390      0.00000
     88       1.6390      0.00000


--------------------------------------------------------------------------------------------------------


 soft charge-density along one line, spin component           1
         0         1         2         3         4         5         6         7         8         9
 total charge-density along one line
 
 pseudopotential strength for first ion, spin component:           1
  5.101  -5.600  -0.000  -0.008  -0.037  -0.000  -0.003  -0.015
 -5.600  -2.740   0.000   0.002   0.007  -0.000  -0.001  -0.006
 -0.000   0.000  -6.776  -0.000  -0.000   1.864  -0.000  -0.000
 -0.008   0.002  -0.000  -6.771  -0.001  -0.000   1.875  -0.003
 -0.037   0.007  -0.000  -0.001  -6.771  -0.000  -0.003   1.874
 -0.000  -0.000   1.864  -0.000  -0.000   7.308  -0.000  -0.000
 -0.003  -0.001  -0.000   1.875  -0.003  -0.000   7.309  -0.000
 -0.015  -0.006  -0.000  -0.003   1.874  -0.000  -0.000   7.309
 -0.000   0.000  -0.013  -0.000  -0.000  -0.008  -0.000  -0.000
 -0.000   0.000  -0.001  -0.000  -0.000  -0.000  -0.000  -0.000
  0.002  -0.001   0.000  -0.004   0.007   0.000  -0.003   0.005
 -0.002   0.001  -0.000  -0.012  -0.002  -0.000  -0.008  -0.002
  0.003  -0.001   0.000  -0.001  -0.012   0.000  -0.001  -0.008
  0.000   0.000   0.001   0.000   0.000   0.000   0.000   0.000
  0.000   0.000   0.000   0.000   0.000  -0.000   0.000   0.000
 -0.000  -0.000  -0.000   0.000  -0.000  -0.000   0.000  -0.000
  0.000   0.000   0.000   0.001   0.000   0.000   0.000   0.000
 -0.000  -0.000  -0.000   0.000   0.000  -0.000   0.000   0.000
 total augmentation occupancy for first ion, spin component:           1
  2.102  -0.256   0.000   0.012   0.055   0.000  -0.006  -0.020   0.000  -0.000   0.015  -0.010   0.032   0.000  -0.000  -0.011
 -0.256   0.636   0.000  -0.033  -0.143   0.000   0.012   0.033   0.000   0.000  -0.026   0.012  -0.061   0.000  -0.000   0.041
  0.000   0.000   2.012   0.000   0.000  -0.011   0.000   0.000  -0.083   0.022   0.000   0.000   0.000   0.077  -0.042   0.000
  0.012  -0.033   0.000   2.000   0.003   0.000  -0.002  -0.002  -0.000   0.000  -0.045  -0.067  -0.015   0.000   0.000   0.043
  0.055  -0.143   0.000   0.003   1.996   0.000  -0.002  -0.000   0.000   0.000   0.035  -0.007  -0.052   0.000   0.000  -0.032
  0.000   0.000  -0.011  -0.000   0.000   0.008   0.000   0.000   0.022  -0.009   0.000   0.000   0.000  -0.029   0.014   0.000
 -0.006   0.012  -0.000  -0.002  -0.002   0.000   0.005   0.001   0.000  -0.000   0.016   0.015   0.005   0.000   0.000  -0.022
 -0.020   0.033   0.000  -0.002  -0.000   0.000   0.001   0.004  -0.000   0.000  -0.007   0.000   0.009   0.000   0.000   0.009
  0.000   0.000  -0.083  -0.000   0.000   0.022   0.000   0.000   0.144  -0.014   0.000   0.000   0.000  -0.182   0.020   0.000
  0.000   0.000   0.022   0.000   0.000  -0.009  -0.000   0.000  -0.014   0.068  -0.000  -0.000   0.000   0.018  -0.084   0.000
  0.015  -0.026   0.000  -0.045   0.035   0.000   0.016  -0.007   0.000   0.000   0.121   0.049   0.019   0.000   0.000  -0.146
 -0.010   0.012   0.000  -0.067  -0.007  -0.000   0.015   0.000   0.000   0.000   0.049   0.086   0.009   0.000   0.000  -0.068
  0.032  -0.061  -0.000  -0.015  -0.052   0.000   0.005   0.009   0.000  -0.000   0.019   0.009   0.097  -0.000  -0.000  -0.025
  0.000   0.000   0.077   0.000   0.000  -0.029   0.000   0.000  -0.182   0.018   0.000   0.000   0.000   0.257  -0.034   0.000
  0.000   0.000  -0.042   0.000   0.000   0.014   0.000   0.000   0.020  -0.084   0.000   0.000   0.000  -0.034   0.114   0.000
 -0.011   0.041   0.000   0.043  -0.032  -0.000  -0.022   0.009   0.000   0.000  -0.146  -0.068  -0.025   0.000   0.000   0.198
  0.007  -0.028  -0.000   0.062  -0.000   0.000  -0.022  -0.001   0.000  -0.000  -0.066  -0.108  -0.011   0.000   0.000   0.102
 -0.024   0.073  -0.000   0.022   0.049   0.000  -0.008  -0.012  -0.000   0.000  -0.027  -0.013  -0.126   0.000   0.000   0.042


------------------------ aborting loop because EDIFF is reached ----------------------------------------


    CHARGE:  cpu time    0.1697: real time    0.1701
    FORLOC:  cpu time    0.0098: real time    0.0098
    FORNL :  cpu time    0.5858: real time    0.5872
    STRESS:  cpu time    1.7414: real time    1.7456
    FORCOR:  cpu time    0.0657: real time    0.0658
    FORHAR:  cpu time    0.0215: real time    0.0215
    MIXING:  cpu time    0.0083: real time    0.0291
    OFIELD:  cpu time    0.0000: real time    0.0000

 ---------------------------------------------------------------------------------------------

         DFTD3 V3.0 Rev 1        
 IVDW         = 11
 DF pbe       
 parameters
 VDW_S6       =    1.0000
 VDW_S8       =    0.7220
 VDW_SR       =    1.2170
 rs18     =    1.0000
 alpha6   =   14.0000
 alpha8   =   16.0000
 k1-k3    =   16.0000    1.3333   -4.0000
 VDW_RADIUS   =   50.2022 A
 VDW_CNRADIUS =   21.1671 A
 Edisp (eV)   -2.35493

 E6    (eV) :    -0.8804
 E8    (eV) :    -1.4746
 % E8        : 62.62
    FORVDW:  cpu time    0.0378: real time    0.0615

  FORCE on cell =-STRESS in cart. coord.  units (eV):
  Direction    XX          YY          ZZ          XY          YZ          ZX
  --------------------------------------------------------------------------------------
  Alpha Z   170.45751   170.45751   170.45751
  Ewald  -20272.70806 16648.51553 16117.23864    -0.00002     0.00000   143.94395
  Hartree-17198.08117 18270.55969 17852.78439     0.00000    -0.00000   108.20683
  E(xc)    -462.46900  -460.81028  -461.19396    -0.00000    -0.00000     0.22086
  Local   36054.12649-36354.30763-35397.00827     0.00001    -0.00000  -249.69455
  n-local   339.18190   339.53118   340.00833     0.05967    -0.19188    -1.80202
  augment  -169.40514  -169.69875  -169.55601    -0.00000    -0.00000     0.35547
  Kinetic  1533.70060  1547.95799  1540.34783    -0.02160    -0.80970    -1.19065
  Fock        0.00000     0.00000     0.00000     0.00000     0.00000     0.00000
  vdW        -1.38222    -2.73111    -2.62171     0.00000    -0.00000     0.01884
  -------------------------------------------------------------------------------------
  Total      -6.57907   -10.52588    -9.54326     0.00000     0.00000     0.05872
  in kB      -5.58294    -8.93216    -8.09832     0.00000     0.00000     0.04983
  external pressure =       -7.54 kB  Pullay stress =        0.00 kB


 VOLUME and BASIS-vectors are now :
 -----------------------------------------------------------------------------
  energy-cutoff  :      500.00
  volume of cell :     1888.05
      direct lattice vectors                 reciprocal lattice vectors
    24.009468079  0.000000000  0.000000000     0.041650236  0.000000000  0.000000000
     0.000000000  6.777849674  0.000000000     0.000000000  0.147539419  0.000000000
     0.000000000  0.000000000 11.602143288     0.000000000  0.000000000  0.086190971

  length of vectors
    24.009468079  6.777849674 11.602143288     0.041650236  0.147539419  0.086190971


 FORCES acting on ions
    electron-ion (+dipol)            ewald-force                    non-local-force                 convergence-correction
 -----------------------------------------------------------------------------------------------
   0.796E+03 0.102E-04 0.439E+02   -.791E+03 0.979E-05 -.430E+02   -.425E+01 -.168E-18 -.826E+00   0.268E-04 -.720E-09 0.106E-04
   -.796E+03 -.633E-04 -.439E+02   0.791E+03 -.127E-04 0.430E+02   0.425E+01 -.557E-19 0.826E+00   -.268E-04 0.775E-09 -.106E-04
   0.748E+02 -.595E-04 -.349E+02   -.746E+02 -.194E-04 0.337E+02   -.375E+00 0.150E-18 0.123E+01   0.609E-04 0.119E-08 -.376E-04
   -.748E+02 0.122E-04 0.349E+02   0.746E+02 0.134E-04 -.337E+02   0.375E+00 0.128E-18 -.123E+01   -.609E-04 -.110E-08 0.376E-04
   0.641E+03 -.610E-04 -.493E+02   -.639E+03 -.169E-04 0.499E+02   -.209E+01 0.909E-18 -.575E+00   0.840E-04 0.962E-09 -.548E-04
   -.641E+03 0.904E-05 0.493E+02   0.639E+03 0.147E-04 -.499E+02   0.209E+01 -.137E-17 0.575E+00   -.840E-04 -.913E-09 0.548E-04
   0.374E+03 0.126E-04 -.800E+01   -.372E+03 0.136E-04 0.716E+01   -.131E+01 0.176E-17 0.864E+00   0.854E-04 -.107E-08 0.145E-04
   -.374E+03 -.613E-04 0.800E+01   0.372E+03 -.136E-04 -.716E+01   0.131E+01 -.341E-17 -.864E+00   -.854E-04 0.106E-08 -.145E-04
   0.278E+03 0.368E+02 -.467E+02   -.278E+03 -.383E+02 0.476E+02   -.111E+00 0.148E+01 -.867E+00   0.639E-04 0.372E-04 -.354E-04
   -.278E+03 -.368E+02 0.467E+02   0.278E+03 0.383E+02 -.476E+02   0.111E+00 -.148E+01 0.867E+00   -.639E-04 -.372E-04 0.353E-04
   0.128E+03 -.323E+02 0.278E+01   -.128E+03 0.334E+02 -.182E+01   -.717E+00 -.110E+01 -.952E+00   0.178E-04 -.216E-04 0.176E-06
   -.128E+03 0.323E+02 -.278E+01   0.128E+03 -.334E+02 0.182E+01   0.717E+00 0.110E+01 0.952E+00   -.178E-04 0.216E-04 -.174E-06
   -.278E+03 0.368E+02 0.467E+02   0.278E+03 -.383E+02 -.476E+02   0.111E+00 0.148E+01 0.867E+00   -.639E-04 0.372E-04 0.353E-04
   0.278E+03 -.368E+02 -.467E+02   -.278E+03 0.383E+02 0.476E+02   -.111E+00 -.148E+01 -.867E+00   0.639E-04 -.372E-04 -.354E-04
   -.128E+03 -.323E+02 -.278E+01   0.128E+03 0.334E+02 0.182E+01   0.717E+00 -.110E+01 0.952E+00   -.178E-04 -.216E-04 -.174E-06
   0.128E+03 0.323E+02 0.278E+01   -.128E+03 -.334E+02 -.182E+01   -.717E+00 0.110E+01 -.952E+00   0.178E-04 0.216E-04 0.176E-06
   0.336E+03 -.425E-05 0.456E+02   -.338E+03 -.606E-05 -.462E+02   0.135E+01 0.459E-19 0.659E+00   0.438E-04 0.314E-09 0.243E-04
   -.336E+03 0.614E-05 -.456E+02   0.338E+03 0.632E-05 0.462E+02   -.135E+01 -.279E-19 -.659E+00   -.438E-04 -.321E-09 -.243E-04
   0.315E+02 0.105E-04 -.110E+02   -.300E+02 0.777E-05 0.102E+02   -.136E+01 -.262E-18 0.799E+00   -.140E-04 -.441E-09 -.129E-04
   -.315E+02 -.802E-06 0.110E+02   0.300E+02 -.741E-05 -.102E+02   0.136E+01 -.315E-18 -.799E+00   0.140E-04 0.414E-09 0.129E-04
   0.249E+03 0.446E-05 0.963E+01   -.248E+03 0.815E-05 -.108E+02   -.840E+00 -.202E-17 0.113E+01   0.556E-04 -.385E-09 0.195E-04
   -.249E+03 -.560E-05 -.963E+01   0.248E+03 -.820E-05 0.108E+02   0.840E+00 -.205E-17 -.113E+01   -.556E-04 0.366E-09 -.196E-04
   0.162E+03 -.630E-05 0.619E+02   -.161E+03 -.770E-05 -.635E+02   -.901E+00 -.600E-18 0.162E+01   0.285E-04 0.401E-09 0.402E-04
   -.162E+03 0.376E-05 -.619E+02   0.161E+03 0.750E-05 0.635E+02   0.901E+00 0.195E-17 -.162E+01   -.285E-04 -.400E-09 -.402E-04
 -----------------------------------------------------------------------------------------------
   0.227E-04 -.205E-03 0.698E-04   -.568E-13 0.813E-14 0.142E-13   0.000E+00 0.219E-15 0.222E-15   0.438E-07 0.100E-09 -.272E-08
 
 
 POSITION                                       TOTAL-FORCE (eV/Angst)
 -----------------------------------------------------------------------------------
      0.13670      1.69446      8.18893         0.781873     -0.000000      0.000671
      8.92277      5.08339      3.41321        -0.781873     -0.000000     -0.000671
      4.36803      5.08339      2.17353        -0.178160     -0.000000     -0.000228
      4.69143      1.69446      9.42861         0.178160     -0.000000      0.000228
      1.43529      5.08339     10.66591         0.704138      0.000000     -0.000130
      7.62418      1.69446      0.93623        -0.704138      0.000000      0.000130
      3.06944      1.69446      4.61130         0.244220      0.000000     -0.000242
      5.99002      5.08339      6.99085        -0.244220     -0.000000      0.000242
      1.75027      0.49404      1.68852        -0.137181     -0.000155      0.000174
      7.30920      6.28381      9.91362         0.137181      0.000155     -0.000174
      2.75446      6.28749      7.64186        -0.008318     -0.000040      0.000651
      6.30500      0.49036      3.96028         0.008318      0.000040     -0.000651
      7.30920      3.88297      9.91362         0.137181     -0.000155     -0.000174
      1.75027      2.89488      1.68852        -0.137181      0.000155      0.000174
      6.30500      2.89857      3.96028         0.008318     -0.000040     -0.000651
      2.75446      3.87928      7.64186        -0.008318      0.000040      0.000651
      0.74693      5.08339      6.95520        -0.200002      0.000000      0.000546
      8.31254      1.69446      4.64695         0.200002     -0.000000     -0.000546
      3.75780      1.69446      0.99026         0.155574     -0.000000      0.000184
      5.30166      5.08339     10.61189        -0.155574     -0.000000     -0.000184
      1.78112      1.69446     11.18498        -0.276850      0.000000      0.000197
      7.27835      5.08339      0.41716         0.276850      0.000000     -0.000197
      2.72362      5.08339      5.53260        -0.308941     -0.000000      0.000729
      6.33585      1.69446      6.06954         0.308941     -0.000000     -0.000729
 -----------------------------------------------------------------------------------
    total drift:                                0.000023     -0.000205      0.000070


--------------------------------------------------------------------------------------------------------



  FREE ENERGIE OF THE ION-ELECTRON SYSTEM (eV)
  ---------------------------------------------------
  free  energy   TOTEN  =      -107.62169650 eV

  energy  without entropy=     -107.62169650  energy(sigma->0) =     -107.62169650
 


--------------------------------------------------------------------------------------------------------


    POTLOK:  cpu time    0.0707: real time    0.0709


--------------------------------------------------------------------------------------------------------


 writing wavefunctions
     LOOP+:  cpu time   81.4358: real time   82.5562
    4ORBIT:  cpu time    0.0000: real time    0.0000
 BZINTS: Fermi energy: -0.401057;144.000000 electrons
         Band energy:***********;  BLOECHL correction:  0.000000

 total amount of memory used by VASP MPI-rank0    79349. kBytes
=======================================================================

   base      :      30000. kBytes
   nonlr-proj:       2643. kBytes
   fftplans  :       5898. kBytes
   grid      :       8824. kBytes
   one-center:         93. kBytes
   wavefun   :      31891. kBytes
 
  
  
 General timing and accounting informations for this job:
 ========================================================
  
                  Total CPU time used (sec):       89.381
                            User time (sec):       84.429
                          System time (sec):        4.952
                         Elapsed time (sec):       92.456
  
                   Maximum memory used (kb):      172912.
                   Average memory used (kb):           0.
  
                          Minor page faults:        74214
                          Major page faults:          158
                 Voluntary context switches:        12757
