 vasp.5.4.4.18Apr17-6-g9f103f2a35 (build Nov 21 2017 15:30:27) complex          
  
 executed on             LinuxIFC date 2020.09.14  15:48:16
 running on   64 total cores
 distrk:  each k-point on   32 cores,    2 groups
 distr:  one band on NCORES_PER_BAND=   4 cores,    8 groups


--------------------------------------------------------------------------------------------------------


 INCAR:
 POTCAR:   PAW_PBE Ba_sv 06Sep2000                
 POTCAR:   PAW_PBE Si 05Jan2001                   

 ----------------------------------------------------------------------------- 
|                                                                             |
|           W    W    AA    RRRRR   N    N  II  N    N   GGGG   !!!           |
|           W    W   A  A   R    R  NN   N  II  NN   N  G    G  !!!           |
|           W    W  A    A  R    R  N N  N  II  N N  N  G       !!!           |
|           W WW W  AAAAAA  RRRRR   N  N N  II  N  N N  G  GGG   !            |
|           WW  WW  A    A  R   R   N   NN  II  N   NN  G    G                |
|           W    W  A    A  R    R  N    N  II  N    N   GGGG   !!!           |
|                                                                             |
|      You have enabled k-point parallelism (KPAR>1).                         |
|      This developmental code was originally  written by Paul Kent at ORNL,  |
|      and carefully double checked in Vienna.                                |
|      GW as well as linear response parallelism added by Martijn Marsman     |
|      and Georg Kresse.                                                      |
|      Carefully verify results versus KPAR=1.                                |
|      Report problems to Paul Kent and Vienna.                               |
|                                                                             |
 ----------------------------------------------------------------------------- 

 POTCAR:   PAW_PBE Ba_sv 06Sep2000                
   VRHFIN =Ba: 5s5p6s                                                           
   LEXCH  = PE                                                                  
   EATOM  =   700.2255 eV,   51.4651 Ry                                         
                                                                                
   TITEL  = PAW_PBE Ba_sv 06Sep2000                                             
   LULTRA =        F    use ultrasoft PP ?                                      
   IUNSCR =        1    unscreen: 0-lin 1-nonlin 2-no                           
   RPACOR =    2.400    partial core radius                                     
   POMASS =  137.327; ZVAL   =   10.000    mass and valenz                      
   RCORE  =    2.800    outmost cutoff radius                                   
   RWIGS  =    3.740; RWIGS  =    1.979    wigner-seitz radius (au A)           
   ENMAX  =  187.210; ENMIN  =  140.408 eV                                      
   RCLOC  =    2.516    cutoff for local pot                                    
   LCOR   =        T    correct aug charges                                     
   LPAW   =        T    paw PP                                                  
   EAUG   =  351.165                                                            
   DEXC   =     .000                                                            
   RMAX   =    3.370    core radius for proj-oper                               
   RAUG   =    1.300    factor for augmentation sphere                          
   RDEP   =    2.976    radius for radial grids                                 
   QCUT   =   -3.709; QGAM   =    7.419    optimization parameters              
                                                                                
   Description                                                                  
     l     E      TYP  RCUT    TYP  RCUT                                        
     0   .000     23  2.800                                                     
     0   .000     23  2.800                                                     
     1   .000     23  2.700                                                     
     1  2.000     23  2.700                                                     
     2   .000     23  2.700                                                     
     2   .000     23  2.700                                                     
  local pseudopotential read in
  partial core-charges read in
  atomic valenz-charges read in
  non local Contribution for L=           0  read in
    real space projection operators read in
  non local Contribution for L=           0  read in
    real space projection operators read in
  non local Contribution for L=           1  read in
    real space projection operators read in
  non local Contribution for L=           1  read in
    real space projection operators read in
  non local Contribution for L=           2  read in
    real space projection operators read in
  non local Contribution for L=           2  read in
    real space projection operators read in
    PAW grid and wavefunctions read in
 
   number of l-projection  operators is LMAX  =           6
   number of lm-projection operators is LMMAX =          18
 
 POTCAR:   PAW_PBE Si 05Jan2001                   
   VRHFIN =Si: s2p2                                                             
   LEXCH  = PE                                                                  
   EATOM  =   103.0669 eV,    7.5752 Ry                                         
                                                                                
   TITEL  = PAW_PBE Si 05Jan2001                                                
   LULTRA =        F    use ultrasoft PP ?                                      
   IUNSCR =        1    unscreen: 0-lin 1-nonlin 2-no                           
   RPACOR =    1.500    partial core radius                                     
   POMASS =   28.085; ZVAL   =    4.000    mass and valenz                      
   RCORE  =    1.900    outmost cutoff radius                                   
   RWIGS  =    2.480; RWIGS  =    1.312    wigner-seitz radius (au A)           
   ENMAX  =  245.345; ENMIN  =  184.009 eV                                      
   ICORE  =        2    local potential                                         
   LCOR   =        T    correct aug charges                                     
   LPAW   =        T    paw PP                                                  
   EAUG   =  322.069                                                            
   DEXC   =    -.007                                                            
   RMAX   =    2.944    core radius for proj-oper                               
   RAUG   =    1.300    factor for augmentation sphere                          
   RDEP   =    1.993    radius for radial grids                                 
   QCUT   =   -4.246; QGAM   =    8.493    optimization parameters              
                                                                                
   Description                                                                  
     l     E      TYP  RCUT    TYP  RCUT                                        
     0   .000     23  1.900                                                     
     0   .000     23  1.900                                                     
     1   .000     23  1.900                                                     
     1   .000     23  1.900                                                     
     2   .000      7  1.900                                                     
  local pseudopotential read in
  partial core-charges read in
  atomic valenz-charges read in
  non local Contribution for L=           0  read in
    real space projection operators read in
  non local Contribution for L=           0  read in
    real space projection operators read in
  non local Contribution for L=           1  read in
    real space projection operators read in
  non local Contribution for L=           1  read in
    real space projection operators read in
    PAW grid and wavefunctions read in
 
   number of l-projection  operators is LMAX  =           4
   number of lm-projection operators is LMMAX =           8
 
 Optimization of the real space projectors (new method)

 maximal supplied QI-value         = 13.42
 optimisation between [QCUT,QGAM] = [ 11.40, 22.81] = [ 36.42,145.68] Ry 
 Optimized for a Real-space Cutoff    1.56 Angstroem

   l    n(q)    QCUT    max X(q) W(low)/X(q) W(high)/X(q)  e(spline) 
   0     11    11.404     7.198    0.14E-04    0.26E-04    0.99E-07
   0     11    11.404    15.603    0.29E-04    0.72E-04    0.44E-06
   1     10    11.404     3.746    0.20E-04    0.24E-04    0.43E-07
   1     10    11.404     4.362    0.22E-03    0.97E-04    0.22E-06
   2     10    11.404     5.782    0.83E-04    0.62E-05    0.27E-06
   2     10    11.404    65.505    0.42E-03    0.31E-04    0.12E-05
 Optimization of the real space projectors (new method)

 maximal supplied QI-value         = 19.84
 optimisation between [QCUT,QGAM] = [ 11.31, 22.82] = [ 35.82,145.81] Ry 
 Optimized for a Real-space Cutoff    1.16 Angstroem

   l    n(q)    QCUT    max X(q) W(low)/X(q) W(high)/X(q)  e(spline) 
   0      8    11.310     8.708    0.14E-04    0.11E-04    0.43E-08
   0      8    11.310   106.241    0.27E-03    0.30E-03    0.38E-07
   1      7    11.310     5.901    0.82E-05    0.48E-04    0.19E-07
   1      7    11.310    73.241    0.27E-03    0.27E-03    0.74E-07
 PAW_PBE Ba_sv 06Sep2000                :
 energy of atom  1       EATOM= -700.2255
 kinetic energy error for atom=    0.0005 (will be added to EATOM!!)
 PAW_PBE Si 05Jan2001                   :
 energy of atom  2       EATOM= -103.0669
 kinetic energy error for atom=    0.0006 (will be added to EATOM!!)
 
 
 POSCAR: ba8 si16                                
  positions in direct lattice
  velocities in cartesian coordinates
 exchange correlation table for  LEXCH =        8
   RHO(1)=    0.500       N(1)  =     2000
   RHO(2)=  100.500       N(2)  =     4000
 


--------------------------------------------------------------------------------------------------------


 ion  position               nearest neighbor table
   1  0.006  0.250  0.703-  21 3.40  16 3.44  11 3.44  17 3.65  17 3.65   5 4.38   5 4.38   7 4.64

   2  0.386  0.750  0.297-  22 3.40  12 3.44  15 3.44  18 3.65  18 3.65   6 4.38   6 4.38   8 4.64

   3  0.182  0.750  0.185-  20 3.33   9 3.45  14 3.45  12 3.64  15 3.64  19 3.66  19 3.66  22 3.67
                            23 3.76   5 4.30   7 4.36   7 4.36
   4  0.210  0.250  0.815-  19 3.33  13 3.45  10 3.45  16 3.64  11 3.64  20 3.66  20 3.66  21 3.67
                            24 3.76   6 4.30   8 4.36   8 4.36
   5  0.060  0.750  0.915-   9 3.43  14 3.43  21 3.45  21 3.45  11 3.46  16 3.46  17 3.72   3 4.30
                             1 4.38   1 4.38
   6  0.332  0.250  0.085-  13 3.43  10 3.43  22 3.45  22 3.45  15 3.46  12 3.46  18 3.72   4 4.30
                             2 4.38   2 4.38
   7  0.128  0.250  0.394-  14 3.43   9 3.43  23 3.54  23 3.54  19 3.71  16 3.79  11 3.79  15 3.83
                            12 3.83  24 3.91   3 4.36   3 4.36   1 4.64
   8  0.264  0.750  0.606-  10 3.43  13 3.43  24 3.54  24 3.54  20 3.71  12 3.79  15 3.79  11 3.83
                            16 3.83  23 3.91   4 4.36   4 4.36   2 4.64
   9  0.073  0.073  0.141-  14 2.40  21 2.43  19 2.45   7 3.43   5 3.43   3 3.45
  10  0.319  0.927  0.859-  13 2.40  22 2.43  20 2.45   8 3.43   6 3.43   4 3.45
  11  0.115  0.929  0.659-  16 2.42  23 2.44  17 2.44   1 3.44   5 3.46   4 3.64   7 3.79   8 3.83

  12  0.277  0.071  0.341-  15 2.42  24 2.44  18 2.44   2 3.44   6 3.46   3 3.64   8 3.79   7 3.83

  13  0.319  0.573  0.859-  10 2.40  22 2.43  20 2.45   8 3.43   6 3.43   4 3.45
  14  0.073  0.427  0.141-   9 2.40  21 2.43  19 2.45   7 3.43   5 3.43   3 3.45
  15  0.277  0.429  0.341-  12 2.42  24 2.44  18 2.44   2 3.44   6 3.46   3 3.64   8 3.79   7 3.83

  16  0.115  0.571  0.659-  11 2.42  23 2.44  17 2.44   1 3.44   5 3.46   4 3.64   7 3.79   8 3.83

  17  0.031  0.750  0.600-  23 2.44  11 2.44  16 2.44   1 3.65   1 3.65   5 3.72
  18  0.361  0.250  0.400-  24 2.44  15 2.44  12 2.44   2 3.65   2 3.65   6 3.72
  19  0.157  0.250  0.080-  21 2.42  14 2.45   9 2.45   4 3.33   3 3.66   3 3.66   7 3.71
  20  0.235  0.750  0.920-  22 2.42  10 2.45  13 2.45   3 3.33   4 3.66   4 3.66   8 3.71
  21  0.074  0.250  0.959-  19 2.42  14 2.43   9 2.43   1 3.40   5 3.45   5 3.45   4 3.67
  22  0.318  0.750  0.041-  20 2.42  10 2.43  13 2.43   2 3.40   6 3.45   6 3.45   3 3.67
  23  0.113  0.750  0.477-  17 2.44  11 2.44  16 2.44   7 3.54   7 3.54   3 3.76   8 3.91
  24  0.278  0.250  0.523-  18 2.44  15 2.44  12 2.44   8 3.54   8 3.54   4 3.76   7 3.91
 
  LATTYP: Found a simple orthorhombic cell.
 ALAT       =     6.7778496742
 B/A-ratio  =     1.7117734747
 C/A-ratio  =     3.5423429602
  
  Lattice vectors:
  
 A1 = (   0.0000000000,   6.7778496742,   0.0000000000)
 A2 = (   0.0000000000,   0.0000000000, -11.6021432877)
 A3 = ( -24.0094680786,   0.0000000000,   0.0000000000)


Analysis of symmetry for initial positions (statically):
=====================================================================
 Subroutine PRICEL returns:
 Original cell was already a primitive cell.
 

 Routine SETGRP: Setting up the symmetry group for a 
 simple orthorhombic supercell.


 Subroutine GETGRP returns: Found  4 space group operations
 (whereof  1 operations were pure point group operations)
 out of a pool of  8 trial point group operations.


The static configuration has the point symmetry C_1 .
 The point group associated with its full space group is C_2h.


Analysis of symmetry for dynamics (positions and initial velocities):
=====================================================================
 Subroutine PRICEL returns:
 Original cell was already a primitive cell.
 

 Routine SETGRP: Setting up the symmetry group for a 
 simple orthorhombic supercell.


 Subroutine GETGRP returns: Found  4 space group operations
 (whereof  1 operations were pure point group operations)
 out of a pool of  8 trial point group operations.


The dynamic configuration has the point symmetry C_1 .
 The point group associated with its full space group is C_2h.


Analysis of constrained symmetry for selective dynamics:
=====================================================================
 Subroutine PRICEL returns:
 Original cell was already a primitive cell.
 

 Routine SETGRP: Setting up the symmetry group for a 
 simple orthorhombic supercell.


 Subroutine GETGRP returns: Found  4 space group operations
 (whereof  1 operations were pure point group operations)
 out of a pool of  8 trial point group operations.


The constrained configuration has the point symmetry C_1 .
 The point group associated with its full space group is C_2h.


 Subroutine INISYM returns: Found  4 space group operations
 (whereof  1 operations are pure point group operations),
 and found     1 'primitive' translations

 
 
 KPOINTS: k-density: 8.0                          

Automatic generation of k-mesh.
Space group operators:
 irot       det(A)        alpha          n_x          n_y          n_z        tau_x        tau_y        tau_z
    1     1.000000     0.000000     1.000000     0.000000     0.000000     0.000000     0.000000     0.000000
    2    -1.000000     0.000000     1.000000     0.000000     0.000000    -0.608093     0.000000     0.000000
    3     1.000000   180.000000     0.000000     1.000000     0.000000    -0.608093     0.500000     0.000000
    4    -1.000000   180.000000     0.000000     1.000000     0.000000     0.000000     0.500000     0.000000
 
 Subroutine IBZKPT returns following result:
 ===========================================
 
 Found     15 irreducible k-points:
 
 Following reciprocal coordinates:
            Coordinates               Weight
  0.000000  0.000000  0.000000      1.000000
  0.000000  0.125000  0.000000      2.000000
  0.000000  0.250000  0.000000      2.000000
  0.000000  0.375000  0.000000      2.000000
  0.000000  0.500000  0.000000      1.000000
  0.000000  0.000000  0.200000      2.000000
  0.000000  0.125000  0.200000      4.000000
  0.000000  0.250000  0.200000      4.000000
  0.000000  0.375000  0.200000      4.000000
  0.000000  0.500000  0.200000      2.000000
  0.000000  0.000000  0.400000      2.000000
  0.000000  0.125000  0.400000      4.000000
  0.000000  0.250000  0.400000      4.000000
  0.000000  0.375000  0.400000      4.000000
  0.000000  0.500000  0.400000      2.000000
 
 Following cartesian coordinates:
            Coordinates               Weight
  0.000000  0.000000  0.000000      1.000000
  0.000000  0.018442  0.000000      2.000000
  0.000000  0.036885  0.000000      2.000000
  0.000000  0.055327  0.000000      2.000000
  0.000000  0.073770  0.000000      1.000000
  0.000000  0.000000  0.017238      2.000000
  0.000000  0.018442  0.017238      4.000000
  0.000000  0.036885  0.017238      4.000000
  0.000000  0.055327  0.017238      4.000000
  0.000000  0.073770  0.017238      2.000000
  0.000000  0.000000  0.034476      2.000000
  0.000000  0.018442  0.034476      4.000000
  0.000000  0.036885  0.034476      4.000000
  0.000000  0.055327  0.034476      4.000000
  0.000000  0.073770  0.034476      2.000000
 
 TETIRR: Found    108 inequivalent tetrahedra from      240


--------------------------------------------------------------------------------------------------------




 Dimension of arrays:
   k-points           NKPTS =     15   k-points in BZ     NKDIM =     15   number of bands    NBANDS=     88
   number of dos      NEDOS =    301   number of ions     NIONS =     24
   non local maximal  LDIM  =      6   non local SUM 2l+1 LMDIM =     18
   total plane-waves  NPLWV = 358400
   max r-space proj   IRMAX =   3093   max aug-charges    IRDMAX=  12081
   dimension x,y,z NGX =   140 NGY =   40 NGZ =   64
   dimension x,y,z NGXF=   280 NGYF=   80 NGZF=  128
   support grid    NGXF=   280 NGYF=   80 NGZF=  128
   ions per type =               8  16
   NGX,Y,Z   is equivalent  to a cutoff of   9.69,  9.81,  9.17 a.u.
   NGXF,Y,Z  is equivalent  to a cutoff of  19.39, 19.62, 18.34 a.u.

 SYSTEM =  unknown system                          
 POSCAR =  ba8 si16                                

 Startparameter for this run:
   NWRITE =      2    write-flag & timer
   PREC   = normal    normal or accurate (medium, high low for compatibility)
   ISTART =      0    job   : 0-new  1-cont  2-samecut
   ICHARG =      2    charge: 1-file 2-atom 10-const
   ISPIN  =      1    spin polarized calculation?
   LNONCOLLINEAR =      F non collinear calculations
   LSORBIT =      F    spin-orbit coupling
   INIWAV =      1    electr: 0-lowe 1-rand  2-diag
   LASPH  =      F    aspherical Exc in radial PAW
   METAGGA=      F    non-selfconsistent MetaGGA calc.

 Electronic Relaxation 1
   ENCUT  =  500.0 eV  36.75 Ry    6.06 a.u.  43.77 12.36 21.15*2*pi/ulx,y,z
   ENINI  =  500.0     initial cutoff
   ENAUG  =  351.2 eV  augmentation charge cutoff
   NELM   =    100;   NELMIN=  2; NELMDL= -5     # of ELM steps 
   EDIFF  = 0.1E-05   stopping-criterion for ELM
   LREAL  =      T    real-space projection
   NLSPLINE    = F    spline interpolate recip. space projectors
   LCOMPAT=      F    compatible to vasp.4.4
   GGA_COMPAT  = T    GGA compatible to vasp.4.4-vasp.4.6
   LMAXPAW     = -100 max onsite density
   LMAXMIX     =    2 max onsite mixed and CHGCAR
   VOSKOWN=      0    Vosko Wilk Nusair interpolation
   ROPT   =   -0.00050  -0.00050
 Ionic relaxation
   EDIFFG = -.1E-02   stopping-criterion for IOM
   NSW    =      0    number of steps for IOM
   NBLOCK =      1;   KBLOCK =      1    inner block; outer block 
   IBRION =     -1    ionic relax: 0-MD 1-quasi-New 2-CG
   NFREE  =      0    steps in history (QN), initial steepest desc. (CG)
   ISIF   =      2    stress and relaxation
   IWAVPR =     10    prediction:  0-non 1-charg 2-wave 3-comb
   ISYM   =      2    0-nonsym 1-usesym 2-fastsym
   LCORR  =      T    Harris-Foulkes like correction to forces

   POTIM  = 0.3000    time-step for ionic-motion
   TEIN   =    0.0    initial temperature
   TEBEG  =    0.0;   TEEND  =   0.0 temperature during run
   SMASS  =  -3.00    Nose mass-parameter (am)
   estimated Nose-frequenzy (Omega)   =  0.10E-29 period in steps =****** mass=  -0.132E-25a.u.
   SCALEE = 1.0000    scale energy and forces
   NPACO  =    256;   APACO  = 16.0  distance and # of slots for P.C.
   PSTRESS=    0.0 pullay stress

  Mass of Ions in am
   POMASS = 137.33 28.09
  Ionic Valenz
   ZVAL   =  10.00  4.00
  Atomic Wigner-Seitz radii
   RWIGS  =  -1.00 -1.00
  virtual crystal weights 
   VCA    =   1.00  1.00
   NELECT =     144.0000    total number of electrons
   NUPDOWN=      -1.0000    fix difference up-down

 DOS related values:
   EMIN   =  10.00;   EMAX   =-10.00  energy-range for DOS
   EFERMI =   0.00
   ISMEAR =    -5;   SIGMA  =   0.01  broadening in eV -4-tet -1-fermi 0-gaus

 Electronic relaxation 2 (details)
   IALGO  =     38    algorithm
   LDIAG  =      T    sub-space diagonalisation (order eigenvalues)
   LSUBROT=      F    optimize rotation matrix (better conditioning)
   TURBO    =      0    0=normal 1=particle mesh
   IRESTART =      0    0=no restart 2=restart with 2 vectors
   NREBOOT  =      0    no. of reboots
   NMIN     =      0    reboot dimension
   EREF     =   0.00    reference energy to select bands
   IMIX   =      4    mixing-type and parameters
     AMIX     =   0.40;   BMIX     =  1.00
     AMIX_MAG =   1.60;   BMIX_MAG =  1.00
     AMIN     =   0.10
     WC   =   100.;   INIMIX=   1;  MIXPRE=   1;  MAXMIX= -45

 Intra band minimization:
   WEIMIN = 0.0000     energy-eigenvalue tresh-hold
   EBREAK =  0.28E-08  absolut break condition
   DEPER  =   0.30     relativ break condition  

   TIME   =   0.40     timestep for ELM

  volume/ion in A,a.u.               =      78.67       530.88
  Fermi-wavevector in a.u.,A,eV,Ry     =   0.694264  1.311969  6.558046  0.482003
  Thomas-Fermi vector in A             =   1.776709
 
 Write flags
   LWAVE        =      T    write WAVECAR
   LDOWNSAMPLE  =      F    k-point downsampling of WAVECAR
   LCHARG       =      T    write CHGCAR
   LVTOT        =      F    write LOCPOT, total local potential
   LVHAR        =      F    write LOCPOT, Hartree potential only
   LELF         =      F    write electronic localiz. function (ELF)
   LORBIT       =      0    0 simple, 1 ext, 2 COOP (PROOUT), +10 PAW based schemes


 Dipole corrections
   LMONO  =      F    monopole corrections only (constant potential shift)
   LDIPOL =      F    correct potential (dipole corrections)
   IDIPOL =      0    1-x, 2-y, 3-z, 4-all directions 
   EPSILON=  1.0000000 bulk dielectric constant

 Exchange correlation treatment:
   GGA     =    --    GGA type
   LEXCH   =     8    internal setting for exchange type
   VOSKOWN=      0    Vosko Wilk Nusair interpolation
   LHFCALC =     F    Hartree Fock is set to
   LHFONE  =     F    Hartree Fock one center treatment
   AEXX    =    0.0000 exact exchange contribution

 Linear response parameters
   LEPSILON=     F    determine dielectric tensor
   LRPA    =     F    only Hartree local field effects (RPA)
   LNABLA  =     F    use nabla operator in PAW spheres
   LVEL    =     F    velocity operator in full k-point grid
   LINTERFAST=   F  fast interpolation
   KINTER  =     0    interpolate to denser k-point grid
   CSHIFT  =0.1000    complex shift for real part using Kramers Kronig
   OMEGAMAX=  -1.0    maximum frequency
   DEG_THRESHOLD= 0.2000000E-02 threshold for treating states as degnerate
   RTIME   =   -0.100 relaxation time in fs
  (WPLASMAI=    0.000 imaginary part of plasma frequency in eV, 0.658/RTIME)
   DFIELD  = 0.0000000 0.0000000 0.0000000 field for delta impulse in time
 
 Orbital magnetization related:
   ORBITALMAG=     F  switch on orbital magnetization
   LCHIMAG   =     F  perturbation theory with respect to B field
   DQ        =  0.001000  dq finite difference perturbation B field
   LLRAUG    =     F  two centre corrections for induced B field



--------------------------------------------------------------------------------------------------------


 Static calculation
 charge density and potential will be updated during run
 non-spin polarized calculation
 Variant of blocked Davidson
 Davidson routine will perform the subspace rotation
 perform sub-space diagonalisation
    after iterative eigenvector-optimisation
 modified Broyden-mixing scheme, WC =      100.0
 initial mixing is a Kerker type mixing with AMIX =  0.4000 and BMIX =      1.0000
 Hartree-type preconditioning will be used
 using additional bands           16
 real space projection scheme for non local part
 use partial core corrections
 calculate Harris-corrections to forces 
   (improved forces if not selfconsistent)
 use gradient corrections 
 use of overlap-Matrix (Vanderbilt PP)
 Fermi weights with tetrahedron method with Bloechl corrections


--------------------------------------------------------------------------------------------------------


  energy-cutoff  :      500.00
  volume of cell :     1888.05
      direct lattice vectors                 reciprocal lattice vectors
    24.009468079  0.000000000  0.000000000     0.041650236  0.000000000  0.000000000
     0.000000000  6.777849674  0.000000000     0.000000000  0.147539419  0.000000000
     0.000000000  0.000000000 11.602143288     0.000000000  0.000000000  0.086190971

  length of vectors
    24.009468079  6.777849674 11.602143288     0.041650236  0.147539419  0.086190971


 
 k-points in units of 2pi/SCALE and weight: k-density: 8.0                          
   0.00000000  0.00000000  0.00000000       0.025
   0.00000000  0.01844243  0.00000000       0.050
   0.00000000  0.03688485  0.00000000       0.050
   0.00000000  0.05532728  0.00000000       0.050
   0.00000000  0.07376971  0.00000000       0.025
   0.00000000  0.00000000  0.01723819       0.050
   0.00000000  0.01844243  0.01723819       0.100
   0.00000000  0.03688485  0.01723819       0.100
   0.00000000  0.05532728  0.01723819       0.100
   0.00000000  0.07376971  0.01723819       0.050
   0.00000000  0.00000000  0.03447639       0.050
   0.00000000  0.01844243  0.03447639       0.100
   0.00000000  0.03688485  0.03447639       0.100
   0.00000000  0.05532728  0.03447639       0.100
   0.00000000  0.07376971  0.03447639       0.050
 
 k-points in reciprocal lattice and weights: k-density: 8.0                          
   0.00000000  0.00000000  0.00000000       0.025
   0.00000000  0.12500000  0.00000000       0.050
   0.00000000  0.25000000  0.00000000       0.050
   0.00000000  0.37500000  0.00000000       0.050
   0.00000000  0.50000000  0.00000000       0.025
   0.00000000  0.00000000  0.20000000       0.050
   0.00000000  0.12500000  0.20000000       0.100
   0.00000000  0.25000000  0.20000000       0.100
   0.00000000  0.37500000  0.20000000       0.100
   0.00000000  0.50000000  0.20000000       0.050
   0.00000000  0.00000000  0.40000000       0.050
   0.00000000  0.12500000  0.40000000       0.100
   0.00000000  0.25000000  0.40000000       0.100
   0.00000000  0.37500000  0.40000000       0.100
   0.00000000  0.50000000  0.40000000       0.050
 
 position of ions in fractional coordinates (direct lattice) 
   0.00569361  0.25000000  0.70315210
   0.38621295  0.75000002  0.29684790
   0.18192962  0.75000002  0.18533051
   0.20997694  0.25000000  0.81466947
   0.05978014  0.75000002  0.91482076
   0.33212642  0.25000000  0.08517921
   0.12784309  0.25000000  0.39374208
   0.26406347  0.75000002  0.60625797
   0.07289913  0.07286406  0.14112587
   0.31900743  0.92713593  0.85887411
   0.11472410  0.92864956  0.65937286
   0.27718246  0.07135043  0.34062714
   0.31900743  0.57286407  0.85887411
   0.07289913  0.42713593  0.14112587
   0.27718246  0.42864956  0.34062714
   0.11472410  0.57135044  0.65937286
   0.03110981  0.75000002  0.59984046
   0.36079675  0.25000000  0.40015954
   0.15651343  0.25000000  0.07968023
   0.23539314  0.75000002  0.92031975
   0.07418398  0.25000000  0.95930545
   0.31772258  0.75000002  0.04069457
   0.11343925  0.75000002  0.47719187
   0.27846731  0.25000000  0.52280805
 
 position of ions in cartesian coordinates  (Angst):
   0.13670066  1.69446242  8.15807142
   9.27276745  5.08338737  3.44407187
   4.36803341  5.08338737  2.15023117
   5.04143467  1.69446242  9.45191188
   1.43528938  5.08338737 10.61388159
   7.97417870  1.69446242  0.98826145
   3.06944466  1.69446242  4.56825198
   6.34002342  5.08338737  7.03389179
   1.75026941  0.49386167  1.63736261
   7.65919867  6.28398794  9.96478044
   2.75446463  6.29424713  7.65013840
   6.65500345  0.48360249  3.95200489
   7.65919867  3.88278657  9.96478044
   1.75026941  2.89506311  1.63736261
   6.65500345  2.90532229  3.95200489
   2.75446463  3.87252738  7.65013840
   0.74692994  5.08338737  6.95943501
   8.66253796  1.69446242  4.64270827
   3.75780416  1.69446242  0.92446147
   5.65166416  5.08338737 10.67768158
   1.78111780  1.69446242 11.12999923
   7.62835016  5.08338737  0.47214423
   2.72361612  5.08338737  5.53644841
   6.68585196  1.69446242  6.06569392
 


--------------------------------------------------------------------------------------------------------


 k-point  1 :   0.0000 0.0000 0.0000  plane waves:   47989
 k-point  2 :   0.0000 0.1250 0.0000  plane waves:   47929
 k-point  3 :   0.0000 0.2500 0.0000  plane waves:   47901
 k-point  4 :   0.0000 0.3750 0.0000  plane waves:   47910
 k-point  5 :   0.0000 0.5000 0.0000  plane waves:   47868
 k-point  6 :   0.0000 0.0000 0.2000  plane waves:   48006
 k-point  7 :   0.0000 0.1250 0.2000  plane waves:   47967
 k-point  8 :   0.0000 0.2500 0.2000  plane waves:   47907
 k-point  9 :   0.0000 0.3750 0.2000  plane waves:   47884
 k-point 10 :   0.0000 0.5000 0.2000  plane waves:   47884
 k-point 11 :   0.0000 0.0000 0.4000  plane waves:   47922
 k-point 12 :   0.0000 0.1250 0.4000  plane waves:   47954
 k-point 13 :   0.0000 0.2500 0.4000  plane waves:   47967
 k-point 14 :   0.0000 0.3750 0.4000  plane waves:   47928
 k-point 15 :   0.0000 0.5000 0.4000  plane waves:   47890

 maximum and minimum number of plane-waves per node :     12077    11868

 maximum number of plane-waves:     48006
 maximum index in each direction: 
   IXMAX=   43   IYMAX=   12   IZMAX=   21
   IXMIN=  -43   IYMIN=  -12   IZMIN=  -21


 real space projection operators:
  total allocation   :       4540.31 KBytes
  max/ min on nodes  :       1140.83       1130.59


 parallel 3D FFT for wavefunctions:
    minimum data exchange during FFTs selected (reduces bandwidth)
 parallel 3D FFT for charge:
    minimum data exchange during FFTs selected (reduces bandwidth)


 total amount of memory used by VASP MPI-rank0    79357. kBytes
=======================================================================

   base      :      30000. kBytes
   nonlr-proj:       2651. kBytes
   fftplans  :       5898. kBytes
   grid      :       8824. kBytes
   one-center:         93. kBytes
   wavefun   :      31891. kBytes
 
     INWAV:  cpu time    0.0000: real time    0.0000
 Broyden mixing: mesh for mixing (old mesh)
   NGX = 87   NGY = 25   NGZ = 43
  (NGX  =280   NGY  = 80   NGZ  =128)
  gives a total of  93525 points

 initial charge density was supplied:
 charge density of overlapping atoms calculated
 number of electron     144.0000000 magnetization 
 keeping initial charge density in first step


--------------------------------------------------------------------------------------------------------


 Maximum index for non-local projection operator          744
 Maximum index for augmentation-charges          607 (set IRDMAX)


--------------------------------------------------------------------------------------------------------


 First call to EWALD:  gamma=   0.143
 Maximum number of real-space cells 2x 5x 3
 Maximum number of reciprocal cells 5x 2x 3

    FEWALD:  cpu time    0.0036: real time    0.0036


--------------------------------------- Iteration      1(   1)  ---------------------------------------


    POTLOK:  cpu time    0.0808: real time    0.1487
    SETDIJ:  cpu time    0.0027: real time    0.0029
     EDDAV:  cpu time    2.9081: real time    2.9951
 BZINTS: Fermi energy:  7.009539;144.000000 electrons
         Band energy:-462.808902;  BLOECHL correction: -0.030262
       DOS:  cpu time    0.0124: real time    0.0124
    --------------------------------------------
      LOOP:  cpu time    3.0041: real time    3.1592

 eigenvalue-minimisations  :  2768
 total energy-change (2. order) : 0.1182374E+04  (-0.4780634E+04)
 number of electron     144.0000000 magnetization 
 augmentation part      144.0000000 magnetization 

 Free energy of the ion-electron system (eV)
  ---------------------------------------------------
  alpha Z        PSCENC =       170.45750602
  Ewald energy   TEWEN  =     11316.38581129
  -Hartree energ DENC   =    -17435.92202578
  -exchange      EXHF   =         0.00000000
  -V(xc)+E(xc)   XCENC  =        41.74198695
  PAW double counting   =      3692.15173346    -3390.49189382
  entropy T*S    EENTRO =         0.00000000
  eigenvalues    EBANDS =      -462.80890161
  atomic energy  EATOM  =      7250.85976021
  Solvation  Ediel_sol  =         0.00000000
  ---------------------------------------------------
  free energy    TOTEN  =      1182.37397672 eV

  energy without entropy =     1182.37397672  energy(sigma->0) =     1182.37397672


--------------------------------------------------------------------------------------------------------




--------------------------------------- Iteration      1(   2)  ---------------------------------------


     EDDAV:  cpu time    3.7731: real time    3.7939
 BZINTS: Fermi energy: -1.941343;144.000000 electrons
         Band energy:***********;  BLOECHL correction:  0.000000
       DOS:  cpu time    0.0025: real time    0.0025
    --------------------------------------------
      LOOP:  cpu time    3.7757: real time    3.7965

 eigenvalue-minimisations  :  3856
 total energy-change (2. order) :-0.1123030E+04  (-0.1094694E+04)
 number of electron     144.0000000 magnetization 
 augmentation part      144.0000000 magnetization 

 Free energy of the ion-electron system (eV)
  ---------------------------------------------------
  alpha Z        PSCENC =       170.45750602
  Ewald energy   TEWEN  =     11316.38581129
  -Hartree energ DENC   =    -17435.92202578
  -exchange      EXHF   =         0.00000000
  -V(xc)+E(xc)   XCENC  =        41.74198695
  PAW double counting   =      3692.15173346    -3390.49189382
  entropy T*S    EENTRO =         0.00000000
  eigenvalues    EBANDS =     -1585.83888431
  atomic energy  EATOM  =      7250.85976021
  Solvation  Ediel_sol  =         0.00000000
  ---------------------------------------------------
  free energy    TOTEN  =        59.34399403 eV

  energy without entropy =       59.34399403  energy(sigma->0) =       59.34399403


--------------------------------------------------------------------------------------------------------




--------------------------------------- Iteration      1(   3)  ---------------------------------------


     EDDAV:  cpu time    3.4392: real time    3.4586
 BZINTS: Fermi energy: -3.288147;144.000000 electrons
         Band energy:***********;  BLOECHL correction:  0.000000
       DOS:  cpu time    0.0020: real time    0.0020
    --------------------------------------------
      LOOP:  cpu time    3.4412: real time    3.4606

 eigenvalue-minimisations  :  3232
 total energy-change (2. order) :-0.1679042E+03  (-0.1672164E+03)
 number of electron     144.0000000 magnetization 
 augmentation part      144.0000000 magnetization 

 Free energy of the ion-electron system (eV)
  ---------------------------------------------------
  alpha Z        PSCENC =       170.45750602
  Ewald energy   TEWEN  =     11316.38581129
  -Hartree energ DENC   =    -17435.92202578
  -exchange      EXHF   =         0.00000000
  -V(xc)+E(xc)   XCENC  =        41.74198695
  PAW double counting   =      3692.15173346    -3390.49189382
  entropy T*S    EENTRO =         0.00000000
  eigenvalues    EBANDS =     -1753.74303921
  atomic energy  EATOM  =      7250.85976021
  Solvation  Ediel_sol  =         0.00000000
  ---------------------------------------------------
  free energy    TOTEN  =      -108.56016087 eV

  energy without entropy =     -108.56016087  energy(sigma->0) =     -108.56016087


--------------------------------------------------------------------------------------------------------




--------------------------------------- Iteration      1(   4)  ---------------------------------------


     EDDAV:  cpu time    3.7630: real time    3.7829
 BZINTS: Fermi energy: -3.363546;144.000000 electrons
         Band energy:***********;  BLOECHL correction:  0.000000
       DOS:  cpu time    0.0020: real time    0.0020
    --------------------------------------------
      LOOP:  cpu time    3.7650: real time    3.7849

 eigenvalue-minimisations  :  3752
 total energy-change (2. order) :-0.5996935E+01  (-0.5980581E+01)
 number of electron     144.0000000 magnetization 
 augmentation part      144.0000000 magnetization 

 Free energy of the ion-electron system (eV)
  ---------------------------------------------------
  alpha Z        PSCENC =       170.45750602
  Ewald energy   TEWEN  =     11316.38581129
  -Hartree energ DENC   =    -17435.92202578
  -exchange      EXHF   =         0.00000000
  -V(xc)+E(xc)   XCENC  =        41.74198695
  PAW double counting   =      3692.15173346    -3390.49189382
  entropy T*S    EENTRO =         0.00000000
  eigenvalues    EBANDS =     -1759.73997445
  atomic energy  EATOM  =      7250.85976021
  Solvation  Ediel_sol  =         0.00000000
  ---------------------------------------------------
  free energy    TOTEN  =      -114.55709612 eV

  energy without entropy =     -114.55709612  energy(sigma->0) =     -114.55709612


--------------------------------------------------------------------------------------------------------




--------------------------------------- Iteration      1(   5)  ---------------------------------------


     EDDAV:  cpu time    4.0739: real time    4.0956
 BZINTS: Fermi energy: -3.338991;144.000000 electrons
         Band energy:***********;  BLOECHL correction:  0.000000
       DOS:  cpu time    0.0023: real time    0.0023
    CHARGE:  cpu time    0.1959: real time    0.1964
    MIXING:  cpu time    0.0063: real time    0.0065
    --------------------------------------------
      LOOP:  cpu time    4.2784: real time    4.3007

 eigenvalue-minimisations  :  4200
 total energy-change (2. order) :-0.2799184E+00  (-0.2798384E+00)
 number of electron     143.9999989 magnetization 
 augmentation part      -17.5371311 magnetization 

 Broyden mixing:
  rms(total) = 0.92032E+00    rms(broyden)= 0.92031E+00
  rms(prec ) = 0.11925E+01
  weight for this iteration     100.00

 Free energy of the ion-electron system (eV)
  ---------------------------------------------------
  alpha Z        PSCENC =       170.45750602
  Ewald energy   TEWEN  =     11316.38581129
  -Hartree energ DENC   =    -17435.92202578
  -exchange      EXHF   =         0.00000000
  -V(xc)+E(xc)   XCENC  =        41.74198695
  PAW double counting   =      3692.15173346    -3390.49189382
  entropy T*S    EENTRO =         0.00000000
  eigenvalues    EBANDS =     -1760.01989285
  atomic energy  EATOM  =      7250.85976021
  Solvation  Ediel_sol  =         0.00000000
  ---------------------------------------------------
  free energy    TOTEN  =      -114.83701451 eV

  energy without entropy =     -114.83701451  energy(sigma->0) =     -114.83701451


--------------------------------------------------------------------------------------------------------




--------------------------------------- Iteration      1(   6)  ---------------------------------------


    POTLOK:  cpu time    0.1134: real time    0.1260
    SETDIJ:  cpu time    0.0024: real time    0.0024
     EDDAV:  cpu time    3.1553: real time    3.1630
 BZINTS: Fermi energy: -2.264020;144.000000 electrons
         Band energy:***********;  BLOECHL correction:  0.000000
       DOS:  cpu time    0.0024: real time    0.0024
    CHARGE:  cpu time    0.1591: real time    0.1594
    MIXING:  cpu time    0.0069: real time    0.0070
    --------------------------------------------
      LOOP:  cpu time    3.4395: real time    3.4602

 eigenvalue-minimisations  :  3000
 total energy-change (2. order) : 0.8287534E+01  (-0.2059712E+01)
 number of electron     143.9999988 magnetization 
 augmentation part      -17.4237522 magnetization 

 Broyden mixing:
  rms(total) = 0.46543E+00    rms(broyden)= 0.46543E+00
  rms(prec ) = 0.58478E+00
  weight for this iteration     100.00

 eigenvalues of (default mixing * dielectric matrix)
  average eigenvalue GAMMA=   1.5429
  1.5429

 Free energy of the ion-electron system (eV)
  ---------------------------------------------------
  alpha Z        PSCENC =       170.45750602
  Ewald energy   TEWEN  =     11316.38581129
  -Hartree energ DENC   =    -17527.08578105
  -exchange      EXHF   =         0.00000000
  -V(xc)+E(xc)   XCENC  =        44.59577287
  PAW double counting   =      3725.83449912    -3431.34520119
  entropy T*S    EENTRO =         0.00000000
  eigenvalues    EBANDS =     -1656.25184757
  atomic energy  EATOM  =      7250.85976021
  Solvation  Ediel_sol  =         0.00000000
  ---------------------------------------------------
  free energy    TOTEN  =      -106.54948029 eV

  energy without entropy =     -106.54948029  energy(sigma->0) =     -106.54948029


--------------------------------------------------------------------------------------------------------




--------------------------------------- Iteration      1(   7)  ---------------------------------------


    POTLOK:  cpu time    0.0669: real time    0.0770
    SETDIJ:  cpu time    0.0019: real time    0.0019
     EDDAV:  cpu time    3.4597: real time    3.4680
 BZINTS: Fermi energy: -1.447951;144.000000 electrons
         Band energy:***********;  BLOECHL correction:  0.000000
       DOS:  cpu time    0.0023: real time    0.0023
    CHARGE:  cpu time    0.1566: real time    0.1570
    MIXING:  cpu time    0.0055: real time    0.0058
    --------------------------------------------
      LOOP:  cpu time    3.6930: real time    3.7120

 eigenvalue-minimisations  :  3480
 total energy-change (2. order) : 0.1306632E+01  (-0.9956447E+00)
 number of electron     143.9999988 magnetization 
 augmentation part      -17.5120422 magnetization 

 Broyden mixing:
  rms(total) = 0.24437E+00    rms(broyden)= 0.24437E+00
  rms(prec ) = 0.29584E+00
  weight for this iteration     100.00

 eigenvalues of (default mixing * dielectric matrix)
  average eigenvalue GAMMA=   1.8569
  1.8569  1.8569

 Free energy of the ion-electron system (eV)
  ---------------------------------------------------
  alpha Z        PSCENC =       170.45750602
  Ewald energy   TEWEN  =     11316.38581129
  -Hartree energ DENC   =    -17603.97692286
  -exchange      EXHF   =         0.00000000
  -V(xc)+E(xc)   XCENC  =        46.90470046
  PAW double counting   =      3769.88187562    -3481.20159919
  entropy T*S    EENTRO =         0.00000000
  eigenvalues    EBANDS =     -1574.55397978
  atomic energy  EATOM  =      7250.85976021
  Solvation  Ediel_sol  =         0.00000000
  ---------------------------------------------------
  free energy    TOTEN  =      -105.24284824 eV

  energy without entropy =     -105.24284824  energy(sigma->0) =     -105.24284824


--------------------------------------------------------------------------------------------------------




--------------------------------------- Iteration      1(   8)  ---------------------------------------


    POTLOK:  cpu time    0.0663: real time    0.0762
    SETDIJ:  cpu time    0.0034: real time    0.0034
     EDDAV:  cpu time    3.2366: real time    3.2445
 BZINTS: Fermi energy: -1.258635;144.000000 electrons
         Band energy:***********;  BLOECHL correction:  0.000000
       DOS:  cpu time    0.0020: real time    0.0020
    CHARGE:  cpu time    0.1709: real time    0.1713
    MIXING:  cpu time    0.0053: real time    0.0056
    --------------------------------------------
      LOOP:  cpu time    3.4845: real time    3.5031

 eigenvalue-minimisations  :  3112
 total energy-change (2. order) : 0.2158712E+00  (-0.3523543E+00)
 number of electron     143.9999988 magnetization 
 augmentation part      -17.6438014 magnetization 

 Broyden mixing:
  rms(total) = 0.11602E+00    rms(broyden)= 0.11602E+00
  rms(prec ) = 0.18717E+00
  weight for this iteration     100.00

 eigenvalues of (default mixing * dielectric matrix)
  average eigenvalue GAMMA=   1.6818
  2.6168  1.2143  1.2143

 Free energy of the ion-electron system (eV)
  ---------------------------------------------------
  alpha Z        PSCENC =       170.45750602
  Ewald energy   TEWEN  =     11316.38581129
  -Hartree energ DENC   =    -17640.57823338
  -exchange      EXHF   =         0.00000000
  -V(xc)+E(xc)   XCENC  =        47.84490473
  PAW double counting   =      3819.29128915    -3532.40082936
  entropy T*S    EENTRO =         0.00000000
  eigenvalues    EBANDS =     -1536.88718575
  atomic energy  EATOM  =      7250.85976021
  Solvation  Ediel_sol  =         0.00000000
  ---------------------------------------------------
  free energy    TOTEN  =      -105.02697708 eV

  energy without entropy =     -105.02697708  energy(sigma->0) =     -105.02697708


--------------------------------------------------------------------------------------------------------




--------------------------------------- Iteration      1(   9)  ---------------------------------------


    POTLOK:  cpu time    0.0647: real time    0.0765
    SETDIJ:  cpu time    0.0016: real time    0.0016
     EDDAV:  cpu time    3.1907: real time    3.1983
 BZINTS: Fermi energy: -0.872694;144.000000 electrons
         Band energy:***********;  BLOECHL correction:  0.000000
       DOS:  cpu time    0.0024: real time    0.0024
    CHARGE:  cpu time    0.1688: real time    0.1692
    MIXING:  cpu time    0.0063: real time    0.0063
    --------------------------------------------
      LOOP:  cpu time    3.4345: real time    3.4544

 eigenvalue-minimisations  :  3104
 total energy-change (2. order) : 0.2719567E+00  (-0.1121464E+00)
 number of electron     143.9999988 magnetization 
 augmentation part      -17.6172568 magnetization 

 Broyden mixing:
  rms(total) = 0.56213E-01    rms(broyden)= 0.56212E-01
  rms(prec ) = 0.81408E-01
  weight for this iteration     100.00

 eigenvalues of (default mixing * dielectric matrix)
  average eigenvalue GAMMA=   1.4168
  2.5463  1.2173  1.2173  0.6864

 Free energy of the ion-electron system (eV)
  ---------------------------------------------------
  alpha Z        PSCENC =       170.45750602
  Ewald energy   TEWEN  =     11316.38581129
  -Hartree energ DENC   =    -17680.30552219
  -exchange      EXHF   =         0.00000000
  -V(xc)+E(xc)   XCENC  =        48.79104356
  PAW double counting   =      3829.89062528    -3544.32971033
  entropy T*S    EENTRO =         0.00000000
  eigenvalues    EBANDS =     -1496.50453424
  atomic energy  EATOM  =      7250.85976021
  Solvation  Ediel_sol  =         0.00000000
  ---------------------------------------------------
  free energy    TOTEN  =      -104.75502039 eV

  energy without entropy =     -104.75502039  energy(sigma->0) =     -104.75502039


--------------------------------------------------------------------------------------------------------




--------------------------------------- Iteration      1(  10)  ---------------------------------------


    POTLOK:  cpu time    0.0693: real time    0.0815
    SETDIJ:  cpu time    0.0021: real time    0.0021
     EDDAV:  cpu time    3.5742: real time    3.5827
 BZINTS: Fermi energy: -0.797018;144.000000 electrons
         Band energy:***********;  BLOECHL correction:  0.000000
       DOS:  cpu time    0.0021: real time    0.0021
    CHARGE:  cpu time    0.1659: real time    0.1663
    MIXING:  cpu time    0.0058: real time    0.0059
    --------------------------------------------
      LOOP:  cpu time    3.8194: real time    3.8405

 eigenvalue-minimisations  :  3496
 total energy-change (2. order) :-0.1483190E-01  (-0.2514786E-01)
 number of electron     143.9999988 magnetization 
 augmentation part      -17.6378870 magnetization 

 Broyden mixing:
  rms(total) = 0.42616E-01    rms(broyden)= 0.42616E-01
  rms(prec ) = 0.63464E-01
  weight for this iteration     100.00

 eigenvalues of (default mixing * dielectric matrix)
  average eigenvalue GAMMA=   1.6261
  2.5402  2.5402  1.1035  0.9734  0.9734

 Free energy of the ion-electron system (eV)
  ---------------------------------------------------
  alpha Z        PSCENC =       170.45750602
  Ewald energy   TEWEN  =     11316.38581129
  -Hartree energ DENC   =    -17691.11333109
  -exchange      EXHF   =         0.00000000
  -V(xc)+E(xc)   XCENC  =        48.82227532
  PAW double counting   =      3825.14266778    -3539.26557026
  entropy T*S    EENTRO =         0.00000000
  eigenvalues    EBANDS =     -1486.05897157
  atomic energy  EATOM  =      7250.85976021
  Solvation  Ediel_sol  =         0.00000000
  ---------------------------------------------------
  free energy    TOTEN  =      -104.76985229 eV

  energy without entropy =     -104.76985229  energy(sigma->0) =     -104.76985229


--------------------------------------------------------------------------------------------------------




--------------------------------------- Iteration      1(  11)  ---------------------------------------


    POTLOK:  cpu time    0.0654: real time    0.0767
    SETDIJ:  cpu time    0.0018: real time    0.0018
     EDDAV:  cpu time    3.2468: real time    3.2545
 BZINTS: Fermi energy: -0.671308;144.000000 electrons
         Band energy:***********;  BLOECHL correction:  0.000000
       DOS:  cpu time    0.0021: real time    0.0021
    CHARGE:  cpu time    0.1546: real time    0.1550
    MIXING:  cpu time    0.0055: real time    0.0056
    --------------------------------------------
      LOOP:  cpu time    3.4763: real time    3.4958

 eigenvalue-minimisations  :  3136
 total energy-change (2. order) : 0.8132696E-02  (-0.7261951E-02)
 number of electron     143.9999988 magnetization 
 augmentation part      -17.6442685 magnetization 

 Broyden mixing:
  rms(total) = 0.15998E-01    rms(broyden)= 0.15998E-01
  rms(prec ) = 0.31863E-01
  weight for this iteration     100.00

 eigenvalues of (default mixing * dielectric matrix)
  average eigenvalue GAMMA=   1.6307
  2.8630  2.8630  1.1025  1.0482  0.9538  0.9538

 Free energy of the ion-electron system (eV)
  ---------------------------------------------------
  alpha Z        PSCENC =       170.45750602
  Ewald energy   TEWEN  =     11316.38581129
  -Hartree energ DENC   =    -17711.09684680
  -exchange      EXHF   =         0.00000000
  -V(xc)+E(xc)   XCENC  =        48.99925913
  PAW double counting   =      3826.15103992    -3539.93165698
  entropy T*S    EENTRO =         0.00000000
  eigenvalues    EBANDS =     -1466.58659239
  atomic energy  EATOM  =      7250.85976021
  Solvation  Ediel_sol  =         0.00000000
  ---------------------------------------------------
  free energy    TOTEN  =      -104.76171960 eV

  energy without entropy =     -104.76171960  energy(sigma->0) =     -104.76171960


--------------------------------------------------------------------------------------------------------




--------------------------------------- Iteration      1(  12)  ---------------------------------------


    POTLOK:  cpu time    0.0768: real time    0.0890
    SETDIJ:  cpu time    0.0031: real time    0.0031
     EDDAV:  cpu time    3.2451: real time    3.2528
 BZINTS: Fermi energy: -0.598715;144.000000 electrons
         Band energy:***********;  BLOECHL correction:  0.000000
       DOS:  cpu time    0.0020: real time    0.0020
    CHARGE:  cpu time    0.1695: real time    0.1699
    MIXING:  cpu time    0.0057: real time    0.0058
    --------------------------------------------
      LOOP:  cpu time    3.5023: real time    3.5226

 eigenvalue-minimisations  :  3136
 total energy-change (2. order) :-0.4851112E-02  (-0.1529375E-02)
 number of electron     143.9999988 magnetization 
 augmentation part      -17.6386465 magnetization 

 Broyden mixing:
  rms(total) = 0.12441E-01    rms(broyden)= 0.12441E-01
  rms(prec ) = 0.21225E-01
  weight for this iteration     100.00

 eigenvalues of (default mixing * dielectric matrix)
  average eigenvalue GAMMA=   1.7757
  3.8034  2.5349  2.0363  1.1272  1.1272  0.9006  0.9006

 Free energy of the ion-electron system (eV)
  ---------------------------------------------------
  alpha Z        PSCENC =       170.45750602
  Ewald energy   TEWEN  =     11316.38581129
  -Hartree energ DENC   =    -17723.30397736
  -exchange      EXHF   =         0.00000000
  -V(xc)+E(xc)   XCENC  =        49.06075551
  PAW double counting   =      3823.97494779    -3537.61290200
  entropy T*S    EENTRO =         0.00000000
  eigenvalues    EBANDS =     -1454.58847217
  atomic energy  EATOM  =      7250.85976021
  Solvation  Ediel_sol  =         0.00000000
  ---------------------------------------------------
  free energy    TOTEN  =      -104.76657071 eV

  energy without entropy =     -104.76657071  energy(sigma->0) =     -104.76657071


--------------------------------------------------------------------------------------------------------




--------------------------------------- Iteration      1(  13)  ---------------------------------------


    POTLOK:  cpu time    0.0708: real time    0.0816
    SETDIJ:  cpu time    0.0017: real time    0.0017
     EDDAV:  cpu time    3.3324: real time    3.3403
 BZINTS: Fermi energy: -0.539218;144.000000 electrons
         Band energy:***********;  BLOECHL correction:  0.000000
       DOS:  cpu time    0.0021: real time    0.0021
    CHARGE:  cpu time    0.1502: real time    0.1506
    MIXING:  cpu time    0.0064: real time    0.0065
    --------------------------------------------
      LOOP:  cpu time    3.5637: real time    3.5828

 eigenvalue-minimisations  :  3272
 total energy-change (2. order) :-0.9049819E-02  (-0.1037747E-02)
 number of electron     143.9999988 magnetization 
 augmentation part      -17.6403733 magnetization 

 Broyden mixing:
  rms(total) = 0.66108E-02    rms(broyden)= 0.66108E-02
  rms(prec ) = 0.11532E-01
  weight for this iteration     100.00

 eigenvalues of (default mixing * dielectric matrix)
  average eigenvalue GAMMA=   1.8358
  4.2190  2.9301  2.4432  1.2145  1.2145  0.8979  0.8838  0.8838

 Free energy of the ion-electron system (eV)
  ---------------------------------------------------
  alpha Z        PSCENC =       170.45750602
  Ewald energy   TEWEN  =     11316.38581129
  -Hartree energ DENC   =    -17733.92657768
  -exchange      EXHF   =         0.00000000
  -V(xc)+E(xc)   XCENC  =        49.12028598
  PAW double counting   =      3822.23005369    -3535.99046326
  entropy T*S    EENTRO =         0.00000000
  eigenvalues    EBANDS =     -1443.91199678
  atomic energy  EATOM  =      7250.85976021
  Solvation  Ediel_sol  =         0.00000000
  ---------------------------------------------------
  free energy    TOTEN  =      -104.77562053 eV

  energy without entropy =     -104.77562053  energy(sigma->0) =     -104.77562053


--------------------------------------------------------------------------------------------------------




--------------------------------------- Iteration      1(  14)  ---------------------------------------


    POTLOK:  cpu time    0.0656: real time    0.0775
    SETDIJ:  cpu time    0.0018: real time    0.0018
     EDDAV:  cpu time    3.1271: real time    3.1345
 BZINTS: Fermi energy: -0.520173;144.000000 electrons
         Band energy:***********;  BLOECHL correction:  0.000000
       DOS:  cpu time    0.0021: real time    0.0021
    CHARGE:  cpu time    0.1851: real time    0.1855
    MIXING:  cpu time    0.0064: real time    0.0064
    --------------------------------------------
      LOOP:  cpu time    3.3881: real time    3.4078

 eigenvalue-minimisations  :  3024
 total energy-change (2. order) :-0.4963129E-02  (-0.2842543E-03)
 number of electron     143.9999988 magnetization 
 augmentation part      -17.6411879 magnetization 

 Broyden mixing:
  rms(total) = 0.55492E-02    rms(broyden)= 0.55492E-02
  rms(prec ) = 0.88488E-02
  weight for this iteration     100.00

 eigenvalues of (default mixing * dielectric matrix)
  average eigenvalue GAMMA=   1.8595
  4.6510  3.1120  2.2095  1.4325  1.4325  0.9096  0.9096  1.0394  1.0394

 Free energy of the ion-electron system (eV)
  ---------------------------------------------------
  alpha Z        PSCENC =       170.45750602
  Ewald energy   TEWEN  =     11316.38581129
  -Hartree energ DENC   =    -17737.27929732
  -exchange      EXHF   =         0.00000000
  -V(xc)+E(xc)   XCENC  =        49.11877969
  PAW double counting   =      3821.29390261    -3535.06437979
  entropy T*S    EENTRO =         0.00000000
  eigenvalues    EBANDS =     -1440.55266638
  atomic energy  EATOM  =      7250.85976021
  Solvation  Ediel_sol  =         0.00000000
  ---------------------------------------------------
  free energy    TOTEN  =      -104.78058366 eV

  energy without entropy =     -104.78058366  energy(sigma->0) =     -104.78058366


--------------------------------------------------------------------------------------------------------




--------------------------------------- Iteration      1(  15)  ---------------------------------------


    POTLOK:  cpu time    0.0707: real time    0.0825
    SETDIJ:  cpu time    0.0021: real time    0.0021
     EDDAV:  cpu time    3.1159: real time    3.1233
 BZINTS: Fermi energy: -0.507130;144.000000 electrons
         Band energy:***********;  BLOECHL correction:  0.000000
       DOS:  cpu time    0.0020: real time    0.0020
    CHARGE:  cpu time    0.1930: real time    0.1935
    MIXING:  cpu time    0.0069: real time    0.0069
    --------------------------------------------
      LOOP:  cpu time    3.3906: real time    3.4104

 eigenvalue-minimisations  :  3048
 total energy-change (2. order) :-0.1625783E-02  (-0.1770744E-03)
 number of electron     143.9999988 magnetization 
 augmentation part      -17.6431160 magnetization 

 Broyden mixing:
  rms(total) = 0.21805E-02    rms(broyden)= 0.21805E-02
  rms(prec ) = 0.42264E-02
  weight for this iteration     100.00

 eigenvalues of (default mixing * dielectric matrix)
  average eigenvalue GAMMA=   1.9574
  5.4119  3.5971  2.4260  1.7225  0.9052  0.9052  1.2514  1.2514  1.0011  1.1027

 Free energy of the ion-electron system (eV)
  ---------------------------------------------------
  alpha Z        PSCENC =       170.45750602
  Ewald energy   TEWEN  =     11316.38581129
  -Hartree energ DENC   =    -17738.94039207
  -exchange      EXHF   =         0.00000000
  -V(xc)+E(xc)   XCENC  =        49.11217377
  PAW double counting   =      3821.75212103    -3535.48769146
  entropy T*S    EENTRO =         0.00000000
  eigenvalues    EBANDS =     -1438.92149824
  atomic energy  EATOM  =      7250.85976021
  Solvation  Ediel_sol  =         0.00000000
  ---------------------------------------------------
  free energy    TOTEN  =      -104.78220944 eV

  energy without entropy =     -104.78220944  energy(sigma->0) =     -104.78220944


--------------------------------------------------------------------------------------------------------




--------------------------------------- Iteration      1(  16)  ---------------------------------------


    POTLOK:  cpu time    0.0684: real time    0.0795
    SETDIJ:  cpu time    0.0016: real time    0.0016
     EDDAV:  cpu time    3.2362: real time    3.2439
 BZINTS: Fermi energy: -0.496230;144.000000 electrons
         Band energy:***********;  BLOECHL correction:  0.000000
       DOS:  cpu time    0.0021: real time    0.0021
    CHARGE:  cpu time    0.1529: real time    0.1533
    MIXING:  cpu time    0.0063: real time    0.0063
    --------------------------------------------
      LOOP:  cpu time    3.4675: real time    3.4867

 eigenvalue-minimisations  :  3120
 total energy-change (2. order) :-0.9412935E-03  (-0.6786573E-04)
 number of electron     143.9999988 magnetization 
 augmentation part      -17.6429577 magnetization 

 Broyden mixing:
  rms(total) = 0.15282E-02    rms(broyden)= 0.15282E-02
  rms(prec ) = 0.28004E-02
  weight for this iteration     100.00

 eigenvalues of (default mixing * dielectric matrix)
  average eigenvalue GAMMA=   2.0068
  5.6414  4.0861  2.5163  1.7243  1.7243  0.9086  0.9086  1.2773  1.2773  1.0052
  1.0052

 Free energy of the ion-electron system (eV)
  ---------------------------------------------------
  alpha Z        PSCENC =       170.45750602
  Ewald energy   TEWEN  =     11316.38581129
  -Hartree energ DENC   =    -17740.33731866
  -exchange      EXHF   =         0.00000000
  -V(xc)+E(xc)   XCENC  =        49.10865204
  PAW double counting   =      3821.94414940    -3535.68535047
  entropy T*S    EENTRO =         0.00000000
  eigenvalues    EBANDS =     -1437.51636056
  atomic energy  EATOM  =      7250.85976021
  Solvation  Ediel_sol  =         0.00000000
  ---------------------------------------------------
  free energy    TOTEN  =      -104.78315073 eV

  energy without entropy =     -104.78315073  energy(sigma->0) =     -104.78315073


--------------------------------------------------------------------------------------------------------




--------------------------------------- Iteration      1(  17)  ---------------------------------------


    POTLOK:  cpu time    0.0663: real time    0.0765
    SETDIJ:  cpu time    0.0016: real time    0.0016
     EDDAV:  cpu time    3.1713: real time    3.1789
 BZINTS: Fermi energy: -0.487444;144.000000 electrons
         Band energy:***********;  BLOECHL correction:  0.000000
       DOS:  cpu time    0.0022: real time    0.0022
    CHARGE:  cpu time    0.1551: real time    0.1555
    MIXING:  cpu time    0.0073: real time    0.0074
    --------------------------------------------
      LOOP:  cpu time    3.4038: real time    3.4220

 eigenvalue-minimisations  :  3112
 total energy-change (2. order) :-0.4149846E-03  (-0.3169025E-04)
 number of electron     143.9999988 magnetization 
 augmentation part      -17.6428879 magnetization 

 Broyden mixing:
  rms(total) = 0.10484E-02    rms(broyden)= 0.10484E-02
  rms(prec ) = 0.19102E-02
  weight for this iteration     100.00

 eigenvalues of (default mixing * dielectric matrix)
  average eigenvalue GAMMA=   2.0519
  6.0756  4.3098  2.7868  2.2412  1.6450  0.9070  0.9070  1.2972  1.2972  1.0970
  1.0970  0.9627

 Free energy of the ion-electron system (eV)
  ---------------------------------------------------
  alpha Z        PSCENC =       170.45750602
  Ewald energy   TEWEN  =     11316.38581129
  -Hartree energ DENC   =    -17741.30931230
  -exchange      EXHF   =         0.00000000
  -V(xc)+E(xc)   XCENC  =        49.11053986
  PAW double counting   =      3822.00511176    -3535.74453256
  entropy T*S    EENTRO =         0.00000000
  eigenvalues    EBANDS =     -1436.54845000
  atomic energy  EATOM  =      7250.85976021
  Solvation  Ediel_sol  =         0.00000000
  ---------------------------------------------------
  free energy    TOTEN  =      -104.78356572 eV

  energy without entropy =     -104.78356572  energy(sigma->0) =     -104.78356572


--------------------------------------------------------------------------------------------------------




--------------------------------------- Iteration      1(  18)  ---------------------------------------


    POTLOK:  cpu time    0.0694: real time    0.0816
    SETDIJ:  cpu time    0.0020: real time    0.0020
     EDDAV:  cpu time    3.0775: real time    3.0848
 BZINTS: Fermi energy: -0.482937;144.000000 electrons
         Band energy:***********;  BLOECHL correction:  0.000000
       DOS:  cpu time    0.0021: real time    0.0021
    CHARGE:  cpu time    0.1984: real time    0.1989
    MIXING:  cpu time    0.0069: real time    0.0069
    --------------------------------------------
      LOOP:  cpu time    3.3563: real time    3.3763

 eigenvalue-minimisations  :  2992
 total energy-change (2. order) :-0.9752143E-03  (-0.1827495E-04)
 number of electron     143.9999988 magnetization 
 augmentation part      -17.6427185 magnetization 

 Broyden mixing:
  rms(total) = 0.57960E-03    rms(broyden)= 0.57959E-03
  rms(prec ) = 0.10117E-02
  weight for this iteration     100.00

 eigenvalues of (default mixing * dielectric matrix)
  average eigenvalue GAMMA=   2.1287
  6.3450  5.0800  2.9853  2.5089  1.8831  0.9065  0.9065  1.3811  1.3811  1.1801
  1.1801  0.9677  0.9677

 Free energy of the ion-electron system (eV)
  ---------------------------------------------------
  alpha Z        PSCENC =       170.45750602
  Ewald energy   TEWEN  =     11316.38581129
  -Hartree energ DENC   =    -17742.03855063
  -exchange      EXHF   =         0.00000000
  -V(xc)+E(xc)   XCENC  =        49.11237544
  PAW double counting   =      3821.92631360    -3535.66307446
  entropy T*S    EENTRO =         0.00000000
  eigenvalues    EBANDS =     -1435.82468241
  atomic energy  EATOM  =      7250.85976021
  Solvation  Ediel_sol  =         0.00000000
  ---------------------------------------------------
  free energy    TOTEN  =      -104.78454093 eV

  energy without entropy =     -104.78454093  energy(sigma->0) =     -104.78454093


--------------------------------------------------------------------------------------------------------




--------------------------------------- Iteration      1(  19)  ---------------------------------------


    POTLOK:  cpu time    0.0611: real time    0.0731
    SETDIJ:  cpu time    0.0016: real time    0.0016
     EDDAV:  cpu time    2.8683: real time    2.8752
 BZINTS: Fermi energy: -0.482452;144.000000 electrons
         Band energy:***********;  BLOECHL correction:  0.000000
       DOS:  cpu time    0.0025: real time    0.0025
    CHARGE:  cpu time    0.1653: real time    0.1657
    MIXING:  cpu time    0.0089: real time    0.0090
    --------------------------------------------
      LOOP:  cpu time    3.1077: real time    3.1271

 eigenvalue-minimisations  :  2664
 total energy-change (2. order) :-0.6939137E-03  (-0.9052993E-05)
 number of electron     143.9999988 magnetization 
 augmentation part      -17.6428462 magnetization 

 Broyden mixing:
  rms(total) = 0.47053E-03    rms(broyden)= 0.47053E-03
  rms(prec ) = 0.68246E-03
  weight for this iteration     100.00

 eigenvalues of (default mixing * dielectric matrix)
  average eigenvalue GAMMA=   2.2574
  7.0409  5.6963  3.4008  2.7251  2.3017  1.6002  1.6002  0.9064  0.9064  1.2136
  1.2136  1.0157  1.0157  0.9675

 Free energy of the ion-electron system (eV)
  ---------------------------------------------------
  alpha Z        PSCENC =       170.45750602
  Ewald energy   TEWEN  =     11316.38581129
  -Hartree energ DENC   =    -17742.24525323
  -exchange      EXHF   =         0.00000000
  -V(xc)+E(xc)   XCENC  =        49.11108802
  PAW double counting   =      3821.88099093    -3535.61738431
  entropy T*S    EENTRO =         0.00000000
  eigenvalues    EBANDS =     -1435.61775377
  atomic energy  EATOM  =      7250.85976021
  Solvation  Ediel_sol  =         0.00000000
  ---------------------------------------------------
  free energy    TOTEN  =      -104.78523484 eV

  energy without entropy =     -104.78523484  energy(sigma->0) =     -104.78523484


--------------------------------------------------------------------------------------------------------




--------------------------------------- Iteration      1(  20)  ---------------------------------------


    POTLOK:  cpu time    0.0620: real time    0.0725
    SETDIJ:  cpu time    0.0025: real time    0.0025
     EDDAV:  cpu time    2.9471: real time    2.9540
 BZINTS: Fermi energy: -0.482536;144.000000 electrons
         Band energy:***********;  BLOECHL correction:  0.000000
       DOS:  cpu time    0.0020: real time    0.0020
    CHARGE:  cpu time    0.1505: real time    0.1509
    MIXING:  cpu time    0.0080: real time    0.0080
    --------------------------------------------
      LOOP:  cpu time    3.1721: real time    3.1899

 eigenvalue-minimisations  :  2712
 total energy-change (2. order) :-0.4461722E-03  (-0.7958099E-05)
 number of electron     143.9999988 magnetization 
 augmentation part      -17.6429353 magnetization 

 Broyden mixing:
  rms(total) = 0.16864E-03    rms(broyden)= 0.16864E-03
  rms(prec ) = 0.23443E-03
  weight for this iteration     100.00

 eigenvalues of (default mixing * dielectric matrix)
  average eigenvalue GAMMA=   2.3101
  7.7252  6.2739  3.5268  2.9996  2.2995  1.7062  1.7062  0.9065  0.9065  1.2385
  1.2385  1.1085  1.1085  0.9540  0.9540

 Free energy of the ion-electron system (eV)
  ---------------------------------------------------
  alpha Z        PSCENC =       170.45750602
  Ewald energy   TEWEN  =     11316.38581129
  -Hartree energ DENC   =    -17742.34830909
  -exchange      EXHF   =         0.00000000
  -V(xc)+E(xc)   XCENC  =        49.11057467
  PAW double counting   =      3821.88295643    -3535.61953322
  entropy T*S    EENTRO =         0.00000000
  eigenvalues    EBANDS =     -1435.51444733
  atomic energy  EATOM  =      7250.85976021
  Solvation  Ediel_sol  =         0.00000000
  ---------------------------------------------------
  free energy    TOTEN  =      -104.78568102 eV

  energy without entropy =     -104.78568102  energy(sigma->0) =     -104.78568102


--------------------------------------------------------------------------------------------------------




--------------------------------------- Iteration      1(  21)  ---------------------------------------


    POTLOK:  cpu time    0.0888: real time    0.0987
    SETDIJ:  cpu time    0.0032: real time    0.0032
     EDDAV:  cpu time    2.7962: real time    2.8029
 BZINTS: Fermi energy: -0.483421;144.000000 electrons
         Band energy:***********;  BLOECHL correction:  0.000000
       DOS:  cpu time    0.0021: real time    0.0021
    CHARGE:  cpu time    0.1761: real time    0.1765
    MIXING:  cpu time    0.0079: real time    0.0080
    --------------------------------------------
      LOOP:  cpu time    3.0743: real time    3.0914

 eigenvalue-minimisations  :  2544
 total energy-change (2. order) :-0.1195144E-03  (-0.1739102E-05)
 number of electron     143.9999988 magnetization 
 augmentation part      -17.6428974 magnetization 

 Broyden mixing:
  rms(total) = 0.96088E-04    rms(broyden)= 0.96088E-04
  rms(prec ) = 0.12159E-03
  weight for this iteration     100.00

 eigenvalues of (default mixing * dielectric matrix)
  average eigenvalue GAMMA=   2.3863
  8.8524  6.5453  3.7107  3.2232  2.3750  1.8735  1.8735  0.9065  0.9065  1.2526
  1.2526  1.2369  1.2369  1.0083  0.9632  0.9632

 Free energy of the ion-electron system (eV)
  ---------------------------------------------------
  alpha Z        PSCENC =       170.45750602
  Ewald energy   TEWEN  =     11316.38581129
  -Hartree energ DENC   =    -17742.32225561
  -exchange      EXHF   =         0.00000000
  -V(xc)+E(xc)   XCENC  =        49.11014699
  PAW double counting   =      3821.88683373    -3535.62344373
  entropy T*S    EENTRO =         0.00000000
  eigenvalues    EBANDS =     -1435.54015943
  atomic energy  EATOM  =      7250.85976021
  Solvation  Ediel_sol  =         0.00000000
  ---------------------------------------------------
  free energy    TOTEN  =      -104.78580053 eV

  energy without entropy =     -104.78580053  energy(sigma->0) =     -104.78580053


--------------------------------------------------------------------------------------------------------




--------------------------------------- Iteration      1(  22)  ---------------------------------------


    POTLOK:  cpu time    0.0700: real time    0.0812
    SETDIJ:  cpu time    0.0021: real time    0.0021
     EDDAV:  cpu time    2.4521: real time    2.4579
 BZINTS: Fermi energy: -0.484070;144.000000 electrons
         Band energy:***********;  BLOECHL correction:  0.000000
       DOS:  cpu time    0.0022: real time    0.0022
    CHARGE:  cpu time    0.1563: real time    0.1567
    MIXING:  cpu time    0.0081: real time    0.0082
    --------------------------------------------
      LOOP:  cpu time    2.6908: real time    2.7082

 eigenvalue-minimisations  :  2344
 total energy-change (2. order) :-0.3783261E-04  (-0.3892806E-06)
 number of electron     143.9999988 magnetization 
 augmentation part      -17.6428950 magnetization 

 Broyden mixing:
  rms(total) = 0.50234E-04    rms(broyden)= 0.50234E-04
  rms(prec ) = 0.64970E-04
  weight for this iteration     100.00

 eigenvalues of (default mixing * dielectric matrix)
  average eigenvalue GAMMA=   2.3719
  8.9396  6.8278  3.8050  3.3089  2.5260  1.9386  1.9386  0.9065  0.9065  1.3895
  1.2586  1.2586  1.1954  1.1954  1.0119  0.9579  0.9579

 Free energy of the ion-electron system (eV)
  ---------------------------------------------------
  alpha Z        PSCENC =       170.45750602
  Ewald energy   TEWEN  =     11316.38581129
  -Hartree energ DENC   =    -17742.30175039
  -exchange      EXHF   =         0.00000000
  -V(xc)+E(xc)   XCENC  =        49.10974805
  PAW double counting   =      3821.87838513    -3535.61506683
  entropy T*S    EENTRO =         0.00000000
  eigenvalues    EBANDS =     -1435.56023186
  atomic energy  EATOM  =      7250.85976021
  Solvation  Ediel_sol  =         0.00000000
  ---------------------------------------------------
  free energy    TOTEN  =      -104.78583836 eV

  energy without entropy =     -104.78583836  energy(sigma->0) =     -104.78583836


--------------------------------------------------------------------------------------------------------




--------------------------------------- Iteration      1(  23)  ---------------------------------------


    POTLOK:  cpu time    0.0686: real time    0.0800
    SETDIJ:  cpu time    0.0018: real time    0.0018
     EDDAV:  cpu time    2.3559: real time    2.3615
 BZINTS: Fermi energy: -0.484402;144.000000 electrons
         Band energy:***********;  BLOECHL correction:  0.000000
       DOS:  cpu time    0.0021: real time    0.0022
    CHARGE:  cpu time    0.1489: real time    0.1492
    MIXING:  cpu time    0.0139: real time    0.0139
    --------------------------------------------
      LOOP:  cpu time    2.5912: real time    2.6087

 eigenvalue-minimisations  :  2096
 total energy-change (2. order) :-0.1143036E-04  (-0.8992623E-07)
 number of electron     143.9999988 magnetization 
 augmentation part      -17.6428931 magnetization 

 Broyden mixing:
  rms(total) = 0.27551E-04    rms(broyden)= 0.27551E-04
  rms(prec ) = 0.36470E-04
  weight for this iteration     100.00

 eigenvalues of (default mixing * dielectric matrix)
  average eigenvalue GAMMA=   2.3723
  9.0527  6.9169  3.6990  3.6990  2.5766  2.2526  1.8607  1.8607  0.9065  0.9065
  1.2800  1.2800  1.2259  1.2259  1.0618  0.9712  0.9712  0.9548

 Free energy of the ion-electron system (eV)
  ---------------------------------------------------
  alpha Z        PSCENC =       170.45750602
  Ewald energy   TEWEN  =     11316.38581129
  -Hartree energ DENC   =    -17742.30551547
  -exchange      EXHF   =         0.00000000
  -V(xc)+E(xc)   XCENC  =        49.10982484
  PAW double counting   =      3821.87781245    -3535.61453150
  entropy T*S    EENTRO =         0.00000000
  eigenvalues    EBANDS =     -1435.55651763
  atomic energy  EATOM  =      7250.85976021
  Solvation  Ediel_sol  =         0.00000000
  ---------------------------------------------------
  free energy    TOTEN  =      -104.78584979 eV

  energy without entropy =     -104.78584979  energy(sigma->0) =     -104.78584979


--------------------------------------------------------------------------------------------------------




--------------------------------------- Iteration      1(  24)  ---------------------------------------


    POTLOK:  cpu time    0.0690: real time    0.0801
    SETDIJ:  cpu time    0.0017: real time    0.0017
     EDDAV:  cpu time    2.1092: real time    2.1142
 BZINTS: Fermi energy: -0.484735;144.000000 electrons
         Band energy:***********;  BLOECHL correction:  0.000000
       DOS:  cpu time    0.0021: real time    0.0021
    CHARGE:  cpu time    0.1859: real time    0.1864
    MIXING:  cpu time    0.0084: real time    0.0084
    --------------------------------------------
      LOOP:  cpu time    2.3764: real time    2.3930

 eigenvalue-minimisations  :  1872
 total energy-change (2. order) :-0.2575039E-05  (-0.2564680E-07)
 number of electron     143.9999988 magnetization 
 augmentation part      -17.6428946 magnetization 

 Broyden mixing:
  rms(total) = 0.14262E-04    rms(broyden)= 0.14262E-04
  rms(prec ) = 0.20852E-04
  weight for this iteration     100.00

 eigenvalues of (default mixing * dielectric matrix)
  average eigenvalue GAMMA=   2.3685
  9.0547  6.9858  3.8595  3.8595  2.7012  2.6025  1.9503  1.9503  0.9065  0.9065
  1.2726  1.2726  1.3029  1.2478  1.2478  0.9872  0.9872  0.9535  0.9535

 Free energy of the ion-electron system (eV)
  ---------------------------------------------------
  alpha Z        PSCENC =       170.45750602
  Ewald energy   TEWEN  =     11316.38581129
  -Hartree energ DENC   =    -17742.29804704
  -exchange      EXHF   =         0.00000000
  -V(xc)+E(xc)   XCENC  =        49.10973371
  PAW double counting   =      3821.87759115    -3535.61429891
  entropy T*S    EENTRO =         0.00000000
  eigenvalues    EBANDS =     -1435.56390880
  atomic energy  EATOM  =      7250.85976021
  Solvation  Ediel_sol  =         0.00000000
  ---------------------------------------------------
  free energy    TOTEN  =      -104.78585237 eV

  energy without entropy =     -104.78585237  energy(sigma->0) =     -104.78585237


--------------------------------------------------------------------------------------------------------




--------------------------------------- Iteration      1(  25)  ---------------------------------------


    POTLOK:  cpu time    0.0629: real time    0.0747
    SETDIJ:  cpu time    0.0024: real time    0.0024
     EDDAV:  cpu time    2.2175: real time    2.2228
 BZINTS: Fermi energy: -0.485005;144.000000 electrons
         Band energy:***********;  BLOECHL correction:  0.000000
       DOS:  cpu time    0.0022: real time    0.0022
    --------------------------------------------
      LOOP:  cpu time    2.2850: real time    2.3021

 eigenvalue-minimisations  :  1912
 total energy-change (2. order) :-0.7194540E-06  (-0.1409688E-07)
 number of electron     143.9999988 magnetization 
 augmentation part      -17.6428946 magnetization 

 Free energy of the ion-electron system (eV)
  ---------------------------------------------------
  alpha Z        PSCENC =       170.45750602
  Ewald energy   TEWEN  =     11316.38581129
  -Hartree energ DENC   =    -17742.29869664
  -exchange      EXHF   =         0.00000000
  -V(xc)+E(xc)   XCENC  =        49.10971911
  PAW double counting   =      3821.87626562    -3535.61296458
  entropy T*S    EENTRO =         0.00000000
  eigenvalues    EBANDS =     -1435.56325412
  atomic energy  EATOM  =      7250.85976021
  Solvation  Ediel_sol  =         0.00000000
  ---------------------------------------------------
[...]
     26     -13.7699      2.00000
     27     -13.3471      2.00000
     28     -13.3393      2.00000
     29     -13.2926      2.00000
     30     -13.2847      2.00000
     31     -13.2700      2.00000
     32     -13.2673      2.00000
     33     -10.9570      2.00000
     34     -10.9481      2.00000
     35     -10.6500      2.00000
     36     -10.6369      2.00000
     37      -6.3471      2.00000
     38      -6.3353      2.00000
     39      -6.1142      2.00000
     40      -6.0987      2.00000
     41      -6.0378      2.00000
     42      -6.0336      2.00000
     43      -5.8240      2.00000
     44      -5.8104      2.00000
     45      -5.7791      2.00000
     46      -5.7393      2.00000
     47      -5.7114      2.00000
     48      -5.6034      2.00000
     49      -2.7123      2.00000
     50      -2.6276      2.00000
     51      -2.4914      2.00000
     52      -2.4516      2.00000
     53      -2.1169      2.00000
     54      -2.0575      2.00000
     55      -2.0449      2.00000
     56      -2.0004      2.00000
     57      -1.8880      2.00000
     58      -1.8627      2.00000
     59      -1.7308      2.00000
     60      -1.6531      2.00000
     61      -1.6050      2.00000
     62      -1.5194      2.00000
     63      -1.4081      2.00000
     64      -1.3728      2.00000
     65      -1.2358      2.00000
     66      -1.1752      2.00000
     67      -1.1128      2.00000
     68      -0.9784      2.00000
     69      -0.8819      2.00000
     70      -0.8283      2.00000
     71      -0.7670      2.00000
     72      -0.7210      2.00000
     73       0.4511      0.00000
     74       0.4814      0.00000
     75       0.6100      0.00000
     76       0.6490      0.00000
     77       0.7279      0.00000
     78       0.8043      0.00000
     79       0.9549      0.00000
     80       0.9895      0.00000
     81       1.0341      0.00000
     82       1.1292      0.00000
     83       1.2825      0.00000
     84       1.3719      0.00000
     85       1.4310      0.00000
     86       1.5434      0.00000
     87       1.6563      0.00000
     88       1.7578      0.00000

 k-point    15 :       0.0000    0.5000    0.4000
  band No.  band energies     occupation 
      1     -29.4872      2.00000
      2     -29.4871      2.00000
      3     -28.5701      2.00000
      4     -28.5701      2.00000
      5     -28.5067      2.00000
      6     -28.5067      2.00000
      7     -27.9945      2.00000
      8     -27.9945      2.00000
      9     -14.8307      2.00000
     10     -14.8307      2.00000
     11     -14.7639      2.00000
     12     -14.7639      2.00000
     13     -14.6892      2.00000
     14     -14.6892      2.00000
     15     -13.9419      2.00000
     16     -13.9419      2.00000
     17     -13.9219      2.00000
     18     -13.9219      2.00000
     19     -13.8714      2.00000
     20     -13.8714      2.00000
     21     -13.8189      2.00000
     22     -13.8189      2.00000
     23     -13.7744      2.00000
     24     -13.7743      2.00000
     25     -13.7703      2.00000
     26     -13.7703      2.00000
     27     -13.3427      2.00000
     28     -13.3427      2.00000
     29     -13.2894      2.00000
     30     -13.2894      2.00000
     31     -13.2677      2.00000
     32     -13.2677      2.00000
     33     -10.9469      2.00000
     34     -10.9469      2.00000
     35     -10.6340      2.00000
     36     -10.6340      2.00000
     37      -6.3702      2.00000
     38      -6.3701      2.00000
     39      -6.0876      2.00000
     40      -6.0876      2.00000
     41      -6.0329      2.00000
     42      -6.0328      2.00000
     43      -5.7945      2.00000
     44      -5.7945      2.00000
     45      -5.7669      2.00000
     46      -5.7669      2.00000
     47      -5.6515      2.00000
     48      -5.6515      2.00000
     49      -2.6200      2.00000
     50      -2.6200      2.00000
     51      -2.4911      2.00000
     52      -2.4911      2.00000
     53      -2.0827      2.00000
     54      -2.0827      2.00000
     55      -2.0310      2.00000
     56      -2.0310      2.00000
     57      -1.8888      2.00000
     58      -1.8887      2.00000
     59      -1.6355      2.00000
     60      -1.6355      2.00000
     61      -1.4763      2.00000
     62      -1.4762      2.00000
     63      -1.4400      2.00000
     64      -1.4400      2.00000
     65      -1.2192      2.00000
     66      -1.2192      2.00000
     67      -1.0502      2.00000
     68      -1.0502      2.00000
     69      -0.8695      2.00000
     70      -0.8695      2.00000
     71      -0.7510      2.00000
     72      -0.7510      2.00000
     73       0.3759      0.00000
     74       0.3759      0.00000
     75       0.6024      0.00000
     76       0.6024      0.00000
     77       0.7781      0.00000
     78       0.7781      0.00000
     79       0.9150      0.00000
     80       0.9151      0.00000
     81       1.0025      0.00000
     82       1.0025      0.00000
     83       1.3468      0.00000
     84       1.3469      0.00000
     85       1.5266      0.00000
     86       1.5266      0.00000
     87       1.6155      0.00000
     88       1.6155      0.00000


--------------------------------------------------------------------------------------------------------


 soft charge-density along one line, spin component           1
         0         1         2         3         4         5         6         7         8         9
 total charge-density along one line
 
 pseudopotential strength for first ion, spin component:           1
  5.076  -5.590  -0.000  -0.008  -0.038  -0.000  -0.003  -0.015
 -5.590  -2.740   0.000   0.002   0.007  -0.000  -0.001  -0.006
 -0.000   0.000  -6.782  -0.000  -0.000   1.856  -0.000  -0.000
 -0.008   0.002  -0.000  -6.776  -0.002  -0.000   1.868  -0.004
 -0.038   0.007  -0.000  -0.002  -6.777  -0.000  -0.004   1.867
 -0.000  -0.000   1.856  -0.000  -0.000   7.309  -0.000  -0.000
 -0.003  -0.001  -0.000   1.868  -0.004  -0.000   7.311  -0.000
 -0.015  -0.006  -0.000  -0.004   1.867  -0.000  -0.000   7.311
 -0.000   0.000  -0.013  -0.000  -0.000  -0.009  -0.000  -0.000
 -0.000   0.000  -0.001  -0.000  -0.000  -0.000  -0.000  -0.000
  0.002  -0.001   0.000  -0.004   0.007   0.000  -0.003   0.005
 -0.002   0.001  -0.000  -0.013  -0.002  -0.000  -0.008  -0.002
  0.003  -0.001   0.000  -0.001  -0.012   0.000  -0.001  -0.008
  0.000   0.000   0.001   0.000   0.000   0.000   0.000   0.000
  0.000   0.000   0.000   0.000   0.000  -0.000   0.000   0.000
 -0.000  -0.000  -0.000   0.000  -0.000  -0.000   0.000  -0.000
  0.000   0.000   0.000   0.001   0.000   0.000   0.000   0.000
 -0.000  -0.000  -0.000   0.000   0.000  -0.000   0.000   0.000
 total augmentation occupancy for first ion, spin component:           1
  2.102  -0.257   0.000   0.012   0.055   0.000  -0.006  -0.020   0.000   0.000   0.018  -0.011   0.035   0.000   0.000  -0.010
 -0.257   0.639   0.000  -0.033  -0.144  -0.000   0.012   0.033   0.000   0.000  -0.031   0.013  -0.068   0.000  -0.000   0.042
  0.000   0.000   2.013  -0.000  -0.000  -0.012   0.000   0.000  -0.085   0.022   0.000   0.000   0.000   0.078  -0.041   0.000
  0.012  -0.033   0.000   2.000   0.003   0.000  -0.002  -0.002   0.000   0.000  -0.044  -0.069  -0.014  -0.000   0.000   0.043
  0.055  -0.144   0.000   0.003   1.995   0.000  -0.002  -0.000   0.000   0.000   0.035  -0.007  -0.052  -0.000   0.000  -0.032
  0.000   0.000  -0.012   0.000  -0.000   0.008   0.000   0.000   0.023  -0.009   0.000   0.000   0.000  -0.030   0.014   0.000
 -0.006   0.012   0.000  -0.002  -0.002  -0.000   0.005   0.001   0.000   0.000   0.016   0.016   0.005  -0.000   0.000  -0.022
 -0.020   0.033   0.000  -0.002  -0.000  -0.000   0.001   0.004  -0.000   0.000  -0.006   0.000   0.008   0.000   0.000   0.008
  0.000   0.000  -0.085   0.000   0.000   0.023   0.000   0.000   0.150  -0.013  -0.000   0.000   0.000  -0.188   0.019   0.000
  0.000  -0.000   0.022   0.000   0.000  -0.009   0.000   0.000  -0.013   0.068   0.000   0.000   0.000   0.017  -0.084   0.000
  0.018  -0.031   0.000  -0.044   0.035   0.000   0.016  -0.006  -0.000  -0.000   0.120   0.052   0.021   0.000   0.000  -0.149
 -0.011   0.013   0.000  -0.069  -0.007   0.000   0.016   0.000   0.000   0.000   0.052   0.087   0.008   0.000   0.000  -0.072
  0.035  -0.068   0.000  -0.014  -0.052  -0.000   0.005   0.008   0.000   0.000   0.021   0.008   0.096   0.000   0.000  -0.028
  0.000   0.000   0.078   0.000  -0.000  -0.030   0.000   0.000  -0.188   0.017   0.000   0.000   0.000   0.265  -0.032  -0.000
 -0.000   0.000  -0.041   0.000   0.000   0.014   0.000   0.000   0.019  -0.084   0.000   0.000  -0.000  -0.032   0.114   0.000
 -0.010   0.042   0.000   0.043  -0.032   0.000  -0.022   0.008  -0.000   0.000  -0.149  -0.072  -0.028   0.000   0.000   0.205
  0.008  -0.031  -0.000   0.064   0.000   0.000  -0.023  -0.001   0.000  -0.000  -0.070  -0.110  -0.011   0.000   0.000   0.107
 -0.027   0.082   0.000   0.022   0.050   0.000  -0.008  -0.011   0.000  -0.000  -0.030  -0.013  -0.127   0.000   0.000   0.046


------------------------ aborting loop because EDIFF is reached ----------------------------------------


    CHARGE:  cpu time    0.1607: real time    0.1611
    FORLOC:  cpu time    0.0094: real time    0.0095
    FORNL :  cpu time    0.4935: real time    0.4947
    STRESS:  cpu time    1.7612: real time    1.7655
    FORCOR:  cpu time    0.0762: real time    0.0764
    FORHAR:  cpu time    0.0237: real time    0.0238
    MIXING:  cpu time    0.0096: real time    0.0097
    OFIELD:  cpu time    0.0000: real time    0.0000

 ---------------------------------------------------------------------------------------------

         DFTD3 V3.0 Rev 1        
 IVDW         = 11
 DF pbe       
 parameters
 VDW_S6       =    1.0000
 VDW_S8       =    0.7220
 VDW_SR       =    1.2170
 rs18     =    1.0000
 alpha6   =   14.0000
 alpha8   =   16.0000
 k1-k3    =   16.0000    1.3333   -4.0000
 VDW_RADIUS   =   50.2022 A
 VDW_CNRADIUS =   21.1671 A
 Edisp (eV)   -2.29252

 E6    (eV) :    -0.8560
 E8    (eV) :    -1.4365
 % E8        : 62.66
    FORVDW:  cpu time    0.0391: real time    0.0856

  FORCE on cell =-STRESS in cart. coord.  units (eV):
  Direction    XX          YY          ZZ          XY          YZ          ZX
  --------------------------------------------------------------------------------------
  Alpha Z   170.45751   170.45751   170.45751
  Ewald  -19053.15013 15453.71387 14915.80880    -0.00002     0.00000   146.50867
  Hartree-16001.31992 17083.41836 16660.19961     0.00000    -0.00000   113.41394
  E(xc)    -461.71878  -459.71461  -460.17188    -0.00000    -0.00000     0.15250
  Local   33640.69997-33972.28345-33003.53817     0.00001    -0.00000  -258.40031
  n-local   338.70893   338.37772   340.12375     0.06015    -0.20493    -1.20229
  augment  -169.11362  -169.53349  -169.54040    -0.00000    -0.00000     0.24942
  Kinetic  1525.37563  1544.84662  1536.90084    -0.05742    -0.80768    -0.73455
  Fock        0.00000     0.00000     0.00000     0.00000     0.00000     0.00000
  vdW        -1.14153    -2.55527    -2.52142     0.00000    -0.00000     0.03643
  -------------------------------------------------------------------------------------
  Total     -11.20195   -13.27275   -12.28137     0.00000     0.00000     0.02381
  in kB      -9.50586   -11.26312   -10.42185     0.00000     0.00000     0.02020
  external pressure =      -10.40 kB  Pullay stress =        0.00 kB


 VOLUME and BASIS-vectors are now :
 -----------------------------------------------------------------------------
  energy-cutoff  :      500.00
  volume of cell :     1888.05
      direct lattice vectors                 reciprocal lattice vectors
    24.009468079  0.000000000  0.000000000     0.041650236  0.000000000  0.000000000
     0.000000000  6.777849674  0.000000000     0.000000000  0.147539419  0.000000000
     0.000000000  0.000000000 11.602143288     0.000000000  0.000000000  0.086190971

  length of vectors
    24.009468079  6.777849674 11.602143288     0.041650236  0.147539419  0.086190971


 FORCES acting on ions
    electron-ion (+dipol)            ewald-force                    non-local-force                 convergence-correction
 -----------------------------------------------------------------------------------------------
   0.768E+03 0.102E-04 0.447E+02   -.763E+03 0.988E-05 -.439E+02   -.431E+01 -.109E-18 -.810E+00   -.144E-03 -.102E-08 0.196E-04
   -.768E+03 -.630E-04 -.447E+02   0.763E+03 -.128E-04 0.439E+02   0.431E+01 0.464E-19 0.810E+00   0.144E-03 0.113E-08 -.196E-04
   0.866E+02 -.611E-04 -.400E+02   -.863E+02 -.178E-04 0.386E+02   0.789E-01 -.912E-19 0.134E+01   0.100E-03 0.171E-08 -.915E-04
   -.866E+02 0.109E-04 0.400E+02   0.863E+02 0.127E-04 -.386E+02   -.789E-01 -.911E-19 -.134E+01   -.100E-03 -.157E-08 0.915E-04
   0.617E+03 -.611E-04 -.480E+02   -.614E+03 -.164E-04 0.483E+02   -.183E+01 0.257E-17 -.324E+00   -.399E-04 0.139E-08 -.120E-03
   -.617E+03 0.902E-05 0.480E+02   0.614E+03 0.142E-04 -.483E+02   0.183E+01 0.247E-17 0.324E+00   0.399E-04 -.129E-08 0.120E-03
   0.354E+03 0.113E-04 -.140E+02   -.353E+03 0.130E-04 0.132E+02   -.525E+00 -.740E-18 0.798E+00   0.346E-04 -.151E-08 0.450E-04
   -.354E+03 -.622E-04 0.140E+02   0.353E+03 -.131E-04 -.132E+02   0.525E+00 0.135E-17 -.798E+00   -.346E-04 0.150E-08 -.450E-04
   0.271E+03 0.365E+02 -.466E+02   -.271E+03 -.380E+02 0.475E+02   -.444E-01 0.150E+01 -.850E+00   0.319E-04 0.470E-04 -.473E-04
   -.271E+03 -.365E+02 0.466E+02   0.271E+03 0.380E+02 -.475E+02   0.444E-01 -.150E+01 0.850E+00   -.319E-04 -.470E-04 0.473E-04
   0.117E+03 -.334E+02 0.283E+01   -.117E+03 0.345E+02 -.176E+01   -.122E+00 -.110E+01 -.107E+01   -.359E-04 -.557E-04 -.529E-05
   -.117E+03 0.334E+02 -.283E+01   0.117E+03 -.345E+02 0.176E+01   0.122E+00 0.110E+01 0.107E+01   0.359E-04 0.557E-04 0.529E-05
   -.271E+03 0.365E+02 0.466E+02   0.271E+03 -.380E+02 -.475E+02   0.444E-01 0.150E+01 0.850E+00   -.319E-04 0.470E-04 0.473E-04
   0.271E+03 -.365E+02 -.466E+02   -.271E+03 0.380E+02 0.475E+02   -.444E-01 -.150E+01 -.850E+00   0.319E-04 -.470E-04 -.473E-04
   -.117E+03 -.334E+02 -.283E+01   0.117E+03 0.345E+02 0.176E+01   0.122E+00 -.110E+01 0.107E+01   0.359E-04 -.557E-04 0.529E-05
   0.117E+03 0.334E+02 0.283E+01   -.117E+03 -.345E+02 -.176E+01   -.122E+00 0.110E+01 -.107E+01   -.359E-04 0.557E-04 -.529E-05
   0.326E+03 -.417E-05 0.461E+02   -.327E+03 -.606E-05 -.467E+02   0.140E+01 0.118E-17 0.650E+00   0.171E-04 0.430E-09 0.426E-04
   -.326E+03 0.615E-05 -.461E+02   0.327E+03 0.629E-05 0.467E+02   -.140E+01 0.121E-17 -.650E+00   -.171E-04 -.462E-09 -.426E-04
   0.329E+02 0.875E-05 -.105E+02   -.311E+02 0.744E-05 0.980E+01   -.152E+01 0.467E-19 0.717E+00   -.275E-04 -.637E-09 -.160E-04
   -.329E+02 -.245E-05 0.105E+02   0.311E+02 -.711E-05 -.980E+01   0.152E+01 -.525E-19 -.717E+00   0.275E-04 0.598E-09 0.160E-04
   0.237E+03 0.433E-05 0.142E+02   -.237E+03 0.804E-05 -.153E+02   -.142E+00 -.113E-18 0.108E+01   0.161E-04 -.555E-09 0.112E-04
   -.237E+03 -.546E-05 -.142E+02   0.237E+03 -.809E-05 0.153E+02   0.142E+00 0.743E-18 -.108E+01   -.161E-04 0.518E-09 -.112E-04
   0.152E+03 -.613E-05 0.584E+02   -.152E+03 -.736E-05 -.602E+02   -.613E+00 0.117E-17 0.173E+01   -.173E-04 0.562E-09 0.941E-04
   -.152E+03 0.371E-05 -.584E+02   0.152E+03 0.723E-05 0.602E+02   0.613E+00 -.226E-17 -.173E+01   0.174E-04 -.571E-09 -.941E-04
 -----------------------------------------------------------------------------------------------
   0.730E-04 -.212E-03 0.604E-04   0.000E+00 -.191E-13 0.853E-13   -.111E-14 -.220E-15 -.222E-15   0.418E-07 0.156E-09 -.460E-08
 
 
 POSITION                                       TOTAL-FORCE (eV/Angst)
 -----------------------------------------------------------------------------------
      0.13670      1.69446      8.15807         0.812709     -0.000000      0.000142
      9.27277      5.08339      3.44407        -0.812709      0.000000     -0.000142
      4.36803      5.08339      2.15023         0.306954      0.000000     -0.000023
      5.04143      1.69446      9.45191        -0.306954      0.000000      0.000023
      1.43529      5.08339     10.61388         0.649081      0.000000      0.000193
      7.97418      1.69446      0.98826        -0.649081     -0.000000     -0.000193
      3.06944      1.69446      4.56825         0.452707     -0.000000      0.000172
      6.34002      5.08339      7.03389        -0.452707      0.000000     -0.000172
      1.75027      0.49386      1.63736        -0.113604     -0.000499      0.000341
      7.65920      6.28399      9.96478         0.113604      0.000499     -0.000341
      2.75446      6.29425      7.65014         0.230751     -0.000399      0.000047
      6.65500      0.48360      3.95200        -0.230751      0.000399     -0.000047
      7.65920      3.88279      9.96478         0.113604     -0.000499     -0.000341
      1.75027      2.89506      1.63736        -0.113604      0.000499      0.000341
      6.65500      2.90532      3.95200        -0.230751     -0.000399     -0.000047
      2.75446      3.87253      7.65014         0.230751      0.000399      0.000047
      0.74693      5.08339      6.95944        -0.215979     -0.000000     -0.000282
      8.66254      1.69446      4.64271         0.215979      0.000000      0.000282
      3.75780      1.69446      0.92446         0.239819     -0.000000      0.000131
      5.65166      5.08339     10.67768        -0.239819     -0.000000     -0.000131
      1.78112      1.69446     11.13000        -0.138013     -0.000000     -0.000560
      7.62835      5.08339      0.47214         0.138013      0.000000      0.000560
      2.72362      5.08339      5.53645        -0.187705      0.000000      0.000551
      6.68585      1.69446      6.06569         0.187705     -0.000000     -0.000551
 -----------------------------------------------------------------------------------
    total drift:                                0.000073     -0.000212      0.000060


--------------------------------------------------------------------------------------------------------



  FREE ENERGIE OF THE ION-ELECTRON SYSTEM (eV)
  ---------------------------------------------------
  free  energy   TOTEN  =      -107.07837539 eV

  energy  without entropy=     -107.07837539  energy(sigma->0) =     -107.07837539
 


--------------------------------------------------------------------------------------------------------


    POTLOK:  cpu time    0.0695: real time    0.0697


--------------------------------------------------------------------------------------------------------


 writing wavefunctions
     LOOP+:  cpu time   91.5830: real time   92.6849
    4ORBIT:  cpu time    0.0000: real time    0.0000
 BZINTS: Fermi energy: -0.485005;144.000000 electrons
         Band energy:***********;  BLOECHL correction:  0.000000

 total amount of memory used by VASP MPI-rank0    79357. kBytes
=======================================================================

   base      :      30000. kBytes
   nonlr-proj:       2651. kBytes
   fftplans  :       5898. kBytes
   grid      :       8824. kBytes
   one-center:         93. kBytes
   wavefun   :      31891. kBytes
 
  
  
 General timing and accounting informations for this job:
 ========================================================
  
                  Total CPU time used (sec):       99.753
                            User time (sec):       94.449
                          System time (sec):        5.304
                         Elapsed time (sec):      104.760
  
                   Maximum memory used (kb):      171688.
                   Average memory used (kb):           0.
  
                          Minor page faults:        70964
                          Major page faults:          203
                 Voluntary context switches:        13751
