 vasp.5.4.4.18Apr17-6-g9f103f2a35 (build Nov 21 2017 15:30:27) complex          
  
 executed on             LinuxIFC date 2020.09.14  10:54:11
 running on   64 total cores
 distrk:  each k-point on   32 cores,    2 groups
 distr:  one band on NCORES_PER_BAND=   4 cores,    8 groups


--------------------------------------------------------------------------------------------------------


 INCAR:
 POTCAR:   PAW_PBE Ba_sv 06Sep2000                
 POTCAR:   PAW_PBE Si 05Jan2001                   

 ----------------------------------------------------------------------------- 
|                                                                             |
|           W    W    AA    RRRRR   N    N  II  N    N   GGGG   !!!           |
|           W    W   A  A   R    R  NN   N  II  NN   N  G    G  !!!           |
|           W    W  A    A  R    R  N N  N  II  N N  N  G       !!!           |
|           W WW W  AAAAAA  RRRRR   N  N N  II  N  N N  G  GGG   !            |
|           WW  WW  A    A  R   R   N   NN  II  N   NN  G    G                |
|           W    W  A    A  R    R  N    N  II  N    N   GGGG   !!!           |
|                                                                             |
|      You have enabled k-point parallelism (KPAR>1).                         |
|      This developmental code was originally  written by Paul Kent at ORNL,  |
|      and carefully double checked in Vienna.                                |
|      GW as well as linear response parallelism added by Martijn Marsman     |
|      and Georg Kresse.                                                      |
|      Carefully verify results versus KPAR=1.                                |
|      Report problems to Paul Kent and Vienna.                               |
|                                                                             |
 ----------------------------------------------------------------------------- 

 POTCAR:   PAW_PBE Ba_sv 06Sep2000                
   VRHFIN =Ba: 5s5p6s                                                           
   LEXCH  = PE                                                                  
   EATOM  =   700.2255 eV,   51.4651 Ry                                         
                                                                                
   TITEL  = PAW_PBE Ba_sv 06Sep2000                                             
   LULTRA =        F    use ultrasoft PP ?                                      
   IUNSCR =        1    unscreen: 0-lin 1-nonlin 2-no                           
   RPACOR =    2.400    partial core radius                                     
   POMASS =  137.327; ZVAL   =   10.000    mass and valenz                      
   RCORE  =    2.800    outmost cutoff radius                                   
   RWIGS  =    3.740; RWIGS  =    1.979    wigner-seitz radius (au A)           
   ENMAX  =  187.210; ENMIN  =  140.408 eV                                      
   RCLOC  =    2.516    cutoff for local pot                                    
   LCOR   =        T    correct aug charges                                     
   LPAW   =        T    paw PP                                                  
   EAUG   =  351.165                                                            
   DEXC   =     .000                                                            
   RMAX   =    3.370    core radius for proj-oper                               
   RAUG   =    1.300    factor for augmentation sphere                          
   RDEP   =    2.976    radius for radial grids                                 
   QCUT   =   -3.709; QGAM   =    7.419    optimization parameters              
                                                                                
   Description                                                                  
     l     E      TYP  RCUT    TYP  RCUT                                        
     0   .000     23  2.800                                                     
     0   .000     23  2.800                                                     
     1   .000     23  2.700                                                     
     1  2.000     23  2.700                                                     
     2   .000     23  2.700                                                     
     2   .000     23  2.700                                                     
  local pseudopotential read in
  partial core-charges read in
  atomic valenz-charges read in
  non local Contribution for L=           0  read in
    real space projection operators read in
  non local Contribution for L=           0  read in
    real space projection operators read in
  non local Contribution for L=           1  read in
    real space projection operators read in
  non local Contribution for L=           1  read in
    real space projection operators read in
  non local Contribution for L=           2  read in
    real space projection operators read in
  non local Contribution for L=           2  read in
    real space projection operators read in
    PAW grid and wavefunctions read in
 
   number of l-projection  operators is LMAX  =           6
   number of lm-projection operators is LMMAX =          18
 
 POTCAR:   PAW_PBE Si 05Jan2001                   
   VRHFIN =Si: s2p2                                                             
   LEXCH  = PE                                                                  
   EATOM  =   103.0669 eV,    7.5752 Ry                                         
                                                                                
   TITEL  = PAW_PBE Si 05Jan2001                                                
   LULTRA =        F    use ultrasoft PP ?                                      
   IUNSCR =        1    unscreen: 0-lin 1-nonlin 2-no                           
   RPACOR =    1.500    partial core radius                                     
   POMASS =   28.085; ZVAL   =    4.000    mass and valenz                      
   RCORE  =    1.900    outmost cutoff radius                                   
   RWIGS  =    2.480; RWIGS  =    1.312    wigner-seitz radius (au A)           
   ENMAX  =  245.345; ENMIN  =  184.009 eV                                      
   ICORE  =        2    local potential                                         
   LCOR   =        T    correct aug charges                                     
   LPAW   =        T    paw PP                                                  
   EAUG   =  322.069                                                            
   DEXC   =    -.007                                                            
   RMAX   =    2.944    core radius for proj-oper                               
   RAUG   =    1.300    factor for augmentation sphere                          
   RDEP   =    1.993    radius for radial grids                                 
   QCUT   =   -4.246; QGAM   =    8.493    optimization parameters              
                                                                                
   Description                                                                  
     l     E      TYP  RCUT    TYP  RCUT                                        
     0   .000     23  1.900                                                     
     0   .000     23  1.900                                                     
     1   .000     23  1.900                                                     
     1   .000     23  1.900                                                     
     2   .000      7  1.900                                                     
  local pseudopotential read in
  partial core-charges read in
  atomic valenz-charges read in
  non local Contribution for L=           0  read in
    real space projection operators read in
  non local Contribution for L=           0  read in
    real space projection operators read in
  non local Contribution for L=           1  read in
    real space projection operators read in
  non local Contribution for L=           1  read in
    real space projection operators read in
    PAW grid and wavefunctions read in
 
   number of l-projection  operators is LMAX  =           4
   number of lm-projection operators is LMMAX =           8
 
 Optimization of the real space projectors (new method)

 maximal supplied QI-value         = 13.42
 optimisation between [QCUT,QGAM] = [ 11.40, 22.81] = [ 36.42,145.68] Ry 
 Optimized for a Real-space Cutoff    1.56 Angstroem

   l    n(q)    QCUT    max X(q) W(low)/X(q) W(high)/X(q)  e(spline) 
   0     11    11.404     7.198    0.14E-04    0.26E-04    0.99E-07
   0     11    11.404    15.603    0.29E-04    0.72E-04    0.44E-06
   1     10    11.404     3.746    0.20E-04    0.24E-04    0.43E-07
   1     10    11.404     4.362    0.22E-03    0.97E-04    0.22E-06
   2     10    11.404     5.782    0.83E-04    0.62E-05    0.27E-06
   2     10    11.404    65.505    0.42E-03    0.31E-04    0.12E-05
 Optimization of the real space projectors (new method)

 maximal supplied QI-value         = 19.84
 optimisation between [QCUT,QGAM] = [ 11.31, 22.82] = [ 35.82,145.81] Ry 
 Optimized for a Real-space Cutoff    1.16 Angstroem

   l    n(q)    QCUT    max X(q) W(low)/X(q) W(high)/X(q)  e(spline) 
   0      8    11.310     8.708    0.14E-04    0.11E-04    0.43E-08
   0      8    11.310   106.241    0.27E-03    0.30E-03    0.38E-07
   1      7    11.310     5.901    0.82E-05    0.48E-04    0.19E-07
   1      7    11.310    73.241    0.27E-03    0.27E-03    0.74E-07
 PAW_PBE Ba_sv 06Sep2000                :
 energy of atom  1       EATOM= -700.2255
 kinetic energy error for atom=    0.0005 (will be added to EATOM!!)
 PAW_PBE Si 05Jan2001                   :
 energy of atom  2       EATOM= -103.0669
 kinetic energy error for atom=    0.0006 (will be added to EATOM!!)
 
 
 POSCAR: ba8 si16                                
  positions in direct lattice
  velocities in cartesian coordinates
 exchange correlation table for  LEXCH =        8
   RHO(1)=    0.500       N(1)  =     2000
   RHO(2)=  100.500       N(2)  =     4000
 


--------------------------------------------------------------------------------------------------------


 ion  position               nearest neighbor table
   1  0.006  0.250  0.704-  21 3.40  16 3.45  11 3.45  17 3.65  17 3.65   5 4.38   5 4.38   7 4.63

   2  0.384  0.750  0.296-  22 3.40  12 3.45  15 3.45  18 3.65  18 3.65   6 4.38   6 4.38   8 4.63

   3  0.182  0.750  0.186-  20 3.33   9 3.45  14 3.45  12 3.60  15 3.60  22 3.63  19 3.65  19 3.65
                            23 3.76   5 4.29   7 4.37   7 4.37
   4  0.208  0.250  0.814-  19 3.33  13 3.45  10 3.45  16 3.60  11 3.60  21 3.63  20 3.65  20 3.65
                            24 3.76   6 4.29   8 4.37   8 4.37
   5  0.060  0.750  0.916-   9 3.43  14 3.43  21 3.45  21 3.45  11 3.47  16 3.47  17 3.73   3 4.29
                             1 4.38   1 4.38
   6  0.330  0.250  0.084-  13 3.43  10 3.43  22 3.45  22 3.45  15 3.47  12 3.47  18 3.73   4 4.29
                             2 4.38   2 4.38
   7  0.128  0.250  0.395-  14 3.43   9 3.43  23 3.54  23 3.54  19 3.71  16 3.78  11 3.78  15 3.79
                            12 3.79  24 3.86   3 4.37   3 4.37   1 4.63
   8  0.262  0.750  0.605-  10 3.43  13 3.43  24 3.54  24 3.54  20 3.71  12 3.78  15 3.78  11 3.79
                            16 3.79  23 3.86   4 4.37   4 4.37   2 4.63
   9  0.073  0.073  0.142-  14 2.40  21 2.43  19 2.45   7 3.43   5 3.43   3 3.45
  10  0.317  0.927  0.858-  13 2.40  22 2.43  20 2.45   8 3.43   6 3.43   4 3.45
  11  0.115  0.928  0.660-  16 2.42  23 2.44  17 2.44   1 3.45   5 3.47   4 3.60   7 3.78   8 3.79

  12  0.275  0.072  0.340-  15 2.42  24 2.44  18 2.44   2 3.45   6 3.47   3 3.60   8 3.78   7 3.79

  13  0.317  0.573  0.858-  10 2.40  22 2.43  20 2.45   8 3.43   6 3.43   4 3.45
  14  0.073  0.427  0.142-   9 2.40  21 2.43  19 2.45   7 3.43   5 3.43   3 3.45
  15  0.275  0.428  0.340-  12 2.42  24 2.44  18 2.44   2 3.45   6 3.47   3 3.60   8 3.78   7 3.79

  16  0.115  0.572  0.660-  11 2.42  23 2.44  17 2.44   1 3.45   5 3.47   4 3.60   7 3.78   8 3.79

  17  0.031  0.750  0.600-  23 2.43  11 2.44  16 2.44   1 3.65   1 3.65   5 3.73
  18  0.359  0.250  0.400-  24 2.43  15 2.44  12 2.44   2 3.65   2 3.65   6 3.73
  19  0.157  0.250  0.081-  21 2.42  14 2.45   9 2.45   4 3.33   3 3.65   3 3.65   7 3.71
  20  0.233  0.750  0.919-  22 2.42  10 2.45  13 2.45   3 3.33   4 3.65   4 3.65   8 3.71
  21  0.074  0.250  0.960-  19 2.42  14 2.43   9 2.43   1 3.40   5 3.45   5 3.45   4 3.63
  22  0.316  0.750  0.040-  20 2.42  10 2.43  13 2.43   2 3.40   6 3.45   6 3.45   3 3.63
  23  0.113  0.750  0.478-  17 2.43  11 2.44  16 2.44   7 3.54   7 3.54   3 3.76   8 3.86
  24  0.276  0.250  0.522-  18 2.43  15 2.44  12 2.44   8 3.54   8 3.54   4 3.76   7 3.86
 
  LATTYP: Found a simple orthorhombic cell.
 ALAT       =     6.7778496742
 B/A-ratio  =     1.7117734747
 C/A-ratio  =     3.5423429602
  
  Lattice vectors:
  
 A1 = (   0.0000000000,   6.7778496742,   0.0000000000)
 A2 = (   0.0000000000,   0.0000000000, -11.6021432877)
 A3 = ( -24.0094680786,   0.0000000000,   0.0000000000)


Analysis of symmetry for initial positions (statically):
=====================================================================
 Subroutine PRICEL returns:
 Original cell was already a primitive cell.
 

 Routine SETGRP: Setting up the symmetry group for a 
 simple orthorhombic supercell.


 Subroutine GETGRP returns: Found  4 space group operations
 (whereof  1 operations were pure point group operations)
 out of a pool of  8 trial point group operations.


The static configuration has the point symmetry C_1 .
 The point group associated with its full space group is C_2h.


Analysis of symmetry for dynamics (positions and initial velocities):
=====================================================================
 Subroutine PRICEL returns:
 Original cell was already a primitive cell.
 

 Routine SETGRP: Setting up the symmetry group for a 
 simple orthorhombic supercell.


 Subroutine GETGRP returns: Found  4 space group operations
 (whereof  1 operations were pure point group operations)
 out of a pool of  8 trial point group operations.


The dynamic configuration has the point symmetry C_1 .
 The point group associated with its full space group is C_2h.


Analysis of constrained symmetry for selective dynamics:
=====================================================================
 Subroutine PRICEL returns:
 Original cell was already a primitive cell.
 

 Routine SETGRP: Setting up the symmetry group for a 
 simple orthorhombic supercell.


 Subroutine GETGRP returns: Found  4 space group operations
 (whereof  1 operations were pure point group operations)
 out of a pool of  8 trial point group operations.


The constrained configuration has the point symmetry C_1 .
 The point group associated with its full space group is C_2h.


 Subroutine INISYM returns: Found  4 space group operations
 (whereof  1 operations are pure point group operations),
 and found     1 'primitive' translations

 
 
 KPOINTS: k-density: 8.0                          

Automatic generation of k-mesh.
Space group operators:
 irot       det(A)        alpha          n_x          n_y          n_z        tau_x        tau_y        tau_z
    1     1.000000     0.000000     1.000000     0.000000     0.000000     0.000000     0.000000     0.000000
    2    -1.000000     0.000000     1.000000     0.000000     0.000000    -0.610176     0.000000     0.000000
    3     1.000000   180.000000     0.000000     1.000000     0.000000    -0.610176     0.500000     0.000000
    4    -1.000000   180.000000     0.000000     1.000000     0.000000     0.000000     0.500000     0.000000
 
 Subroutine IBZKPT returns following result:
 ===========================================
 
 Found     15 irreducible k-points:
 
 Following reciprocal coordinates:
            Coordinates               Weight
  0.000000  0.000000  0.000000      1.000000
  0.000000  0.125000  0.000000      2.000000
  0.000000  0.250000  0.000000      2.000000
  0.000000  0.375000  0.000000      2.000000
  0.000000  0.500000  0.000000      1.000000
  0.000000  0.000000  0.200000      2.000000
  0.000000  0.125000  0.200000      4.000000
  0.000000  0.250000  0.200000      4.000000
  0.000000  0.375000  0.200000      4.000000
  0.000000  0.500000  0.200000      2.000000
  0.000000  0.000000  0.400000      2.000000
  0.000000  0.125000  0.400000      4.000000
  0.000000  0.250000  0.400000      4.000000
  0.000000  0.375000  0.400000      4.000000
  0.000000  0.500000  0.400000      2.000000
 
 Following cartesian coordinates:
            Coordinates               Weight
  0.000000  0.000000  0.000000      1.000000
  0.000000  0.018442  0.000000      2.000000
  0.000000  0.036885  0.000000      2.000000
  0.000000  0.055327  0.000000      2.000000
  0.000000  0.073770  0.000000      1.000000
  0.000000  0.000000  0.017238      2.000000
  0.000000  0.018442  0.017238      4.000000
  0.000000  0.036885  0.017238      4.000000
  0.000000  0.055327  0.017238      4.000000
  0.000000  0.073770  0.017238      2.000000
  0.000000  0.000000  0.034476      2.000000
  0.000000  0.018442  0.034476      4.000000
  0.000000  0.036885  0.034476      4.000000
  0.000000  0.055327  0.034476      4.000000
  0.000000  0.073770  0.034476      2.000000
 
 TETIRR: Found    108 inequivalent tetrahedra from      240


--------------------------------------------------------------------------------------------------------




 Dimension of arrays:
   k-points           NKPTS =     15   k-points in BZ     NKDIM =     15   number of bands    NBANDS=     88
   number of dos      NEDOS =    301   number of ions     NIONS =     24
   non local maximal  LDIM  =      6   non local SUM 2l+1 LMDIM =     18
   total plane-waves  NPLWV = 358400
   max r-space proj   IRMAX =   3093   max aug-charges    IRDMAX=  12081
   dimension x,y,z NGX =   140 NGY =   40 NGZ =   64
   dimension x,y,z NGXF=   280 NGYF=   80 NGZF=  128
   support grid    NGXF=   280 NGYF=   80 NGZF=  128
   ions per type =               8  16
   NGX,Y,Z   is equivalent  to a cutoff of   9.69,  9.81,  9.17 a.u.
   NGXF,Y,Z  is equivalent  to a cutoff of  19.39, 19.62, 18.34 a.u.

 SYSTEM =  unknown system                          
 POSCAR =  ba8 si16                                

 Startparameter for this run:
   NWRITE =      2    write-flag & timer
   PREC   = normal    normal or accurate (medium, high low for compatibility)
   ISTART =      0    job   : 0-new  1-cont  2-samecut
   ICHARG =      2    charge: 1-file 2-atom 10-const
   ISPIN  =      1    spin polarized calculation?
   LNONCOLLINEAR =      F non collinear calculations
   LSORBIT =      F    spin-orbit coupling
   INIWAV =      1    electr: 0-lowe 1-rand  2-diag
   LASPH  =      F    aspherical Exc in radial PAW
   METAGGA=      F    non-selfconsistent MetaGGA calc.

 Electronic Relaxation 1
   ENCUT  =  500.0 eV  36.75 Ry    6.06 a.u.  43.77 12.36 21.15*2*pi/ulx,y,z
   ENINI  =  500.0     initial cutoff
   ENAUG  =  351.2 eV  augmentation charge cutoff
   NELM   =    100;   NELMIN=  2; NELMDL= -5     # of ELM steps 
   EDIFF  = 0.1E-05   stopping-criterion for ELM
   LREAL  =      T    real-space projection
   NLSPLINE    = F    spline interpolate recip. space projectors
   LCOMPAT=      F    compatible to vasp.4.4
   GGA_COMPAT  = T    GGA compatible to vasp.4.4-vasp.4.6
   LMAXPAW     = -100 max onsite density
   LMAXMIX     =    2 max onsite mixed and CHGCAR
   VOSKOWN=      0    Vosko Wilk Nusair interpolation
   ROPT   =   -0.00050  -0.00050
 Ionic relaxation
   EDIFFG = -.1E-02   stopping-criterion for IOM
   NSW    =      0    number of steps for IOM
   NBLOCK =      1;   KBLOCK =      1    inner block; outer block 
   IBRION =     -1    ionic relax: 0-MD 1-quasi-New 2-CG
   NFREE  =      0    steps in history (QN), initial steepest desc. (CG)
   ISIF   =      2    stress and relaxation
   IWAVPR =     10    prediction:  0-non 1-charg 2-wave 3-comb
   ISYM   =      2    0-nonsym 1-usesym 2-fastsym
   LCORR  =      T    Harris-Foulkes like correction to forces

   POTIM  = 0.3000    time-step for ionic-motion
   TEIN   =    0.0    initial temperature
   TEBEG  =    0.0;   TEEND  =   0.0 temperature during run
   SMASS  =  -3.00    Nose mass-parameter (am)
   estimated Nose-frequenzy (Omega)   =  0.10E-29 period in steps =****** mass=  -0.132E-25a.u.
   SCALEE = 1.0000    scale energy and forces
   NPACO  =    256;   APACO  = 16.0  distance and # of slots for P.C.
   PSTRESS=    0.0 pullay stress

  Mass of Ions in am
   POMASS = 137.33 28.09
  Ionic Valenz
   ZVAL   =  10.00  4.00
  Atomic Wigner-Seitz radii
   RWIGS  =  -1.00 -1.00
  virtual crystal weights 
   VCA    =   1.00  1.00
   NELECT =     144.0000    total number of electrons
   NUPDOWN=      -1.0000    fix difference up-down

 DOS related values:
   EMIN   =  10.00;   EMAX   =-10.00  energy-range for DOS
   EFERMI =   0.00
   ISMEAR =    -5;   SIGMA  =   0.01  broadening in eV -4-tet -1-fermi 0-gaus

 Electronic relaxation 2 (details)
   IALGO  =     38    algorithm
   LDIAG  =      T    sub-space diagonalisation (order eigenvalues)
   LSUBROT=      F    optimize rotation matrix (better conditioning)
   TURBO    =      0    0=normal 1=particle mesh
   IRESTART =      0    0=no restart 2=restart with 2 vectors
   NREBOOT  =      0    no. of reboots
   NMIN     =      0    reboot dimension
   EREF     =   0.00    reference energy to select bands
   IMIX   =      4    mixing-type and parameters
     AMIX     =   0.40;   BMIX     =  1.00
     AMIX_MAG =   1.60;   BMIX_MAG =  1.00
     AMIN     =   0.10
     WC   =   100.;   INIMIX=   1;  MIXPRE=   1;  MAXMIX= -45

 Intra band minimization:
   WEIMIN = 0.0000     energy-eigenvalue tresh-hold
   EBREAK =  0.28E-08  absolut break condition
   DEPER  =   0.30     relativ break condition  

   TIME   =   0.40     timestep for ELM

  volume/ion in A,a.u.               =      78.67       530.88
  Fermi-wavevector in a.u.,A,eV,Ry     =   0.694264  1.311969  6.558046  0.482003
  Thomas-Fermi vector in A             =   1.776709
 
 Write flags
   LWAVE        =      T    write WAVECAR
   LDOWNSAMPLE  =      F    k-point downsampling of WAVECAR
   LCHARG       =      T    write CHGCAR
   LVTOT        =      F    write LOCPOT, total local potential
   LVHAR        =      F    write LOCPOT, Hartree potential only
   LELF         =      F    write electronic localiz. function (ELF)
   LORBIT       =      0    0 simple, 1 ext, 2 COOP (PROOUT), +10 PAW based schemes


 Dipole corrections
   LMONO  =      F    monopole corrections only (constant potential shift)
   LDIPOL =      F    correct potential (dipole corrections)
   IDIPOL =      0    1-x, 2-y, 3-z, 4-all directions 
   EPSILON=  1.0000000 bulk dielectric constant

 Exchange correlation treatment:
   GGA     =    --    GGA type
   LEXCH   =     8    internal setting for exchange type
   VOSKOWN=      0    Vosko Wilk Nusair interpolation
   LHFCALC =     F    Hartree Fock is set to
   LHFONE  =     F    Hartree Fock one center treatment
   AEXX    =    0.0000 exact exchange contribution

 Linear response parameters
   LEPSILON=     F    determine dielectric tensor
   LRPA    =     F    only Hartree local field effects (RPA)
   LNABLA  =     F    use nabla operator in PAW spheres
   LVEL    =     F    velocity operator in full k-point grid
   LINTERFAST=   F  fast interpolation
   KINTER  =     0    interpolate to denser k-point grid
   CSHIFT  =0.1000    complex shift for real part using Kramers Kronig
   OMEGAMAX=  -1.0    maximum frequency
   DEG_THRESHOLD= 0.2000000E-02 threshold for treating states as degnerate
   RTIME   =   -0.100 relaxation time in fs
  (WPLASMAI=    0.000 imaginary part of plasma frequency in eV, 0.658/RTIME)
   DFIELD  = 0.0000000 0.0000000 0.0000000 field for delta impulse in time
 
 Orbital magnetization related:
   ORBITALMAG=     F  switch on orbital magnetization
   LCHIMAG   =     F  perturbation theory with respect to B field
   DQ        =  0.001000  dq finite difference perturbation B field
   LLRAUG    =     F  two centre corrections for induced B field



--------------------------------------------------------------------------------------------------------


 Static calculation
 charge density and potential will be updated during run
 non-spin polarized calculation
 Variant of blocked Davidson
 Davidson routine will perform the subspace rotation
 perform sub-space diagonalisation
    after iterative eigenvector-optimisation
 modified Broyden-mixing scheme, WC =      100.0
 initial mixing is a Kerker type mixing with AMIX =  0.4000 and BMIX =      1.0000
 Hartree-type preconditioning will be used
 using additional bands           16
 real space projection scheme for non local part
 use partial core corrections
 calculate Harris-corrections to forces 
   (improved forces if not selfconsistent)
 use gradient corrections 
 use of overlap-Matrix (Vanderbilt PP)
 Fermi weights with tetrahedron method with Bloechl corrections


--------------------------------------------------------------------------------------------------------


  energy-cutoff  :      500.00
  volume of cell :     1888.05
      direct lattice vectors                 reciprocal lattice vectors
    24.009468079  0.000000000  0.000000000     0.041650236  0.000000000  0.000000000
     0.000000000  6.777849674  0.000000000     0.000000000  0.147539419  0.000000000
     0.000000000  0.000000000 11.602143288     0.000000000  0.000000000  0.086190971

  length of vectors
    24.009468079  6.777849674 11.602143288     0.041650236  0.147539419  0.086190971


 
 k-points in units of 2pi/SCALE and weight: k-density: 8.0                          
   0.00000000  0.00000000  0.00000000       0.025
   0.00000000  0.01844243  0.00000000       0.050
   0.00000000  0.03688485  0.00000000       0.050
   0.00000000  0.05532728  0.00000000       0.050
   0.00000000  0.07376971  0.00000000       0.025
   0.00000000  0.00000000  0.01723819       0.050
   0.00000000  0.01844243  0.01723819       0.100
   0.00000000  0.03688485  0.01723819       0.100
   0.00000000  0.05532728  0.01723819       0.100
   0.00000000  0.07376971  0.01723819       0.050
   0.00000000  0.00000000  0.03447639       0.050
   0.00000000  0.01844243  0.03447639       0.100
   0.00000000  0.03688485  0.03447639       0.100
   0.00000000  0.05532728  0.03447639       0.100
   0.00000000  0.07376971  0.03447639       0.050
 
 k-points in reciprocal lattice and weights: k-density: 8.0                          
   0.00000000  0.00000000  0.00000000       0.025
   0.00000000  0.12500000  0.00000000       0.050
   0.00000000  0.25000000  0.00000000       0.050
   0.00000000  0.37500000  0.00000000       0.050
   0.00000000  0.50000000  0.00000000       0.025
   0.00000000  0.00000000  0.20000000       0.050
   0.00000000  0.12500000  0.20000000       0.100
   0.00000000  0.25000000  0.20000000       0.100
   0.00000000  0.37500000  0.20000000       0.100
   0.00000000  0.50000000  0.20000000       0.050
   0.00000000  0.00000000  0.40000000       0.050
   0.00000000  0.12500000  0.40000000       0.100
   0.00000000  0.25000000  0.40000000       0.100
   0.00000000  0.37500000  0.40000000       0.100
   0.00000000  0.50000000  0.40000000       0.050
 
 position of ions in fractional coordinates (direct lattice) 
   0.00569361  0.25000000  0.70414401
   0.38413044  0.75000002  0.29585599
   0.18192962  0.75000002  0.18574135
   0.20789443  0.25000000  0.81425863
   0.05978014  0.75000002  0.91574852
   0.33004391  0.25000000  0.08425146
   0.12784309  0.25000000  0.39483548
   0.26198096  0.75000002  0.60516456
   0.07289913  0.07289090  0.14208944
   0.31692492  0.92710910  0.85791054
   0.11472410  0.92847234  0.65967730
   0.27509995  0.07152765  0.34032270
   0.31692492  0.57289090  0.85791054
   0.07289913  0.42710910  0.14208944
   0.27509995  0.42847234  0.34032270
   0.11472410  0.57152766  0.65967730
   0.03110981  0.75000002  0.59998213
   0.35871423  0.25000000  0.40001787
   0.15651343  0.25000000  0.08058328
   0.23331063  0.75000002  0.91941670
   0.07418398  0.25000000  0.96021950
   0.31564007  0.75000002  0.03978051
   0.11343925  0.75000002  0.47755083
   0.27638480  0.25000000  0.52244908
 
 position of ions in cartesian coordinates  (Angst):
   0.13670066  1.69446242  8.16957968
   9.22276745  5.08338737  3.43256361
   4.36803341  5.08338737  2.15499771
   4.99143467  1.69446242  9.44714534
   1.43528938  5.08338737 10.62464555
   7.92417870  1.69446242  0.97749749
   3.06944466  1.69446242  4.58093785
   6.29002342  5.08338737  7.02120592
   1.75026941  0.49404354  1.64854207
   7.60919867  6.28380608  9.95360098
   2.75446463  6.29304592  7.65367054
   6.60500345  0.48480369  3.94847274
   7.60919867  3.88296843  9.95360098
   1.75026941  2.89488124  1.64854207
   6.60500345  2.90412109  3.94847274
   2.75446463  3.87372859  7.65367054
   0.74692994  5.08338737  6.96107859
   8.61253796  1.69446242  4.64106470
   3.75780416  1.69446242  0.93493881
   5.60166416  5.08338737 10.66720424
   1.78111780  1.69446242 11.14060423
   7.57835016  5.08338737  0.46153923
   2.72361612  5.08338737  5.54061321
   6.63585195  1.69446242  6.06152912
 


--------------------------------------------------------------------------------------------------------


 k-point  1 :   0.0000 0.0000 0.0000  plane waves:   47989
 k-point  2 :   0.0000 0.1250 0.0000  plane waves:   47929
 k-point  3 :   0.0000 0.2500 0.0000  plane waves:   47901
 k-point  4 :   0.0000 0.3750 0.0000  plane waves:   47910
 k-point  5 :   0.0000 0.5000 0.0000  plane waves:   47868
 k-point  6 :   0.0000 0.0000 0.2000  plane waves:   48006
 k-point  7 :   0.0000 0.1250 0.2000  plane waves:   47967
 k-point  8 :   0.0000 0.2500 0.2000  plane waves:   47907
 k-point  9 :   0.0000 0.3750 0.2000  plane waves:   47884
 k-point 10 :   0.0000 0.5000 0.2000  plane waves:   47884
 k-point 11 :   0.0000 0.0000 0.4000  plane waves:   47922
 k-point 12 :   0.0000 0.1250 0.4000  plane waves:   47954
 k-point 13 :   0.0000 0.2500 0.4000  plane waves:   47967
 k-point 14 :   0.0000 0.3750 0.4000  plane waves:   47928
 k-point 15 :   0.0000 0.5000 0.4000  plane waves:   47890

 maximum and minimum number of plane-waves per node :     12077    11868

 maximum number of plane-waves:     48006
 maximum index in each direction: 
   IXMAX=   43   IYMAX=   12   IZMAX=   21
   IXMIN=  -43   IYMIN=  -12   IZMIN=  -21


 real space projection operators:
  total allocation   :       4538.88 KBytes
  max/ min on nodes  :       1138.77       1130.50


 parallel 3D FFT for wavefunctions:
    minimum data exchange during FFTs selected (reduces bandwidth)
 parallel 3D FFT for charge:
    minimum data exchange during FFTs selected (reduces bandwidth)


 total amount of memory used by VASP MPI-rank0    79353. kBytes
=======================================================================

   base      :      30000. kBytes
   nonlr-proj:       2647. kBytes
   fftplans  :       5898. kBytes
   grid      :       8824. kBytes
   one-center:         93. kBytes
   wavefun   :      31891. kBytes
 
     INWAV:  cpu time    0.0000: real time    0.0000
 Broyden mixing: mesh for mixing (old mesh)
   NGX = 87   NGY = 25   NGZ = 43
  (NGX  =280   NGY  = 80   NGZ  =128)
  gives a total of  93525 points

 initial charge density was supplied:
 charge density of overlapping atoms calculated
 number of electron     144.0000000 magnetization 
 keeping initial charge density in first step


--------------------------------------------------------------------------------------------------------


 Maximum index for non-local projection operator          740
 Maximum index for augmentation-charges          603 (set IRDMAX)


--------------------------------------------------------------------------------------------------------


 First call to EWALD:  gamma=   0.143
 Maximum number of real-space cells 2x 5x 3
 Maximum number of reciprocal cells 5x 2x 3

    FEWALD:  cpu time    0.0105: real time    0.0105


--------------------------------------- Iteration      1(   1)  ---------------------------------------


    POTLOK:  cpu time    0.0678: real time    0.1521
    SETDIJ:  cpu time    0.0026: real time    0.0028
     EDDAV:  cpu time    2.5659: real time    2.7080
 BZINTS: Fermi energy:  7.020927;144.000000 electrons
         Band energy:-462.763643;  BLOECHL correction: -0.027837
       DOS:  cpu time    0.0124: real time    0.0125
    --------------------------------------------
      LOOP:  cpu time    2.6487: real time    2.8754

 eigenvalue-minimisations  :  2768
 total energy-change (2. order) : 0.1184022E+04  (-0.4781658E+04)
 number of electron     144.0000000 magnetization 
 augmentation part      144.0000000 magnetization 

 Free energy of the ion-electron system (eV)
  ---------------------------------------------------
  alpha Z        PSCENC =       170.45750602
  Ewald energy   TEWEN  =     11482.01533319
  -Hartree energ DENC   =    -17600.11448242
  -exchange      EXHF   =         0.00000000
  -V(xc)+E(xc)   XCENC  =        41.90719222
  PAW double counting   =      3692.15173346    -3390.49189382
  entropy T*S    EENTRO =         0.00000000
  eigenvalues    EBANDS =      -462.76364325
  atomic energy  EATOM  =      7250.85976021
  Solvation  Ediel_sol  =         0.00000000
  ---------------------------------------------------
  free energy    TOTEN  =      1184.02150560 eV

  energy without entropy =     1184.02150560  energy(sigma->0) =     1184.02150560


--------------------------------------------------------------------------------------------------------




--------------------------------------- Iteration      1(   2)  ---------------------------------------


     EDDAV:  cpu time    3.2272: real time    3.2465
 BZINTS: Fermi energy: -2.033269;144.000000 electrons
         Band energy:***********;  BLOECHL correction:  0.000000
       DOS:  cpu time    0.0022: real time    0.0022
    --------------------------------------------
      LOOP:  cpu time    3.2294: real time    3.2487

 eigenvalue-minimisations  :  3840
 total energy-change (2. order) :-0.1124176E+04  (-0.1095147E+04)
 number of electron     144.0000000 magnetization 
 augmentation part      144.0000000 magnetization 

 Free energy of the ion-electron system (eV)
  ---------------------------------------------------
  alpha Z        PSCENC =       170.45750602
  Ewald energy   TEWEN  =     11482.01533319
  -Hartree energ DENC   =    -17600.11448242
  -exchange      EXHF   =         0.00000000
  -V(xc)+E(xc)   XCENC  =        41.90719222
  PAW double counting   =      3692.15173346    -3390.49189382
  entropy T*S    EENTRO =         0.00000000
  eigenvalues    EBANDS =     -1586.93941308
  atomic energy  EATOM  =      7250.85976021
  Solvation  Ediel_sol  =         0.00000000
  ---------------------------------------------------
  free energy    TOTEN  =        59.84573577 eV

  energy without entropy =       59.84573577  energy(sigma->0) =       59.84573577


--------------------------------------------------------------------------------------------------------




--------------------------------------- Iteration      1(   3)  ---------------------------------------


     EDDAV:  cpu time    2.8458: real time    2.8637
 BZINTS: Fermi energy: -3.322720;144.000000 electrons
         Band energy:***********;  BLOECHL correction:  0.000000
       DOS:  cpu time    0.0021: real time    0.0021
    --------------------------------------------
      LOOP:  cpu time    2.8479: real time    2.8658

 eigenvalue-minimisations  :  3232
 total energy-change (2. order) :-0.1684848E+03  (-0.1677919E+03)
 number of electron     144.0000000 magnetization 
 augmentation part      144.0000000 magnetization 

 Free energy of the ion-electron system (eV)
  ---------------------------------------------------
  alpha Z        PSCENC =       170.45750602
  Ewald energy   TEWEN  =     11482.01533319
  -Hartree energ DENC   =    -17600.11448242
  -exchange      EXHF   =         0.00000000
  -V(xc)+E(xc)   XCENC  =        41.90719222
  PAW double counting   =      3692.15173346    -3390.49189382
  entropy T*S    EENTRO =         0.00000000
  eigenvalues    EBANDS =     -1755.42417810
  atomic energy  EATOM  =      7250.85976021
  Solvation  Ediel_sol  =         0.00000000
  ---------------------------------------------------
  free energy    TOTEN  =      -108.63902925 eV

  energy without entropy =     -108.63902925  energy(sigma->0) =     -108.63902925


--------------------------------------------------------------------------------------------------------




--------------------------------------- Iteration      1(   4)  ---------------------------------------


     EDDAV:  cpu time    3.2236: real time    3.2428
 BZINTS: Fermi energy: -3.365349;144.000000 electrons
         Band energy:***********;  BLOECHL correction:  0.000000
       DOS:  cpu time    0.0020: real time    0.0020
    --------------------------------------------
      LOOP:  cpu time    3.2256: real time    3.2448

 eigenvalue-minimisations  :  3744
 total energy-change (2. order) :-0.6006958E+01  (-0.5990632E+01)
 number of electron     144.0000000 magnetization 
 augmentation part      144.0000000 magnetization 

 Free energy of the ion-electron system (eV)
  ---------------------------------------------------
  alpha Z        PSCENC =       170.45750602
  Ewald energy   TEWEN  =     11482.01533319
  -Hartree energ DENC   =    -17600.11448242
  -exchange      EXHF   =         0.00000000
  -V(xc)+E(xc)   XCENC  =        41.90719222
  PAW double counting   =      3692.15173346    -3390.49189382
  entropy T*S    EENTRO =         0.00000000
  eigenvalues    EBANDS =     -1761.43113647
  atomic energy  EATOM  =      7250.85976021
  Solvation  Ediel_sol  =         0.00000000
  ---------------------------------------------------
  free energy    TOTEN  =      -114.64598762 eV

  energy without entropy =     -114.64598762  energy(sigma->0) =     -114.64598762


--------------------------------------------------------------------------------------------------------




--------------------------------------- Iteration      1(   5)  ---------------------------------------


     EDDAV:  cpu time    3.4768: real time    3.4956
 BZINTS: Fermi energy: -3.340492;144.000000 electrons
         Band energy:***********;  BLOECHL correction:  0.000000
       DOS:  cpu time    0.0023: real time    0.0023
    CHARGE:  cpu time    0.1543: real time    0.1546
    MIXING:  cpu time    0.0059: real time    0.0060
    --------------------------------------------
      LOOP:  cpu time    3.6393: real time    3.6587

 eigenvalue-minimisations  :  4200
 total energy-change (2. order) :-0.2820263E+00  (-0.2819432E+00)
 number of electron     144.0000002 magnetization 
 augmentation part      -17.5392584 magnetization 

 Broyden mixing:
  rms(total) = 0.91821E+00    rms(broyden)= 0.91820E+00
  rms(prec ) = 0.11921E+01
  weight for this iteration     100.00

 Free energy of the ion-electron system (eV)
  ---------------------------------------------------
  alpha Z        PSCENC =       170.45750602
  Ewald energy   TEWEN  =     11482.01533319
  -Hartree energ DENC   =    -17600.11448242
  -exchange      EXHF   =         0.00000000
  -V(xc)+E(xc)   XCENC  =        41.90719222
  PAW double counting   =      3692.15173346    -3390.49189382
  entropy T*S    EENTRO =         0.00000000
  eigenvalues    EBANDS =     -1761.71316278
  atomic energy  EATOM  =      7250.85976021
  Solvation  Ediel_sol  =         0.00000000
  ---------------------------------------------------
  free energy    TOTEN  =      -114.92801392 eV

  energy without entropy =     -114.92801392  energy(sigma->0) =     -114.92801392


--------------------------------------------------------------------------------------------------------




--------------------------------------- Iteration      1(   6)  ---------------------------------------


    POTLOK:  cpu time    0.0587: real time    0.0698
    SETDIJ:  cpu time    0.0021: real time    0.0021
     EDDAV:  cpu time    2.6818: real time    2.6881
 BZINTS: Fermi energy: -2.242715;144.000000 electrons
         Band energy:***********;  BLOECHL correction:  0.000000
       DOS:  cpu time    0.0022: real time    0.0022
    CHARGE:  cpu time    0.1522: real time    0.1526
    MIXING:  cpu time    0.0065: real time    0.0066
    --------------------------------------------
      LOOP:  cpu time    2.9035: real time    2.9213

 eigenvalue-minimisations  :  3000
 total energy-change (2. order) : 0.8269002E+01  (-0.2052243E+01)
 number of electron     144.0000001 magnetization 
 augmentation part      -17.4278474 magnetization 

 Broyden mixing:
  rms(total) = 0.46490E+00    rms(broyden)= 0.46490E+00
  rms(prec ) = 0.58485E+00
  weight for this iteration     100.00

 eigenvalues of (default mixing * dielectric matrix)
  average eigenvalue GAMMA=   1.5425
  1.5425

 Free energy of the ion-electron system (eV)
  ---------------------------------------------------
  alpha Z        PSCENC =       170.45750602
  Ewald energy   TEWEN  =     11482.01533319
  -Hartree energ DENC   =    -17692.42617961
  -exchange      EXHF   =         0.00000000
  -V(xc)+E(xc)   XCENC  =        44.73916983
  PAW double counting   =      3726.44453697    -3431.95377793
  entropy T*S    EENTRO =         0.00000000
  eigenvalues    EBANDS =     -1656.79536075
  atomic energy  EATOM  =      7250.85976021
  Solvation  Ediel_sol  =         0.00000000
  ---------------------------------------------------
  free energy    TOTEN  =      -106.65901207 eV

  energy without entropy =     -106.65901207  energy(sigma->0) =     -106.65901207


--------------------------------------------------------------------------------------------------------




--------------------------------------- Iteration      1(   7)  ---------------------------------------


    POTLOK:  cpu time    0.0615: real time    0.0716
    SETDIJ:  cpu time    0.0028: real time    0.0028
     EDDAV:  cpu time    3.0037: real time    3.0108
 BZINTS: Fermi energy: -1.442316;144.000000 electrons
         Band energy:***********;  BLOECHL correction:  0.000000
       DOS:  cpu time    0.0020: real time    0.0020
    CHARGE:  cpu time    0.1523: real time    0.1527
    MIXING:  cpu time    0.0060: real time    0.0063
    --------------------------------------------
      LOOP:  cpu time    3.2284: real time    3.2462

 eigenvalue-minimisations  :  3480
 total energy-change (2. order) : 0.1315022E+01  (-0.9905593E+00)
 number of electron     144.0000001 magnetization 
 augmentation part      -17.5159111 magnetization 

 Broyden mixing:
  rms(total) = 0.24418E+00    rms(broyden)= 0.24418E+00
  rms(prec ) = 0.29573E+00
  weight for this iteration     100.00

 eigenvalues of (default mixing * dielectric matrix)
  average eigenvalue GAMMA=   1.8555
  1.8555  1.8555

 Free energy of the ion-electron system (eV)
  ---------------------------------------------------
  alpha Z        PSCENC =       170.45750602
  Ewald energy   TEWEN  =     11482.01533319
  -Hartree energ DENC   =    -17769.94917248
  -exchange      EXHF   =         0.00000000
  -V(xc)+E(xc)   XCENC  =        47.04029532
  PAW double counting   =      3771.09386967    -3482.41784415
  entropy T*S    EENTRO =         0.00000000
  eigenvalues    EBANDS =     -1574.44373774
  atomic energy  EATOM  =      7250.85976021
  Solvation  Ediel_sol  =         0.00000000
  ---------------------------------------------------
  free energy    TOTEN  =      -105.34398996 eV

  energy without entropy =     -105.34398996  energy(sigma->0) =     -105.34398996


--------------------------------------------------------------------------------------------------------




--------------------------------------- Iteration      1(   8)  ---------------------------------------


    POTLOK:  cpu time    0.0592: real time    0.0697
    SETDIJ:  cpu time    0.0016: real time    0.0016
     EDDAV:  cpu time    2.7550: real time    2.7615
 BZINTS: Fermi energy: -1.255371;144.000000 electrons
         Band energy:***********;  BLOECHL correction:  0.000000
       DOS:  cpu time    0.0022: real time    0.0022
    CHARGE:  cpu time    0.1563: real time    0.1567
    MIXING:  cpu time    0.0055: real time    0.0059
    --------------------------------------------
      LOOP:  cpu time    2.9798: real time    2.9977

 eigenvalue-minimisations  :  3104
 total energy-change (2. order) : 0.2175780E+00  (-0.3528128E+00)
 number of electron     144.0000001 magnetization 
 augmentation part      -17.6467319 magnetization 

 Broyden mixing:
  rms(total) = 0.11609E+00    rms(broyden)= 0.11609E+00
  rms(prec ) = 0.18807E+00
  weight for this iteration     100.00

 eigenvalues of (default mixing * dielectric matrix)
  average eigenvalue GAMMA=   1.6804
  2.6147  1.2133  1.2133

 Free energy of the ion-electron system (eV)
  ---------------------------------------------------
  alpha Z        PSCENC =       170.45750602
  Ewald energy   TEWEN  =     11482.01533319
  -Hartree energ DENC   =    -17806.61577173
  -exchange      EXHF   =         0.00000000
  -V(xc)+E(xc)   XCENC  =        47.98264885
  PAW double counting   =      3820.54295658    -3533.66168025
  entropy T*S    EENTRO =         0.00000000
  eigenvalues    EBANDS =     -1536.70716481
  atomic energy  EATOM  =      7250.85976021
  Solvation  Ediel_sol  =         0.00000000
  ---------------------------------------------------
  free energy    TOTEN  =      -105.12641193 eV

  energy without entropy =     -105.12641193  energy(sigma->0) =     -105.12641193


--------------------------------------------------------------------------------------------------------




--------------------------------------- Iteration      1(   9)  ---------------------------------------


    POTLOK:  cpu time    0.0642: real time    0.0739
    SETDIJ:  cpu time    0.0020: real time    0.0020
     EDDAV:  cpu time    2.7837: real time    2.7902
 BZINTS: Fermi energy: -0.854368;144.000000 electrons
         Band energy:***********;  BLOECHL correction:  0.000000
       DOS:  cpu time    0.0022: real time    0.0022
    CHARGE:  cpu time    0.1497: real time    0.1500
    MIXING:  cpu time    0.0052: real time    0.0052
    --------------------------------------------
      LOOP:  cpu time    3.0069: real time    3.0235

 eigenvalue-minimisations  :  3112
 total energy-change (2. order) : 0.2737503E+00  (-0.1132928E+00)
 number of electron     144.0000001 magnetization 
 augmentation part      -17.6206517 magnetization 

 Broyden mixing:
  rms(total) = 0.56455E-01    rms(broyden)= 0.56454E-01
  rms(prec ) = 0.81565E-01
  weight for this iteration     100.00

 eigenvalues of (default mixing * dielectric matrix)
  average eigenvalue GAMMA=   1.4153
  2.5431  1.2153  1.2153  0.6876

 Free energy of the ion-electron system (eV)
  ---------------------------------------------------
  alpha Z        PSCENC =       170.45750602
  Ewald energy   TEWEN  =     11482.01533319
  -Hartree energ DENC   =    -17846.71662211
  -exchange      EXHF   =         0.00000000
  -V(xc)+E(xc)   XCENC  =        48.92397179
  PAW double counting   =      3831.20514364    -3545.65594005
  entropy T*S    EENTRO =         0.00000000
  eigenvalues    EBANDS =     -1495.94181435
  atomic energy  EATOM  =      7250.85976021
  Solvation  Ediel_sol  =         0.00000000
  ---------------------------------------------------
  free energy    TOTEN  =      -104.85266166 eV

  energy without entropy =     -104.85266166  energy(sigma->0) =     -104.85266166


--------------------------------------------------------------------------------------------------------




--------------------------------------- Iteration      1(  10)  ---------------------------------------


    POTLOK:  cpu time    0.0640: real time    0.0751
    SETDIJ:  cpu time    0.0017: real time    0.0017
     EDDAV:  cpu time    3.0349: real time    3.0420
 BZINTS: Fermi energy: -0.804014;144.000000 electrons
         Band energy:***********;  BLOECHL correction:  0.000000
       DOS:  cpu time    0.0020: real time    0.0020
    CHARGE:  cpu time    0.1476: real time    0.1479
    MIXING:  cpu time    0.0068: real time    0.0069
    --------------------------------------------
      LOOP:  cpu time    3.2570: real time    3.2756

 eigenvalue-minimisations  :  3496
 total energy-change (2. order) :-0.1522480E-01  (-0.2499607E-01)
 number of electron     144.0000001 magnetization 
 augmentation part      -17.6415061 magnetization 

 Broyden mixing:
  rms(total) = 0.42561E-01    rms(broyden)= 0.42561E-01
  rms(prec ) = 0.63508E-01
  weight for this iteration     100.00

 eigenvalues of (default mixing * dielectric matrix)
  average eigenvalue GAMMA=   1.6202
  2.5259  2.5259  1.1081  0.9706  0.9706

 Free energy of the ion-electron system (eV)
  ---------------------------------------------------
  alpha Z        PSCENC =       170.45750602
  Ewald energy   TEWEN  =     11482.01533319
  -Hartree energ DENC   =    -17857.34548379
  -exchange      EXHF   =         0.00000000
  -V(xc)+E(xc)   XCENC  =        48.95002951
  PAW double counting   =      3826.44660631    -3540.57467100
  entropy T*S    EENTRO =         0.00000000
  eigenvalues    EBANDS =     -1485.67696691
  atomic energy  EATOM  =      7250.85976021
  Solvation  Ediel_sol  =         0.00000000
  ---------------------------------------------------
  free energy    TOTEN  =      -104.86788646 eV

  energy without entropy =     -104.86788646  energy(sigma->0) =     -104.86788646


--------------------------------------------------------------------------------------------------------




--------------------------------------- Iteration      1(  11)  ---------------------------------------


    POTLOK:  cpu time    0.0629: real time    0.0746
    SETDIJ:  cpu time    0.0021: real time    0.0021
     EDDAV:  cpu time    2.7372: real time    2.7436
 BZINTS: Fermi energy: -0.668890;144.000000 electrons
         Band energy:***********;  BLOECHL correction:  0.000000
       DOS:  cpu time    0.0021: real time    0.0021
    CHARGE:  cpu time    0.1455: real time    0.1458
    MIXING:  cpu time    0.0061: real time    0.0062
    --------------------------------------------
      LOOP:  cpu time    2.9559: real time    2.9744

 eigenvalue-minimisations  :  3144
 total energy-change (2. order) : 0.8344670E-02  (-0.7146189E-02)
 number of electron     144.0000001 magnetization 
 augmentation part      -17.6475052 magnetization 

 Broyden mixing:
  rms(total) = 0.16147E-01    rms(broyden)= 0.16147E-01
  rms(prec ) = 0.32124E-01
  weight for this iteration     100.00

 eigenvalues of (default mixing * dielectric matrix)
  average eigenvalue GAMMA=   1.6293
  2.8564  2.8564  1.1442  1.0070  0.9558  0.9558

 Free energy of the ion-electron system (eV)
  ---------------------------------------------------
  alpha Z        PSCENC =       170.45750602
  Ewald energy   TEWEN  =     11482.01533319
  -Hartree energ DENC   =    -17877.34378738
  -exchange      EXHF   =         0.00000000
  -V(xc)+E(xc)   XCENC  =        49.12904479
  PAW double counting   =      3827.44958205    -3541.24291725
  entropy T*S    EENTRO =         0.00000000
  eigenvalues    EBANDS =     -1466.18406342
  atomic energy  EATOM  =      7250.85976021
  Solvation  Ediel_sol  =         0.00000000
  ---------------------------------------------------
  free energy    TOTEN  =      -104.85954179 eV

  energy without entropy =     -104.85954179  energy(sigma->0) =     -104.85954179


--------------------------------------------------------------------------------------------------------




--------------------------------------- Iteration      1(  12)  ---------------------------------------


    POTLOK:  cpu time    0.0614: real time    0.0732
    SETDIJ:  cpu time    0.0017: real time    0.0017
     EDDAV:  cpu time    2.7956: real time    2.8022
 BZINTS: Fermi energy: -0.592847;144.000000 electrons
         Band energy:***********;  BLOECHL correction:  0.000000
       DOS:  cpu time    0.0020: real time    0.0021
    CHARGE:  cpu time    0.1402: real time    0.1405
    MIXING:  cpu time    0.0058: real time    0.0059
    --------------------------------------------
      LOOP:  cpu time    3.0068: real time    3.0255

 eigenvalue-minimisations  :  3104
 total energy-change (2. order) :-0.4937070E-02  (-0.1546854E-02)
 number of electron     144.0000001 magnetization 
 augmentation part      -17.6419060 magnetization 

 Broyden mixing:
  rms(total) = 0.12451E-01    rms(broyden)= 0.12450E-01
  rms(prec ) = 0.21284E-01
  weight for this iteration     100.00

 eigenvalues of (default mixing * dielectric matrix)
  average eigenvalue GAMMA=   1.7760
  3.8062  2.5436  2.0287  1.1268  1.1268  0.9001  0.9001

 Free energy of the ion-electron system (eV)
  ---------------------------------------------------
  alpha Z        PSCENC =       170.45750602
  Ewald energy   TEWEN  =     11482.01533319
  -Hartree energ DENC   =    -17889.75578150
  -exchange      EXHF   =         0.00000000
  -V(xc)+E(xc)   XCENC  =        49.19158853
  PAW double counting   =      3825.22167761    -3538.86871175
  entropy T*S    EENTRO =         0.00000000
  eigenvalues    EBANDS =     -1453.98585117
  atomic energy  EATOM  =      7250.85976021
  Solvation  Ediel_sol  =         0.00000000
  ---------------------------------------------------
  free energy    TOTEN  =      -104.86447886 eV

  energy without entropy =     -104.86447886  energy(sigma->0) =     -104.86447886


--------------------------------------------------------------------------------------------------------




--------------------------------------- Iteration      1(  13)  ---------------------------------------


    POTLOK:  cpu time    0.0685: real time    0.0805
    SETDIJ:  cpu time    0.0017: real time    0.0017
     EDDAV:  cpu time    2.8278: real time    2.8345
 BZINTS: Fermi energy: -0.533058;144.000000 electrons
         Band energy:***********;  BLOECHL correction:  0.000000
       DOS:  cpu time    0.0022: real time    0.0022
    CHARGE:  cpu time    0.1423: real time    0.1426
    MIXING:  cpu time    0.0065: real time    0.0066
    --------------------------------------------
      LOOP:  cpu time    3.0490: real time    3.0680

 eigenvalue-minimisations  :  3264
 total energy-change (2. order) :-0.9194394E-02  (-0.1030619E-02)
 number of electron     144.0000001 magnetization 
 augmentation part      -17.6436327 magnetization 

 Broyden mixing:
  rms(total) = 0.65776E-02    rms(broyden)= 0.65776E-02
  rms(prec ) = 0.11432E-01
  weight for this iteration     100.00

 eigenvalues of (default mixing * dielectric matrix)
  average eigenvalue GAMMA=   1.8351
  4.2201  2.9250  2.4375  1.2163  1.2163  0.8978  0.8840  0.8840

 Free energy of the ion-electron system (eV)
  ---------------------------------------------------
  alpha Z        PSCENC =       170.45750602
  Ewald energy   TEWEN  =     11482.01533319
  -Hartree energ DENC   =    -17900.44123291
  -exchange      EXHF   =         0.00000000
  -V(xc)+E(xc)   XCENC  =        49.24999361
  PAW double counting   =      3823.46857774    -3537.23522183
  entropy T*S    EENTRO =         0.00000000
  eigenvalues    EBANDS =     -1443.24838927
  atomic energy  EATOM  =      7250.85976021
  Solvation  Ediel_sol  =         0.00000000
  ---------------------------------------------------
  free energy    TOTEN  =      -104.87367325 eV

  energy without entropy =     -104.87367325  energy(sigma->0) =     -104.87367325


--------------------------------------------------------------------------------------------------------




--------------------------------------- Iteration      1(  14)  ---------------------------------------


    POTLOK:  cpu time    0.0587: real time    0.0703
    SETDIJ:  cpu time    0.0032: real time    0.0032
     EDDAV:  cpu time    2.6551: real time    2.6614
 BZINTS: Fermi energy: -0.514208;144.000000 electrons
         Band energy:***********;  BLOECHL correction:  0.000000
       DOS:  cpu time    0.0020: real time    0.0019
    CHARGE:  cpu time    0.1500: real time    0.1503
    MIXING:  cpu time    0.0081: real time    0.0081
    --------------------------------------------
      LOOP:  cpu time    2.8771: real time    2.8953

 eigenvalue-minimisations  :  3016
 total energy-change (2. order) :-0.5098693E-02  (-0.2875008E-03)
 number of electron     144.0000001 magnetization 
 augmentation part      -17.6443984 magnetization 

 Broyden mixing:
  rms(total) = 0.55326E-02    rms(broyden)= 0.55326E-02
  rms(prec ) = 0.88347E-02
  weight for this iteration     100.00

 eigenvalues of (default mixing * dielectric matrix)
  average eigenvalue GAMMA=   1.8616
  4.6479  3.1207  2.1889  1.4507  1.4507  0.9088  0.9088  1.0390  1.0390

 Free energy of the ion-electron system (eV)
  ---------------------------------------------------
  alpha Z        PSCENC =       170.45750602
  Ewald energy   TEWEN  =     11482.01533319
  -Hartree energ DENC   =    -17903.83042656
  -exchange      EXHF   =         0.00000000
  -V(xc)+E(xc)   XCENC  =        49.24929117
  PAW double counting   =      3822.54763001    -3536.32576586
  entropy T*S    EENTRO =         0.00000000
  eigenvalues    EBANDS =     -1439.85210014
  atomic energy  EATOM  =      7250.85976021
  Solvation  Ediel_sol  =         0.00000000
  ---------------------------------------------------
  free energy    TOTEN  =      -104.87877195 eV

  energy without entropy =     -104.87877195  energy(sigma->0) =     -104.87877195


--------------------------------------------------------------------------------------------------------




--------------------------------------- Iteration      1(  15)  ---------------------------------------


    POTLOK:  cpu time    0.0677: real time    0.0807
    SETDIJ:  cpu time    0.0019: real time    0.0019
     EDDAV:  cpu time    2.7533: real time    2.7598
 BZINTS: Fermi energy: -0.501775;144.000000 electrons
         Band energy:***********;  BLOECHL correction:  0.000000
       DOS:  cpu time    0.0020: real time    0.0020
    CHARGE:  cpu time    0.1557: real time    0.1560
    MIXING:  cpu time    0.0064: real time    0.0064
    --------------------------------------------
      LOOP:  cpu time    2.9868: real time    3.0067

 eigenvalue-minimisations  :  3040
 total energy-change (2. order) :-0.1692099E-02  (-0.1792847E-03)
 number of electron     144.0000001 magnetization 
 augmentation part      -17.6462939 magnetization 

 Broyden mixing:
  rms(total) = 0.21533E-02    rms(broyden)= 0.21533E-02
  rms(prec ) = 0.41639E-02
  weight for this iteration     100.00

 eigenvalues of (default mixing * dielectric matrix)
  average eigenvalue GAMMA=   1.9588
  5.4151  3.6025  2.4338  1.7241  0.9049  0.9049  1.2513  1.2513  1.0037  1.0964

 Free energy of the ion-electron system (eV)
  ---------------------------------------------------
  alpha Z        PSCENC =       170.45750602
  Ewald energy   TEWEN  =     11482.01533319
  -Hartree energ DENC   =    -17905.48111734
  -exchange      EXHF   =         0.00000000
  -V(xc)+E(xc)   XCENC  =        49.24246319
  PAW double counting   =      3823.00163343    -3536.74493978
  entropy T*S    EENTRO =         0.00000000
  eigenvalues    EBANDS =     -1438.23110297
  atomic energy  EATOM  =      7250.85976021
  Solvation  Ediel_sol  =         0.00000000
  ---------------------------------------------------
  free energy    TOTEN  =      -104.88046405 eV

  energy without entropy =     -104.88046405  energy(sigma->0) =     -104.88046405


--------------------------------------------------------------------------------------------------------




--------------------------------------- Iteration      1(  16)  ---------------------------------------


    POTLOK:  cpu time    0.0671: real time    0.0782
    SETDIJ:  cpu time    0.0017: real time    0.0017
     EDDAV:  cpu time    2.7445: real time    2.7509
 BZINTS: Fermi energy: -0.491624;144.000000 electrons
         Band energy:***********;  BLOECHL correction:  0.000000
       DOS:  cpu time    0.0024: real time    0.0024
    CHARGE:  cpu time    0.1542: real time    0.1546
    MIXING:  cpu time    0.0065: real time    0.0065
    --------------------------------------------
      LOOP:  cpu time    2.9764: real time    2.9944

 eigenvalue-minimisations  :  3120
 total energy-change (2. order) :-0.9339980E-03  (-0.6865905E-04)
 number of electron     144.0000001 magnetization 
 augmentation part      -17.6461637 magnetization 

 Broyden mixing:
  rms(total) = 0.15261E-02    rms(broyden)= 0.15261E-02
  rms(prec ) = 0.27766E-02
  weight for this iteration     100.00

 eigenvalues of (default mixing * dielectric matrix)
  average eigenvalue GAMMA=   2.0095
  5.6504  4.0760  2.4977  1.7525  1.7525  0.9082  0.9082  1.2744  1.2744  1.0049
  1.0049

 Free energy of the ion-electron system (eV)
  ---------------------------------------------------
  alpha Z        PSCENC =       170.45750602
  Ewald energy   TEWEN  =     11482.01533319
  -Hartree energ DENC   =    -17906.86402714
  -exchange      EXHF   =         0.00000000
  -V(xc)+E(xc)   XCENC  =        49.23935750
  PAW double counting   =      3823.19257400    -3536.94253901
  entropy T*S    EENTRO =         0.00000000
  eigenvalues    EBANDS =     -1436.83936281
  atomic energy  EATOM  =      7250.85976021
  Solvation  Ediel_sol  =         0.00000000
  ---------------------------------------------------
  free energy    TOTEN  =      -104.88139804 eV

  energy without entropy =     -104.88139804  energy(sigma->0) =     -104.88139804


--------------------------------------------------------------------------------------------------------




--------------------------------------- Iteration      1(  17)  ---------------------------------------


    POTLOK:  cpu time    0.0639: real time    0.0740
    SETDIJ:  cpu time    0.0017: real time    0.0017
     EDDAV:  cpu time    2.7683: real time    2.7749
 BZINTS: Fermi energy: -0.483443;144.000000 electrons
         Band energy:***********;  BLOECHL correction:  0.000000
       DOS:  cpu time    0.0022: real time    0.0022
    CHARGE:  cpu time    0.1477: real time    0.1480
    MIXING:  cpu time    0.0063: real time    0.0063
    --------------------------------------------
      LOOP:  cpu time    2.9901: real time    3.0071

 eigenvalue-minimisations  :  3128
 total energy-change (2. order) :-0.4504008E-03  (-0.3018543E-04)
 number of electron     144.0000001 magnetization 
 augmentation part      -17.6461207 magnetization 

 Broyden mixing:
  rms(total) = 0.10244E-02    rms(broyden)= 0.10244E-02
  rms(prec ) = 0.18803E-02
  weight for this iteration     100.00

 eigenvalues of (default mixing * dielectric matrix)
  average eigenvalue GAMMA=   2.0467
  6.0479  4.3126  2.7678  2.2183  1.6378  0.9068  0.9068  1.3222  1.3222  0.9632
  1.0775  1.0775

 Free energy of the ion-electron system (eV)
  ---------------------------------------------------
  alpha Z        PSCENC =       170.45750602
  Ewald energy   TEWEN  =     11482.01533319
  -Hartree energ DENC   =    -17907.83436646
  -exchange      EXHF   =         0.00000000
  -V(xc)+E(xc)   XCENC  =        49.24100366
  PAW double counting   =      3823.23821196    -3536.98587650
  entropy T*S    EENTRO =         0.00000000
  eigenvalues    EBANDS =     -1435.87342053
  atomic energy  EATOM  =      7250.85976021
  Solvation  Ediel_sol  =         0.00000000
  ---------------------------------------------------
  free energy    TOTEN  =      -104.88184844 eV

  energy without entropy =     -104.88184844  energy(sigma->0) =     -104.88184844


--------------------------------------------------------------------------------------------------------




--------------------------------------- Iteration      1(  18)  ---------------------------------------


    POTLOK:  cpu time    0.0593: real time    0.0663
    SETDIJ:  cpu time    0.0017: real time    0.0017
     EDDAV:  cpu time    2.6639: real time    2.6702
 BZINTS: Fermi energy: -0.479362;144.000000 electrons
         Band energy:***********;  BLOECHL correction:  0.000000
       DOS:  cpu time    0.0019: real time    0.0019
    CHARGE:  cpu time    0.1484: real time    0.1488
    MIXING:  cpu time    0.0072: real time    0.0072
    --------------------------------------------
      LOOP:  cpu time    2.8825: real time    2.8962

 eigenvalue-minimisations  :  2992
 total energy-change (2. order) :-0.8962483E-03  (-0.1723686E-04)
 number of electron     144.0000001 magnetization 
 augmentation part      -17.6459469 magnetization 

 Broyden mixing:
  rms(total) = 0.58846E-03    rms(broyden)= 0.58846E-03
  rms(prec ) = 0.10359E-02
  weight for this iteration     100.00

 eigenvalues of (default mixing * dielectric matrix)
  average eigenvalue GAMMA=   2.1242
  6.3322  5.0522  2.9714  2.5078  1.8774  0.9062  0.9062  1.3742  1.3742  1.1873
  1.1873  0.9692  0.9692

 Free energy of the ion-electron system (eV)
  ---------------------------------------------------
  alpha Z        PSCENC =       170.45750602
  Ewald energy   TEWEN  =     11482.01533319
  -Hartree energ DENC   =    -17908.52753733
  -exchange      EXHF   =         0.00000000
  -V(xc)+E(xc)   XCENC  =        49.24297014
  PAW double counting   =      3823.17730331    -3536.92277716
  entropy T*S    EENTRO =         0.00000000
  eigenvalues    EBANDS =     -1435.18530309
  atomic energy  EATOM  =      7250.85976021
  Solvation  Ediel_sol  =         0.00000000
  ---------------------------------------------------
  free energy    TOTEN  =      -104.88274469 eV

  energy without entropy =     -104.88274469  energy(sigma->0) =     -104.88274469


--------------------------------------------------------------------------------------------------------




--------------------------------------- Iteration      1(  19)  ---------------------------------------


    POTLOK:  cpu time    0.0592: real time    0.0715
    SETDIJ:  cpu time    0.0016: real time    0.0016
     EDDAV:  cpu time    2.4108: real time    2.4165
 BZINTS: Fermi energy: -0.478807;144.000000 electrons
         Band energy:***********;  BLOECHL correction:  0.000000
       DOS:  cpu time    0.0021: real time    0.0021
    CHARGE:  cpu time    0.1459: real time    0.1462
    MIXING:  cpu time    0.0080: real time    0.0081
    --------------------------------------------
      LOOP:  cpu time    2.6276: real time    2.6459

 eigenvalue-minimisations  :  2648
 total energy-change (2. order) :-0.6988689E-03  (-0.8811574E-05)
 number of electron     144.0000001 magnetization 
 augmentation part      -17.6460962 magnetization 

 Broyden mixing:
  rms(total) = 0.45631E-03    rms(broyden)= 0.45631E-03
  rms(prec ) = 0.66542E-03
  weight for this iteration     100.00

 eigenvalues of (default mixing * dielectric matrix)
  average eigenvalue GAMMA=   2.2475
  6.9735  5.6457  3.4108  2.7097  2.2479  1.6137  1.6137  0.9062  0.9062  1.2218
  1.2218  0.9689  1.0124  1.0124

 Free energy of the ion-electron system (eV)
  ---------------------------------------------------
  alpha Z        PSCENC =       170.45750602
  Ewald energy   TEWEN  =     11482.01533319
  -Hartree energ DENC   =    -17908.76284106
  -exchange      EXHF   =         0.00000000
  -V(xc)+E(xc)   XCENC  =        49.24158187
  PAW double counting   =      3823.12947609    -3536.87407391
  entropy T*S    EENTRO =         0.00000000
  eigenvalues    EBANDS =     -1434.95018598
  atomic energy  EATOM  =      7250.85976021
  Solvation  Ediel_sol  =         0.00000000
  ---------------------------------------------------
  free energy    TOTEN  =      -104.88344356 eV

  energy without entropy =     -104.88344356  energy(sigma->0) =     -104.88344356


--------------------------------------------------------------------------------------------------------




--------------------------------------- Iteration      1(  20)  ---------------------------------------


    POTLOK:  cpu time    0.0588: real time    0.0710
    SETDIJ:  cpu time    0.0016: real time    0.0016
     EDDAV:  cpu time    2.5164: real time    2.5223
 BZINTS: Fermi energy: -0.478987;144.000000 electrons
         Band energy:***********;  BLOECHL correction:  0.000000
       DOS:  cpu time    0.0022: real time    0.0022
    CHARGE:  cpu time    0.1480: real time    0.1483
    MIXING:  cpu time    0.0077: real time    0.0077
    --------------------------------------------
      LOOP:  cpu time    2.7346: real time    2.7532

 eigenvalue-minimisations  :  2728
 total energy-change (2. order) :-0.4508107E-03  (-0.7982504E-05)
 number of electron     144.0000001 magnetization 
 augmentation part      -17.6461706 magnetization 

 Broyden mixing:
  rms(total) = 0.17237E-03    rms(broyden)= 0.17236E-03
  rms(prec ) = 0.24400E-03
  weight for this iteration     100.00

 eigenvalues of (default mixing * dielectric matrix)
  average eigenvalue GAMMA=   2.3123
  7.6345  6.3399  3.4838  3.0481  2.3116  1.6928  1.6928  0.9063  0.9063  1.2582
  1.2582  1.1177  1.1177  0.9583  0.9583

 Free energy of the ion-electron system (eV)
  ---------------------------------------------------
  alpha Z        PSCENC =       170.45750602
  Ewald energy   TEWEN  =     11482.01533319
  -Hartree energ DENC   =    -17908.88181526
  -exchange      EXHF   =         0.00000000
  -V(xc)+E(xc)   XCENC  =        49.24125895
  PAW double counting   =      3823.12801568    -3536.87268666
  entropy T*S    EENTRO =         0.00000000
  eigenvalues    EBANDS =     -1434.83126650
  atomic energy  EATOM  =      7250.85976021
  Solvation  Ediel_sol  =         0.00000000
  ---------------------------------------------------
  free energy    TOTEN  =      -104.88389437 eV

  energy without entropy =     -104.88389437  energy(sigma->0) =     -104.88389437


--------------------------------------------------------------------------------------------------------




--------------------------------------- Iteration      1(  21)  ---------------------------------------


    POTLOK:  cpu time    0.0590: real time    0.0717
    SETDIJ:  cpu time    0.0017: real time    0.0017
     EDDAV:  cpu time    2.3545: real time    2.3600
 BZINTS: Fermi energy: -0.480123;144.000000 electrons
         Band energy:***********;  BLOECHL correction:  0.000000
       DOS:  cpu time    0.0021: real time    0.0021
    CHARGE:  cpu time    0.1479: real time    0.1482
    MIXING:  cpu time    0.0072: real time    0.0072
    --------------------------------------------
      LOOP:  cpu time    2.5724: real time    2.5910

 eigenvalue-minimisations  :  2480
 total energy-change (2. order) :-0.1259787E-03  (-0.1873615E-05)
 number of electron     144.0000001 magnetization 
 augmentation part      -17.6461434 magnetization 

 Broyden mixing:
  rms(total) = 0.97114E-04    rms(broyden)= 0.97114E-04
  rms(prec ) = 0.12178E-03
  weight for this iteration     100.00

 eigenvalues of (default mixing * dielectric matrix)
  average eigenvalue GAMMA=   2.3839
  8.8194  6.5352  3.7513  3.1931  2.3846  1.8748  1.8748  0.9062  0.9062  1.2703
  1.2703  1.2070  1.2070  1.0141  0.9639  0.9639

 Free energy of the ion-electron system (eV)
  ---------------------------------------------------
  alpha Z        PSCENC =       170.45750602
  Ewald energy   TEWEN  =     11482.01533319
  -Hartree energ DENC   =    -17908.84441197
  -exchange      EXHF   =         0.00000000
  -V(xc)+E(xc)   XCENC  =        49.24070893
  PAW double counting   =      3823.13414004    -3536.87911561
  entropy T*S    EENTRO =         0.00000000
  eigenvalues    EBANDS =     -1434.86794117
  atomic energy  EATOM  =      7250.85976021
  Solvation  Ediel_sol  =         0.00000000
  ---------------------------------------------------
  free energy    TOTEN  =      -104.88402035 eV

  energy without entropy =     -104.88402035  energy(sigma->0) =     -104.88402035


--------------------------------------------------------------------------------------------------------




--------------------------------------- Iteration      1(  22)  ---------------------------------------


    POTLOK:  cpu time    0.0589: real time    0.0705
    SETDIJ:  cpu time    0.0017: real time    0.0017
     EDDAV:  cpu time    2.3050: real time    2.3105
 BZINTS: Fermi energy: -0.480861;144.000000 electrons
         Band energy:***********;  BLOECHL correction:  0.000000
       DOS:  cpu time    0.0021: real time    0.0021
    CHARGE:  cpu time    0.1456: real time    0.1459
    MIXING:  cpu time    0.0087: real time    0.0087
    --------------------------------------------
      LOOP:  cpu time    2.5220: real time    2.5394

 eigenvalue-minimisations  :  2424
 total energy-change (2. order) :-0.3476463E-04  (-0.3456409E-06)
 number of electron     144.0000001 magnetization 
 augmentation part      -17.6461391 magnetization 

 Broyden mixing:
  rms(total) = 0.53059E-04    rms(broyden)= 0.53058E-04
  rms(prec ) = 0.68079E-04
  weight for this iteration     100.00

 eigenvalues of (default mixing * dielectric matrix)
  average eigenvalue GAMMA=   2.3718
  8.9115  6.8526  3.7753  3.3289  2.5108  1.9546  1.9546  0.9062  0.9062  1.4032
  1.2617  1.2617  1.1763  1.1763  1.0307  0.9553  0.9553

 Free energy of the ion-electron system (eV)
  ---------------------------------------------------
  alpha Z        PSCENC =       170.45750602
  Ewald energy   TEWEN  =     11482.01533319
  -Hartree energ DENC   =    -17908.83491530
  -exchange      EXHF   =         0.00000000
  -V(xc)+E(xc)   XCENC  =        49.24039160
  PAW double counting   =      3823.12433192    -3536.86932376
  entropy T*S    EENTRO =         0.00000000
  eigenvalues    EBANDS =     -1434.87713899
  atomic energy  EATOM  =      7250.85976021
  Solvation  Ediel_sol  =         0.00000000
  ---------------------------------------------------
  free energy    TOTEN  =      -104.88405512 eV

  energy without entropy =     -104.88405512  energy(sigma->0) =     -104.88405512


--------------------------------------------------------------------------------------------------------




--------------------------------------- Iteration      1(  23)  ---------------------------------------


    POTLOK:  cpu time    0.0611: real time    0.0730
    SETDIJ:  cpu time    0.0015: real time    0.0015
     EDDAV:  cpu time    2.0281: real time    2.0328
 BZINTS: Fermi energy: -0.481399;144.000000 electrons
         Band energy:***********;  BLOECHL correction:  0.000000
       DOS:  cpu time    0.0020: real time    0.0020
    CHARGE:  cpu time    0.1449: real time    0.1453
    MIXING:  cpu time    0.0076: real time    0.0076
    --------------------------------------------
      LOOP:  cpu time    2.2452: real time    2.2623

 eigenvalue-minimisations  :  2080
 total energy-change (2. order) :-0.1238892E-04  (-0.9939500E-07)
 number of electron     144.0000001 magnetization 
 augmentation part      -17.6461367 magnetization 

 Broyden mixing:
  rms(total) = 0.26045E-04    rms(broyden)= 0.26045E-04
  rms(prec ) = 0.34270E-04
  weight for this iteration     100.00

 eigenvalues of (default mixing * dielectric matrix)
  average eigenvalue GAMMA=   2.3656
  9.0557  6.9143  3.6966  3.6966  2.5453  2.2092  1.8574  1.8574  0.9062  0.9062
  1.2735  1.2735  1.2065  1.2065  1.0619  0.9705  0.9705  0.9728

 Free energy of the ion-electron system (eV)
  ---------------------------------------------------
  alpha Z        PSCENC =       170.45750602
  Ewald energy   TEWEN  =     11482.01533319
  -Hartree energ DENC   =    -17908.83384097
  -exchange      EXHF   =         0.00000000
  -V(xc)+E(xc)   XCENC  =        49.24042196
  PAW double counting   =      3823.12360258    -3536.86861042
  entropy T*S    EENTRO =         0.00000000
  eigenvalues    EBANDS =     -1434.87824007
  atomic energy  EATOM  =      7250.85976021
  Solvation  Ediel_sol  =         0.00000000
  ---------------------------------------------------
  free energy    TOTEN  =      -104.88406750 eV

  energy without entropy =     -104.88406750  energy(sigma->0) =     -104.88406750


--------------------------------------------------------------------------------------------------------




--------------------------------------- Iteration      1(  24)  ---------------------------------------


    POTLOK:  cpu time    0.0579: real time    0.0695
    SETDIJ:  cpu time    0.0015: real time    0.0015
     EDDAV:  cpu time    1.9899: real time    1.9946
 BZINTS: Fermi energy: -0.481871;144.000000 electrons
         Band energy:***********;  BLOECHL correction:  0.000000
       DOS:  cpu time    0.0022: real time    0.0022
    CHARGE:  cpu time    0.1440: real time    0.1443
    MIXING:  cpu time    0.0072: real time    0.0072
    --------------------------------------------
      LOOP:  cpu time    2.2026: real time    2.2193

 eigenvalue-minimisations  :  1904
 total energy-change (2. order) :-0.2648786E-05  (-0.2251087E-07)
 number of electron     144.0000001 magnetization 
 augmentation part      -17.6461396 magnetization 

 Broyden mixing:
  rms(total) = 0.16132E-04    rms(broyden)= 0.16132E-04
  rms(prec ) = 0.23433E-04
  weight for this iteration     100.00

 eigenvalues of (default mixing * dielectric matrix)
  average eigenvalue GAMMA=   2.3601
  9.0359  7.0016  3.8157  3.8157  2.6889  2.4547  2.1680  1.8198  0.9062  0.9062
  1.2685  1.2685  1.3517  1.2100  1.2100  0.9568  0.9568  1.0032  1.0032

 Free energy of the ion-electron system (eV)
  ---------------------------------------------------
  alpha Z        PSCENC =       170.45750602
  Ewald energy   TEWEN  =     11482.01533319
  -Hartree energ DENC   =    -17908.82752471
  -exchange      EXHF   =         0.00000000
  -V(xc)+E(xc)   XCENC  =        49.24033833
  PAW double counting   =      3823.12381670    -3536.86880908
  entropy T*S    EENTRO =         0.00000000
  eigenvalues    EBANDS =     -1434.88449082
  atomic energy  EATOM  =      7250.85976021
  Solvation  Ediel_sol  =         0.00000000
  ---------------------------------------------------
  free energy    TOTEN  =      -104.88407015 eV

  energy without entropy =     -104.88407015  energy(sigma->0) =     -104.88407015


--------------------------------------------------------------------------------------------------------




--------------------------------------- Iteration      1(  25)  ---------------------------------------


    POTLOK:  cpu time    0.0595: real time    0.0707
    SETDIJ:  cpu time    0.0016: real time    0.0016
     EDDAV:  cpu time    1.9359: real time    1.9405
 BZINTS: Fermi energy: -0.482263;144.000000 electrons
         Band energy:***********;  BLOECHL correction:  0.000000
       DOS:  cpu time    0.0020: real time    0.0020
    --------------------------------------------
      LOOP:  cpu time    1.9990: real time    2.0147

 eigenvalue-minimisations  :  1896
 total energy-change (2. order) :-0.8657107E-06  (-0.1433779E-07)
 number of electron     144.0000001 magnetization 
 augmentation part      -17.6461396 magnetization 

 Free energy of the ion-electron system (eV)
  ---------------------------------------------------
  alpha Z        PSCENC =       170.45750602
  Ewald energy   TEWEN  =     11482.01533319
  -Hartree energ DENC   =    -17908.82859554
  -exchange      EXHF   =         0.00000000
  -V(xc)+E(xc)   XCENC  =        49.24033115
  PAW double counting   =      3823.12260738    -3536.86759682
  entropy T*S    EENTRO =         0.00000000
  eigenvalues    EBANDS =     -1434.88341662
  atomic energy  EATOM  =      7250.85976021
  Solvation  Ediel_sol  =         0.00000000
  ---------------------------------------------------
[...]
     26     -13.7607      2.00000
     27     -13.3117      2.00000
     28     -13.3035      2.00000
     29     -13.2585      2.00000
     30     -13.2505      2.00000
     31     -13.2349      2.00000
     32     -13.2326      2.00000
     33     -10.9711      2.00000
     34     -10.9615      2.00000
     35     -10.6445      2.00000
     36     -10.6310      2.00000
     37      -6.3572      2.00000
     38      -6.3442      2.00000
     39      -6.1207      2.00000
     40      -6.1097      2.00000
     41      -6.0500      2.00000
     42      -6.0454      2.00000
     43      -5.8244      2.00000
     44      -5.8108      2.00000
     45      -5.7773      2.00000
     46      -5.7357      2.00000
     47      -5.7086      2.00000
     48      -5.5987      2.00000
     49      -2.7243      2.00000
     50      -2.6381      2.00000
     51      -2.4958      2.00000
     52      -2.4541      2.00000
     53      -2.1292      2.00000
     54      -2.0666      2.00000
     55      -2.0518      2.00000
     56      -2.0088      2.00000
     57      -1.8905      2.00000
     58      -1.8659      2.00000
     59      -1.7397      2.00000
     60      -1.6568      2.00000
     61      -1.6091      2.00000
     62      -1.5243      2.00000
     63      -1.4148      2.00000
     64      -1.3735      2.00000
     65      -1.2379      2.00000
     66      -1.1748      2.00000
     67      -1.1151      2.00000
     68      -0.9850      2.00000
     69      -0.8791      2.00000
     70      -0.8198      2.00000
     71      -0.7643      2.00000
     72      -0.7186      2.00000
     73       0.4473      0.00000
     74       0.4777      0.00000
     75       0.6073      0.00000
     76       0.6451      0.00000
     77       0.7229      0.00000
     78       0.8072      0.00000
     79       0.9528      0.00000
     80       0.9907      0.00000
     81       1.0263      0.00000
     82       1.1356      0.00000
     83       1.2817      0.00000
     84       1.3720      0.00000
     85       1.4295      0.00000
     86       1.5495      0.00000
     87       1.6594      0.00000
     88       1.7627      0.00000

 k-point    15 :       0.0000    0.5000    0.4000
  band No.  band energies     occupation 
      1     -29.4932      2.00000
      2     -29.4932      2.00000
      3     -28.5393      2.00000
      4     -28.5393      2.00000
      5     -28.5033      2.00000
      6     -28.5033      2.00000
      7     -27.9529      2.00000
      8     -27.9529      2.00000
      9     -14.8357      2.00000
     10     -14.8357      2.00000
     11     -14.7693      2.00000
     12     -14.7693      2.00000
     13     -14.6959      2.00000
     14     -14.6959      2.00000
     15     -13.9353      2.00000
     16     -13.9353      2.00000
     17     -13.8964      2.00000
     18     -13.8964      2.00000
     19     -13.8459      2.00000
     20     -13.8459      2.00000
     21     -13.7989      2.00000
     22     -13.7988      2.00000
     23     -13.7669      2.00000
     24     -13.7669      2.00000
     25     -13.7631      2.00000
     26     -13.7630      2.00000
     27     -13.3072      2.00000
     28     -13.3072      2.00000
     29     -13.2550      2.00000
     30     -13.2550      2.00000
     31     -13.2329      2.00000
     32     -13.2329      2.00000
     33     -10.9607      2.00000
     34     -10.9607      2.00000
     35     -10.6283      2.00000
     36     -10.6283      2.00000
     37      -6.3796      2.00000
     38      -6.3796      2.00000
     39      -6.0945      2.00000
     40      -6.0944      2.00000
     41      -6.0459      2.00000
     42      -6.0458      2.00000
     43      -5.7951      2.00000
     44      -5.7951      2.00000
     45      -5.7648      2.00000
     46      -5.7648      2.00000
     47      -5.6480      2.00000
     48      -5.6479      2.00000
     49      -2.6321      2.00000
     50      -2.6321      2.00000
     51      -2.4944      2.00000
     52      -2.4944      2.00000
     53      -2.0927      2.00000
     54      -2.0926      2.00000
     55      -2.0407      2.00000
     56      -2.0407      2.00000
     57      -1.8893      2.00000
     58      -1.8893      2.00000
     59      -1.6443      2.00000
     60      -1.6443      2.00000
     61      -1.4735      2.00000
     62      -1.4735      2.00000
     63      -1.4470      2.00000
     64      -1.4470      2.00000
     65      -1.2209      2.00000
     66      -1.2209      2.00000
     67      -1.0515      2.00000
     68      -1.0515      2.00000
     69      -0.8670      2.00000
     70      -0.8670      2.00000
     71      -0.7497      2.00000
     72      -0.7497      2.00000
     73       0.3708      0.00000
     74       0.3708      0.00000
     75       0.5992      0.00000
     76       0.5992      0.00000
     77       0.7729      0.00000
     78       0.7729      0.00000
     79       0.9198      0.00000
     80       0.9198      0.00000
     81       1.0026      0.00000
     82       1.0026      0.00000
     83       1.3468      0.00000
     84       1.3468      0.00000
     85       1.5281      0.00000
     86       1.5281      0.00000
     87       1.6187      0.00000
     88       1.6187      0.00000


--------------------------------------------------------------------------------------------------------


 soft charge-density along one line, spin component           1
         0         1         2         3         4         5         6         7         8         9
 total charge-density along one line
 
 pseudopotential strength for first ion, spin component:           1
  5.079  -5.591  -0.000  -0.008  -0.038  -0.000  -0.003  -0.015
 -5.591  -2.740   0.000   0.002   0.007  -0.000  -0.001  -0.006
 -0.000   0.000  -6.781  -0.000  -0.000   1.857  -0.000  -0.000
 -0.008   0.002  -0.000  -6.776  -0.002  -0.000   1.869  -0.004
 -0.038   0.007  -0.000  -0.002  -6.776  -0.000  -0.004   1.868
 -0.000  -0.000   1.857  -0.000  -0.000   7.309  -0.000  -0.000
 -0.003  -0.001  -0.000   1.869  -0.004  -0.000   7.311  -0.000
 -0.015  -0.006  -0.000  -0.004   1.868  -0.000  -0.000   7.311
 -0.000   0.000  -0.013  -0.000  -0.000  -0.009  -0.000  -0.000
 -0.000   0.000  -0.001  -0.000  -0.000  -0.000  -0.000  -0.000
  0.002  -0.001   0.000  -0.004   0.007   0.000  -0.003   0.005
 -0.002   0.001  -0.000  -0.013  -0.002  -0.000  -0.008  -0.002
  0.003  -0.001   0.000  -0.001  -0.012   0.000  -0.001  -0.008
  0.000   0.000   0.001   0.000   0.000   0.000   0.000   0.000
  0.000   0.000   0.000   0.000   0.000  -0.000   0.000   0.000
 -0.000  -0.000  -0.000   0.000  -0.000  -0.000   0.000  -0.000
  0.000   0.000   0.000   0.001   0.000   0.000   0.000   0.000
 -0.000  -0.000  -0.000   0.000   0.000  -0.000   0.000   0.000
 total augmentation occupancy for first ion, spin component:           1
  2.102  -0.257   0.000   0.012   0.055   0.000  -0.006  -0.020  -0.000   0.000   0.017  -0.011   0.034   0.000   0.000  -0.010
 -0.257   0.639   0.000  -0.033  -0.144   0.000   0.012   0.033   0.000   0.000  -0.029   0.013  -0.067   0.000   0.000   0.041
  0.000   0.000   2.012   0.000  -0.000  -0.012   0.000   0.000  -0.084   0.022   0.000   0.000   0.000   0.078  -0.042   0.000
  0.012  -0.033   0.000   2.000   0.003   0.000  -0.002  -0.002   0.000  -0.000  -0.045  -0.069  -0.014   0.000   0.000   0.043
  0.055  -0.144   0.000   0.003   1.995   0.000  -0.002  -0.000   0.000   0.000   0.035  -0.007  -0.052   0.000   0.000  -0.032
  0.000   0.000  -0.012   0.000  -0.000   0.008   0.000  -0.000   0.022  -0.009   0.000   0.000   0.000  -0.030   0.014   0.000
 -0.006   0.012   0.000  -0.002  -0.002   0.000   0.005   0.001   0.000   0.000   0.016   0.016   0.005  -0.000   0.000  -0.022
 -0.020   0.033  -0.000  -0.002  -0.000   0.000   0.001   0.004   0.000   0.000  -0.006   0.000   0.008   0.000   0.000   0.008
  0.000   0.000  -0.084   0.000   0.000   0.022   0.000   0.000   0.149  -0.014  -0.000   0.000   0.000  -0.187   0.019   0.000
  0.000   0.000   0.022   0.000   0.000  -0.009   0.000   0.000  -0.014   0.068  -0.000   0.000  -0.000   0.017  -0.084   0.000
  0.017  -0.029   0.000  -0.045   0.035  -0.000   0.016  -0.006   0.000   0.000   0.121   0.052   0.021  -0.000   0.000  -0.149
 -0.011   0.013   0.000  -0.069  -0.007   0.000   0.016   0.000   0.000  -0.000   0.052   0.087   0.008   0.000   0.000  -0.072
  0.034  -0.067   0.000  -0.014  -0.052   0.000   0.005   0.008  -0.000   0.000   0.021   0.008   0.096   0.000  -0.000  -0.028
  0.000   0.000   0.078   0.000   0.000  -0.030   0.000   0.000  -0.187   0.017   0.000   0.000  -0.000   0.263  -0.032   0.000
 -0.000   0.000  -0.042   0.000   0.000   0.014  -0.000   0.000   0.019  -0.084   0.000   0.000   0.000  -0.032   0.114   0.000
 -0.010   0.041   0.000   0.043  -0.032   0.000  -0.022   0.008  -0.000   0.000  -0.149  -0.072  -0.028   0.000   0.000   0.205
  0.008  -0.031   0.000   0.064   0.000   0.000  -0.023  -0.001   0.000   0.000  -0.070  -0.111  -0.011   0.000   0.000   0.107
 -0.027   0.081   0.000   0.022   0.050  -0.000  -0.008  -0.011   0.000   0.000  -0.029  -0.013  -0.126   0.000   0.000   0.045


------------------------ aborting loop because EDIFF is reached ----------------------------------------


    CHARGE:  cpu time    0.1274: real time    0.1277
    FORLOC:  cpu time    0.0091: real time    0.0091
    FORNL :  cpu time    0.4884: real time    0.4896
    STRESS:  cpu time    1.5469: real time    1.5507
    FORCOR:  cpu time    0.0679: real time    0.0680
    FORHAR:  cpu time    0.0222: real time    0.0222
    MIXING:  cpu time    0.0088: real time    0.0088
    OFIELD:  cpu time    0.0000: real time    0.0000

 ---------------------------------------------------------------------------------------------

         DFTD3 V3.0 Rev 1        
 IVDW         = 11
 DF pbe       
 parameters
 VDW_S6       =    1.0000
 VDW_S8       =    0.7220
 VDW_SR       =    1.2170
 rs18     =    1.0000
 alpha6   =   14.0000
 alpha8   =   16.0000
 k1-k3    =   16.0000    1.3333   -4.0000
 VDW_RADIUS   =   50.2022 A
 VDW_CNRADIUS =   21.1671 A
 Edisp (eV)   -2.29982

 E6    (eV) :    -0.8596
 E8    (eV) :    -1.4402
 % E8        : 62.62
    FORVDW:  cpu time    0.0383: real time    0.0586

  FORCE on cell =-STRESS in cart. coord.  units (eV):
  Direction    XX          YY          ZZ          XY          YZ          ZX
  --------------------------------------------------------------------------------------
  Alpha Z   170.45751   170.45751   170.45751
  Ewald  -19224.52644 15621.99730 15084.53112    -0.00002     0.00000   146.78676
  Hartree-16169.82915 17250.78373 16827.87454     0.00000    -0.00000   113.00406
  E(xc)    -461.79900  -459.84246  -460.28842    -0.00000    -0.00000     0.16451
  Local   33980.18486-34307.96422-33339.80441     0.00001    -0.00000  -258.13802
  n-local   338.77000   338.55397   340.05818     0.05979    -0.20425    -1.31544
  augment  -169.14642  -169.55171  -169.53027    -0.00000    -0.00000     0.26445
  Kinetic  1526.22226  1545.23029  1537.27118    -0.05402    -0.81054    -0.72030
  Fock        0.00000     0.00000     0.00000     0.00000     0.00000     0.00000
  vdW        -1.17584    -2.57803    -2.53566     0.00000    -0.00000     0.03444
  -------------------------------------------------------------------------------------
  Total     -10.84223   -12.91363   -11.96625     0.00000     0.00000     0.08047
  in kB      -9.20061   -10.95838   -10.15444     0.00000     0.00000     0.06829
  external pressure =      -10.10 kB  Pullay stress =        0.00 kB


 VOLUME and BASIS-vectors are now :
 -----------------------------------------------------------------------------
  energy-cutoff  :      500.00
  volume of cell :     1888.05
      direct lattice vectors                 reciprocal lattice vectors
    24.009468079  0.000000000  0.000000000     0.041650236  0.000000000  0.000000000
     0.000000000  6.777849674  0.000000000     0.000000000  0.147539419  0.000000000
     0.000000000  0.000000000 11.602143288     0.000000000  0.000000000  0.086190971

  length of vectors
    24.009468079  6.777849674 11.602143288     0.041650236  0.147539419  0.086190971


 FORCES acting on ions
    electron-ion (+dipol)            ewald-force                    non-local-force                 convergence-correction
 -----------------------------------------------------------------------------------------------
   0.772E+03 0.102E-04 0.446E+02   -.767E+03 0.987E-05 -.438E+02   -.430E+01 -.536E-18 -.815E+00   -.195E-03 -.113E-08 0.159E-04
   -.772E+03 -.630E-04 -.446E+02   0.767E+03 -.128E-04 0.438E+02   0.430E+01 -.540E-18 0.815E+00   0.195E-03 0.125E-08 -.159E-04
   0.855E+02 -.609E-04 -.393E+02   -.852E+02 -.180E-04 0.379E+02   0.163E-01 -.237E-19 0.132E+01   0.814E-04 0.190E-08 -.594E-04
   -.855E+02 0.110E-04 0.393E+02   0.852E+02 0.128E-04 -.379E+02   -.163E-01 0.201E-18 -.132E+01   -.814E-04 -.176E-08 0.593E-04
   0.620E+03 -.611E-04 -.483E+02   -.618E+03 -.165E-04 0.486E+02   -.186E+01 0.967E-18 -.360E+00   -.133E-03 0.154E-08 -.136E-03
   -.620E+03 0.902E-05 0.483E+02   0.618E+03 0.143E-04 -.486E+02   0.186E+01 -.149E-17 0.360E+00   0.133E-03 -.145E-08 0.136E-03
   0.357E+03 0.115E-04 -.127E+02   -.356E+03 0.131E-04 0.119E+02   -.627E+00 -.582E-18 0.805E+00   -.294E-04 -.169E-08 0.654E-04
   -.357E+03 -.621E-04 0.127E+02   0.356E+03 -.131E-04 -.119E+02   0.627E+00 -.301E-19 -.805E+00   0.294E-04 0.166E-08 -.654E-04
   0.272E+03 0.365E+02 -.467E+02   -.272E+03 -.380E+02 0.476E+02   -.494E-01 0.150E+01 -.853E+00   -.481E-05 0.867E-05 -.257E-04
   -.272E+03 -.365E+02 0.467E+02   0.272E+03 0.380E+02 -.476E+02   0.494E-01 -.150E+01 0.853E+00   0.481E-05 -.867E-05 0.257E-04
   0.119E+03 -.331E+02 0.283E+01   -.119E+03 0.343E+02 -.178E+01   -.186E+00 -.110E+01 -.106E+01   -.672E-04 -.367E-04 0.287E-05
   -.119E+03 0.331E+02 -.283E+01   0.119E+03 -.343E+02 0.178E+01   0.186E+00 0.110E+01 0.106E+01   0.672E-04 0.367E-04 -.287E-05
   -.272E+03 0.365E+02 0.467E+02   0.272E+03 -.380E+02 -.476E+02   0.494E-01 0.150E+01 0.853E+00   0.481E-05 0.867E-05 0.257E-04
   0.272E+03 -.365E+02 -.467E+02   -.272E+03 0.380E+02 0.476E+02   -.494E-01 -.150E+01 -.853E+00   -.481E-05 -.867E-05 -.257E-04
   -.119E+03 -.331E+02 -.283E+01   0.119E+03 0.343E+02 0.178E+01   0.186E+00 -.110E+01 0.106E+01   0.672E-04 -.367E-04 -.287E-05
   0.119E+03 0.331E+02 0.283E+01   -.119E+03 -.343E+02 -.178E+01   -.186E+00 0.110E+01 -.106E+01   -.672E-04 0.367E-04 0.287E-05
   0.327E+03 -.419E-05 0.460E+02   -.329E+03 -.605E-05 -.467E+02   0.140E+01 0.382E-18 0.666E+00   -.325E-04 0.478E-09 0.480E-04
   -.327E+03 0.615E-05 -.460E+02   0.329E+03 0.629E-05 0.467E+02   -.140E+01 -.409E-18 -.666E+00   0.325E-04 -.516E-09 -.480E-04
   0.328E+02 0.896E-05 -.107E+02   -.311E+02 0.749E-05 0.998E+01   -.151E+01 0.319E-18 0.735E+00   0.192E-05 -.713E-09 -.124E-04
   -.328E+02 -.224E-05 0.107E+02   0.311E+02 -.715E-05 -.998E+01   0.151E+01 0.295E-18 -.735E+00   -.192E-05 0.674E-09 0.124E-04
   0.238E+03 0.435E-05 0.134E+02   -.238E+03 0.805E-05 -.146E+02   -.210E+00 -.782E-18 0.110E+01   -.292E-04 -.620E-09 -.375E-04
   -.238E+03 -.548E-05 -.134E+02   0.238E+03 -.811E-05 0.146E+02   0.210E+00 0.142E-18 -.110E+01   0.292E-04 0.583E-09 0.375E-04
   0.154E+03 -.615E-05 0.590E+02   -.153E+03 -.741E-05 -.607E+02   -.629E+00 -.720E-17 0.172E+01   -.431E-04 0.630E-09 0.765E-04
   -.154E+03 0.372E-05 -.590E+02   0.153E+03 0.727E-05 0.607E+02   0.629E+00 -.996E-17 -.172E+01   0.431E-04 -.637E-09 -.765E-04
 -----------------------------------------------------------------------------------------------
   0.915E-04 -.211E-03 0.761E-04   0.227E-12 0.163E-13 -.213E-13   -.111E-15 -.239E-15 0.222E-15   -.330E-07 0.116E-09 -.456E-08
 
 
 POSITION                                       TOTAL-FORCE (eV/Angst)
 -----------------------------------------------------------------------------------
      0.13670      1.69446      8.16958         0.808329      0.000000      0.000724
      9.22277      5.08339      3.43256        -0.808329      0.000000     -0.000724
      4.36803      5.08339      2.15500         0.261441      0.000000     -0.000486
      4.99143      1.69446      9.44715        -0.261441     -0.000000      0.000486
      1.43529      5.08339     10.62465         0.657488      0.000000      0.000951
      7.92418      1.69446      0.97750        -0.657488     -0.000000     -0.000951
      3.06944      1.69446      4.58094         0.453098     -0.000000      0.000028
      6.29002      5.08339      7.02121        -0.453098     -0.000000     -0.000028
      1.75027      0.49404      1.64854        -0.112510     -0.000145      0.000165
      7.60920      6.28381      9.95360         0.112510      0.000145     -0.000165
      2.75446      6.29305      7.65367         0.210904      0.000054     -0.000063
      6.60500      0.48480      3.94847        -0.210904     -0.000054      0.000063
      7.60920      3.88297      9.95360         0.112510     -0.000145     -0.000165
      1.75027      2.89488      1.64854        -0.112510      0.000145      0.000165
      6.60500      2.90412      3.94847        -0.210904      0.000054      0.000063
      2.75446      3.87373      7.65367         0.210904     -0.000054     -0.000063
      0.74693      5.08339      6.96108        -0.212841      0.000000     -0.000232
      8.61254      1.69446      4.64106         0.212841     -0.000000      0.000232
      3.75780      1.69446      0.93494         0.221593     -0.000000      0.000223
      5.60166      5.08339     10.66720        -0.221593     -0.000000     -0.000223
      1.78112      1.69446     11.14060        -0.142113      0.000000      0.000073
      7.57835      5.08339      0.46154         0.142113      0.000000     -0.000073
      2.72362      5.08339      5.54061        -0.194238     -0.000000      0.000165
      6.63585      1.69446      6.06153         0.194238     -0.000000     -0.000165
 -----------------------------------------------------------------------------------
    total drift:                                0.000091     -0.000211      0.000076


--------------------------------------------------------------------------------------------------------



  FREE ENERGIE OF THE ION-ELECTRON SYSTEM (eV)
  ---------------------------------------------------
  free  energy   TOTEN  =      -107.18389097 eV

  energy  without entropy=     -107.18389097  energy(sigma->0) =     -107.18389097
 


--------------------------------------------------------------------------------------------------------


    POTLOK:  cpu time    0.0689: real time    0.0691


--------------------------------------------------------------------------------------------------------


 writing wavefunctions
     LOOP+:  cpu time   79.5248: real time   81.1675
    4ORBIT:  cpu time    0.0000: real time    0.0000
 BZINTS: Fermi energy: -0.482263;144.000000 electrons
         Band energy:***********;  BLOECHL correction:  0.000000

 total amount of memory used by VASP MPI-rank0    79353. kBytes
=======================================================================

   base      :      30000. kBytes
   nonlr-proj:       2647. kBytes
   fftplans  :       5898. kBytes
   grid      :       8824. kBytes
   one-center:         93. kBytes
   wavefun   :      31891. kBytes
 
  
  
 General timing and accounting informations for this job:
 ========================================================
  
                  Total CPU time used (sec):       87.844
                            User time (sec):       82.798
                          System time (sec):        5.046
                         Elapsed time (sec):       93.794
  
                   Maximum memory used (kb):      175704.
                   Average memory used (kb):           0.
  
                          Minor page faults:        70781
                          Major page faults:          199
                 Voluntary context switches:        14324
