 vasp.5.4.4.18Apr17-6-g9f103f2a35 (build Nov 21 2017 15:30:27) complex          
  
 executed on             LinuxIFC date 2020.09.13  23:54:07
 running on   64 total cores
 distrk:  each k-point on   32 cores,    2 groups
 distr:  one band on NCORES_PER_BAND=   4 cores,    8 groups


--------------------------------------------------------------------------------------------------------


 INCAR:
 POTCAR:   PAW_PBE Ba_sv 06Sep2000                
 POTCAR:   PAW_PBE Si 05Jan2001                   

 ----------------------------------------------------------------------------- 
|                                                                             |
|           W    W    AA    RRRRR   N    N  II  N    N   GGGG   !!!           |
|           W    W   A  A   R    R  NN   N  II  NN   N  G    G  !!!           |
|           W    W  A    A  R    R  N N  N  II  N N  N  G       !!!           |
|           W WW W  AAAAAA  RRRRR   N  N N  II  N  N N  G  GGG   !            |
|           WW  WW  A    A  R   R   N   NN  II  N   NN  G    G                |
|           W    W  A    A  R    R  N    N  II  N    N   GGGG   !!!           |
|                                                                             |
|      You have enabled k-point parallelism (KPAR>1).                         |
|      This developmental code was originally  written by Paul Kent at ORNL,  |
|      and carefully double checked in Vienna.                                |
|      GW as well as linear response parallelism added by Martijn Marsman     |
|      and Georg Kresse.                                                      |
|      Carefully verify results versus KPAR=1.                                |
|      Report problems to Paul Kent and Vienna.                               |
|                                                                             |
 ----------------------------------------------------------------------------- 

 POTCAR:   PAW_PBE Ba_sv 06Sep2000                
   VRHFIN =Ba: 5s5p6s                                                           
   LEXCH  = PE                                                                  
   EATOM  =   700.2255 eV,   51.4651 Ry                                         
                                                                                
   TITEL  = PAW_PBE Ba_sv 06Sep2000                                             
   LULTRA =        F    use ultrasoft PP ?                                      
   IUNSCR =        1    unscreen: 0-lin 1-nonlin 2-no                           
   RPACOR =    2.400    partial core radius                                     
   POMASS =  137.327; ZVAL   =   10.000    mass and valenz                      
   RCORE  =    2.800    outmost cutoff radius                                   
   RWIGS  =    3.740; RWIGS  =    1.979    wigner-seitz radius (au A)           
   ENMAX  =  187.210; ENMIN  =  140.408 eV                                      
   RCLOC  =    2.516    cutoff for local pot                                    
   LCOR   =        T    correct aug charges                                     
   LPAW   =        T    paw PP                                                  
   EAUG   =  351.165                                                            
   DEXC   =     .000                                                            
   RMAX   =    3.370    core radius for proj-oper                               
   RAUG   =    1.300    factor for augmentation sphere                          
   RDEP   =    2.976    radius for radial grids                                 
   QCUT   =   -3.709; QGAM   =    7.419    optimization parameters              
                                                                                
   Description                                                                  
     l     E      TYP  RCUT    TYP  RCUT                                        
     0   .000     23  2.800                                                     
     0   .000     23  2.800                                                     
     1   .000     23  2.700                                                     
     1  2.000     23  2.700                                                     
     2   .000     23  2.700                                                     
     2   .000     23  2.700                                                     
  local pseudopotential read in
  partial core-charges read in
  atomic valenz-charges read in
  non local Contribution for L=           0  read in
    real space projection operators read in
  non local Contribution for L=           0  read in
    real space projection operators read in
  non local Contribution for L=           1  read in
    real space projection operators read in
  non local Contribution for L=           1  read in
    real space projection operators read in
  non local Contribution for L=           2  read in
    real space projection operators read in
  non local Contribution for L=           2  read in
    real space projection operators read in
    PAW grid and wavefunctions read in
 
   number of l-projection  operators is LMAX  =           6
   number of lm-projection operators is LMMAX =          18
 
 POTCAR:   PAW_PBE Si 05Jan2001                   
   VRHFIN =Si: s2p2                                                             
   LEXCH  = PE                                                                  
   EATOM  =   103.0669 eV,    7.5752 Ry                                         
                                                                                
   TITEL  = PAW_PBE Si 05Jan2001                                                
   LULTRA =        F    use ultrasoft PP ?                                      
   IUNSCR =        1    unscreen: 0-lin 1-nonlin 2-no                           
   RPACOR =    1.500    partial core radius                                     
   POMASS =   28.085; ZVAL   =    4.000    mass and valenz                      
   RCORE  =    1.900    outmost cutoff radius                                   
   RWIGS  =    2.480; RWIGS  =    1.312    wigner-seitz radius (au A)           
   ENMAX  =  245.345; ENMIN  =  184.009 eV                                      
   ICORE  =        2    local potential                                         
   LCOR   =        T    correct aug charges                                     
   LPAW   =        T    paw PP                                                  
   EAUG   =  322.069                                                            
   DEXC   =    -.007                                                            
   RMAX   =    2.944    core radius for proj-oper                               
   RAUG   =    1.300    factor for augmentation sphere                          
   RDEP   =    1.993    radius for radial grids                                 
   QCUT   =   -4.246; QGAM   =    8.493    optimization parameters              
                                                                                
   Description                                                                  
     l     E      TYP  RCUT    TYP  RCUT                                        
     0   .000     23  1.900                                                     
     0   .000     23  1.900                                                     
     1   .000     23  1.900                                                     
     1   .000     23  1.900                                                     
     2   .000      7  1.900                                                     
  local pseudopotential read in
  partial core-charges read in
  atomic valenz-charges read in
  non local Contribution for L=           0  read in
    real space projection operators read in
  non local Contribution for L=           0  read in
    real space projection operators read in
  non local Contribution for L=           1  read in
    real space projection operators read in
  non local Contribution for L=           1  read in
    real space projection operators read in
    PAW grid and wavefunctions read in
 
   number of l-projection  operators is LMAX  =           4
   number of lm-projection operators is LMMAX =           8
 
 Optimization of the real space projectors (new method)

 maximal supplied QI-value         = 13.42
 optimisation between [QCUT,QGAM] = [ 11.40, 22.81] = [ 36.42,145.68] Ry 
 Optimized for a Real-space Cutoff    1.56 Angstroem

   l    n(q)    QCUT    max X(q) W(low)/X(q) W(high)/X(q)  e(spline) 
   0     11    11.404     7.198    0.14E-04    0.26E-04    0.99E-07
   0     11    11.404    15.603    0.29E-04    0.72E-04    0.44E-06
   1     10    11.404     3.746    0.20E-04    0.24E-04    0.43E-07
   1     10    11.404     4.362    0.22E-03    0.97E-04    0.22E-06
   2     10    11.404     5.782    0.83E-04    0.62E-05    0.27E-06
   2     10    11.404    65.505    0.42E-03    0.31E-04    0.12E-05
 Optimization of the real space projectors (new method)

 maximal supplied QI-value         = 19.84
 optimisation between [QCUT,QGAM] = [ 11.31, 22.82] = [ 35.82,145.81] Ry 
 Optimized for a Real-space Cutoff    1.16 Angstroem

   l    n(q)    QCUT    max X(q) W(low)/X(q) W(high)/X(q)  e(spline) 
   0      8    11.310     8.708    0.14E-04    0.11E-04    0.43E-08
   0      8    11.310   106.241    0.27E-03    0.30E-03    0.38E-07
   1      7    11.310     5.901    0.82E-05    0.48E-04    0.19E-07
   1      7    11.310    73.241    0.27E-03    0.27E-03    0.74E-07
 PAW_PBE Ba_sv 06Sep2000                :
 energy of atom  1       EATOM= -700.2255
 kinetic energy error for atom=    0.0005 (will be added to EATOM!!)
 PAW_PBE Si 05Jan2001                   :
 energy of atom  2       EATOM= -103.0669
 kinetic energy error for atom=    0.0006 (will be added to EATOM!!)
 
 
 POSCAR: ba8 si16                                
  positions in direct lattice
  velocities in cartesian coordinates
 exchange correlation table for  LEXCH =        8
   RHO(1)=    0.500       N(1)  =     2000
   RHO(2)=  100.500       N(2)  =     4000
 


--------------------------------------------------------------------------------------------------------


 ion  position               nearest neighbor table
   1  0.006  0.250  0.706-  21 3.41  16 3.45  11 3.45  17 3.66  17 3.66   5 4.39   5 4.39   7 4.63

   2  0.374  0.750  0.294-  22 3.41  12 3.45  15 3.45  18 3.66  18 3.66   6 4.39   6 4.39   8 4.63

   3  0.182  0.750  0.187-  20 3.30  22 3.44   9 3.45  14 3.45  12 3.45  15 3.45  19 3.64  19 3.64
                            23 3.74   5 4.28   7 4.37   7 4.37
   4  0.197  0.250  0.813-  19 3.30  21 3.44  13 3.45  10 3.45  16 3.45  11 3.45  20 3.64  20 3.64
                            24 3.74   6 4.28   8 4.37   8 4.37
   5  0.060  0.750  0.919-   9 3.43  14 3.43  21 3.45  21 3.45  11 3.50  16 3.50  17 3.76  20 3.92
                             3 4.28   1 4.39   1 4.39
   6  0.320  0.250  0.081-  13 3.43  10 3.43  22 3.45  22 3.45  15 3.50  12 3.50  18 3.76  19 3.92
                             4 4.28   2 4.39   2 4.39
   7  0.128  0.250  0.397-  14 3.43   9 3.43  23 3.53  23 3.53  15 3.56  12 3.56  24 3.62  19 3.69
                            16 3.76  11 3.76   3 4.37   3 4.37   1 4.63
   8  0.252  0.750  0.603-  10 3.43  13 3.43  24 3.53  24 3.53  11 3.56  16 3.56  23 3.62  20 3.69
                            12 3.76  15 3.76   4 4.37   4 4.37   2 4.63
   9  0.073  0.073  0.145-  14 2.40  21 2.43  19 2.44   7 3.43   5 3.43   3 3.45
  10  0.307  0.927  0.855-  13 2.40  22 2.43  20 2.44   8 3.43   6 3.43   4 3.45
  11  0.115  0.928  0.659-  16 2.41  23 2.43  17 2.44   4 3.45   1 3.45   5 3.50   8 3.56   7 3.76

  12  0.265  0.072  0.341-  15 2.41  24 2.43  18 2.44   3 3.45   2 3.45   6 3.50   7 3.56   8 3.76

  13  0.307  0.573  0.855-  10 2.40  22 2.43  20 2.44   8 3.43   6 3.43   4 3.45
  14  0.073  0.427  0.145-   9 2.40  21 2.43  19 2.44   7 3.43   5 3.43   3 3.45
  15  0.265  0.428  0.341-  12 2.41  24 2.43  18 2.44   3 3.45   2 3.45   6 3.50   7 3.56   8 3.76

  16  0.115  0.572  0.659-  11 2.41  23 2.43  17 2.44   4 3.45   1 3.45   5 3.50   8 3.56   7 3.76

  17  0.031  0.750  0.600-  23 2.44  11 2.44  16 2.44   1 3.66   1 3.66   5 3.76
  18  0.348  0.250  0.400-  24 2.44  15 2.44  12 2.44   2 3.66   2 3.66   6 3.76
  19  0.157  0.250  0.084-  21 2.43  14 2.44   9 2.44   4 3.30   3 3.64   3 3.64   7 3.69   6 3.92

  20  0.223  0.750  0.916-  22 2.43  10 2.44  13 2.44   3 3.30   4 3.64   4 3.64   8 3.69   5 3.92

  21  0.074  0.250  0.963-  14 2.43   9 2.43  19 2.43   1 3.41   4 3.44   5 3.45   5 3.45
  22  0.305  0.750  0.037-  10 2.43  13 2.43  20 2.43   2 3.41   3 3.44   6 3.45   6 3.45
  23  0.113  0.750  0.477-  11 2.43  16 2.43  17 2.44   7 3.53   7 3.53   8 3.62   3 3.74
  24  0.266  0.250  0.523-  15 2.43  12 2.43  18 2.44   8 3.53   8 3.53   7 3.62   4 3.74
 
  LATTYP: Found a simple orthorhombic cell.
 ALAT       =     6.7778496742
 B/A-ratio  =     1.7117734747
 C/A-ratio  =     3.5423429602
  
  Lattice vectors:
  
 A1 = (   0.0000000000,   6.7778496742,   0.0000000000)
 A2 = (   0.0000000000,   0.0000000000, -11.6021432877)
 A3 = ( -24.0094680786,   0.0000000000,   0.0000000000)


Analysis of symmetry for initial positions (statically):
=====================================================================
 Subroutine PRICEL returns:
 Original cell was already a primitive cell.
 

 Routine SETGRP: Setting up the symmetry group for a 
 simple orthorhombic supercell.


 Subroutine GETGRP returns: Found  4 space group operations
 (whereof  1 operations were pure point group operations)
 out of a pool of  8 trial point group operations.


The static configuration has the point symmetry C_1 .
 The point group associated with its full space group is C_2h.


Analysis of symmetry for dynamics (positions and initial velocities):
=====================================================================
 Subroutine PRICEL returns:
 Original cell was already a primitive cell.
 

 Routine SETGRP: Setting up the symmetry group for a 
 simple orthorhombic supercell.


 Subroutine GETGRP returns: Found  4 space group operations
 (whereof  1 operations were pure point group operations)
 out of a pool of  8 trial point group operations.


The dynamic configuration has the point symmetry C_1 .
 The point group associated with its full space group is C_2h.


Analysis of constrained symmetry for selective dynamics:
=====================================================================
 Subroutine PRICEL returns:
 Original cell was already a primitive cell.
 

 Routine SETGRP: Setting up the symmetry group for a 
 simple orthorhombic supercell.


 Subroutine GETGRP returns: Found  4 space group operations
 (whereof  1 operations were pure point group operations)
 out of a pool of  8 trial point group operations.


The constrained configuration has the point symmetry C_1 .
 The point group associated with its full space group is C_2h.


 Subroutine INISYM returns: Found  4 space group operations
 (whereof  1 operations are pure point group operations),
 and found     1 'primitive' translations

 
 
 KPOINTS: k-density: 8.0                          

Automatic generation of k-mesh.
Space group operators:
 irot       det(A)        alpha          n_x          n_y          n_z        tau_x        tau_y        tau_z
    1     1.000000     0.000000     1.000000     0.000000     0.000000     0.000000     0.000000     0.000000
    2    -1.000000     0.000000     1.000000     0.000000     0.000000    -0.620589     0.000000     0.000000
    3     1.000000   180.000000     0.000000     1.000000     0.000000    -0.620589     0.500000     0.000000
    4    -1.000000   180.000000     0.000000     1.000000     0.000000     0.000000     0.500000     0.000000
 
 Subroutine IBZKPT returns following result:
 ===========================================
 
 Found     15 irreducible k-points:
 
 Following reciprocal coordinates:
            Coordinates               Weight
  0.000000  0.000000  0.000000      1.000000
  0.000000  0.125000  0.000000      2.000000
  0.000000  0.250000  0.000000      2.000000
  0.000000  0.375000  0.000000      2.000000
  0.000000  0.500000  0.000000      1.000000
  0.000000  0.000000  0.200000      2.000000
  0.000000  0.125000  0.200000      4.000000
  0.000000  0.250000  0.200000      4.000000
  0.000000  0.375000  0.200000      4.000000
  0.000000  0.500000  0.200000      2.000000
  0.000000  0.000000  0.400000      2.000000
  0.000000  0.125000  0.400000      4.000000
  0.000000  0.250000  0.400000      4.000000
  0.000000  0.375000  0.400000      4.000000
  0.000000  0.500000  0.400000      2.000000
 
 Following cartesian coordinates:
            Coordinates               Weight
  0.000000  0.000000  0.000000      1.000000
  0.000000  0.018442  0.000000      2.000000
  0.000000  0.036885  0.000000      2.000000
  0.000000  0.055327  0.000000      2.000000
  0.000000  0.073770  0.000000      1.000000
  0.000000  0.000000  0.017238      2.000000
  0.000000  0.018442  0.017238      4.000000
  0.000000  0.036885  0.017238      4.000000
  0.000000  0.055327  0.017238      4.000000
  0.000000  0.073770  0.017238      2.000000
  0.000000  0.000000  0.034476      2.000000
  0.000000  0.018442  0.034476      4.000000
  0.000000  0.036885  0.034476      4.000000
  0.000000  0.055327  0.034476      4.000000
  0.000000  0.073770  0.034476      2.000000
 
 TETIRR: Found    108 inequivalent tetrahedra from      240


--------------------------------------------------------------------------------------------------------




 Dimension of arrays:
   k-points           NKPTS =     15   k-points in BZ     NKDIM =     15   number of bands    NBANDS=     88
   number of dos      NEDOS =    301   number of ions     NIONS =     24
   non local maximal  LDIM  =      6   non local SUM 2l+1 LMDIM =     18
   total plane-waves  NPLWV = 358400
   max r-space proj   IRMAX =   3093   max aug-charges    IRDMAX=  12081
   dimension x,y,z NGX =   140 NGY =   40 NGZ =   64
   dimension x,y,z NGXF=   280 NGYF=   80 NGZF=  128
   support grid    NGXF=   280 NGYF=   80 NGZF=  128
   ions per type =               8  16
   NGX,Y,Z   is equivalent  to a cutoff of   9.69,  9.81,  9.17 a.u.
   NGXF,Y,Z  is equivalent  to a cutoff of  19.39, 19.62, 18.34 a.u.

 SYSTEM =  unknown system                          
 POSCAR =  ba8 si16                                

 Startparameter for this run:
   NWRITE =      2    write-flag & timer
   PREC   = normal    normal or accurate (medium, high low for compatibility)
   ISTART =      0    job   : 0-new  1-cont  2-samecut
   ICHARG =      2    charge: 1-file 2-atom 10-const
   ISPIN  =      1    spin polarized calculation?
   LNONCOLLINEAR =      F non collinear calculations
   LSORBIT =      F    spin-orbit coupling
   INIWAV =      1    electr: 0-lowe 1-rand  2-diag
   LASPH  =      F    aspherical Exc in radial PAW
   METAGGA=      F    non-selfconsistent MetaGGA calc.

 Electronic Relaxation 1
   ENCUT  =  500.0 eV  36.75 Ry    6.06 a.u.  43.77 12.36 21.15*2*pi/ulx,y,z
   ENINI  =  500.0     initial cutoff
   ENAUG  =  351.2 eV  augmentation charge cutoff
   NELM   =    100;   NELMIN=  2; NELMDL= -5     # of ELM steps 
   EDIFF  = 0.1E-05   stopping-criterion for ELM
   LREAL  =      T    real-space projection
   NLSPLINE    = F    spline interpolate recip. space projectors
   LCOMPAT=      F    compatible to vasp.4.4
   GGA_COMPAT  = T    GGA compatible to vasp.4.4-vasp.4.6
   LMAXPAW     = -100 max onsite density
   LMAXMIX     =    2 max onsite mixed and CHGCAR
   VOSKOWN=      0    Vosko Wilk Nusair interpolation
   ROPT   =   -0.00050  -0.00050
 Ionic relaxation
   EDIFFG = -.1E-02   stopping-criterion for IOM
   NSW    =      0    number of steps for IOM
   NBLOCK =      1;   KBLOCK =      1    inner block; outer block 
   IBRION =     -1    ionic relax: 0-MD 1-quasi-New 2-CG
   NFREE  =      0    steps in history (QN), initial steepest desc. (CG)
   ISIF   =      2    stress and relaxation
   IWAVPR =     10    prediction:  0-non 1-charg 2-wave 3-comb
   ISYM   =      2    0-nonsym 1-usesym 2-fastsym
   LCORR  =      T    Harris-Foulkes like correction to forces

   POTIM  = 0.3000    time-step for ionic-motion
   TEIN   =    0.0    initial temperature
   TEBEG  =    0.0;   TEEND  =   0.0 temperature during run
   SMASS  =  -3.00    Nose mass-parameter (am)
   estimated Nose-frequenzy (Omega)   =  0.10E-29 period in steps =****** mass=  -0.132E-25a.u.
   SCALEE = 1.0000    scale energy and forces
   NPACO  =    256;   APACO  = 16.0  distance and # of slots for P.C.
   PSTRESS=    0.0 pullay stress

  Mass of Ions in am
   POMASS = 137.33 28.09
  Ionic Valenz
   ZVAL   =  10.00  4.00
  Atomic Wigner-Seitz radii
   RWIGS  =  -1.00 -1.00
  virtual crystal weights 
   VCA    =   1.00  1.00
   NELECT =     144.0000    total number of electrons
   NUPDOWN=      -1.0000    fix difference up-down

 DOS related values:
   EMIN   =  10.00;   EMAX   =-10.00  energy-range for DOS
   EFERMI =   0.00
   ISMEAR =    -5;   SIGMA  =   0.01  broadening in eV -4-tet -1-fermi 0-gaus

 Electronic relaxation 2 (details)
   IALGO  =     38    algorithm
   LDIAG  =      T    sub-space diagonalisation (order eigenvalues)
   LSUBROT=      F    optimize rotation matrix (better conditioning)
   TURBO    =      0    0=normal 1=particle mesh
   IRESTART =      0    0=no restart 2=restart with 2 vectors
   NREBOOT  =      0    no. of reboots
   NMIN     =      0    reboot dimension
   EREF     =   0.00    reference energy to select bands
   IMIX   =      4    mixing-type and parameters
     AMIX     =   0.40;   BMIX     =  1.00
     AMIX_MAG =   1.60;   BMIX_MAG =  1.00
     AMIN     =   0.10
     WC   =   100.;   INIMIX=   1;  MIXPRE=   1;  MAXMIX= -45

 Intra band minimization:
   WEIMIN = 0.0000     energy-eigenvalue tresh-hold
   EBREAK =  0.28E-08  absolut break condition
   DEPER  =   0.30     relativ break condition  

   TIME   =   0.40     timestep for ELM

  volume/ion in A,a.u.               =      78.67       530.88
  Fermi-wavevector in a.u.,A,eV,Ry     =   0.694264  1.311969  6.558046  0.482003
  Thomas-Fermi vector in A             =   1.776709
 
 Write flags
   LWAVE        =      T    write WAVECAR
   LDOWNSAMPLE  =      F    k-point downsampling of WAVECAR
   LCHARG       =      T    write CHGCAR
   LVTOT        =      F    write LOCPOT, total local potential
   LVHAR        =      F    write LOCPOT, Hartree potential only
   LELF         =      F    write electronic localiz. function (ELF)
   LORBIT       =      0    0 simple, 1 ext, 2 COOP (PROOUT), +10 PAW based schemes


 Dipole corrections
   LMONO  =      F    monopole corrections only (constant potential shift)
   LDIPOL =      F    correct potential (dipole corrections)
   IDIPOL =      0    1-x, 2-y, 3-z, 4-all directions 
   EPSILON=  1.0000000 bulk dielectric constant

 Exchange correlation treatment:
   GGA     =    --    GGA type
   LEXCH   =     8    internal setting for exchange type
   VOSKOWN=      0    Vosko Wilk Nusair interpolation
   LHFCALC =     F    Hartree Fock is set to
   LHFONE  =     F    Hartree Fock one center treatment
   AEXX    =    0.0000 exact exchange contribution

 Linear response parameters
   LEPSILON=     F    determine dielectric tensor
   LRPA    =     F    only Hartree local field effects (RPA)
   LNABLA  =     F    use nabla operator in PAW spheres
   LVEL    =     F    velocity operator in full k-point grid
   LINTERFAST=   F  fast interpolation
   KINTER  =     0    interpolate to denser k-point grid
   CSHIFT  =0.1000    complex shift for real part using Kramers Kronig
   OMEGAMAX=  -1.0    maximum frequency
   DEG_THRESHOLD= 0.2000000E-02 threshold for treating states as degnerate
   RTIME   =   -0.100 relaxation time in fs
  (WPLASMAI=    0.000 imaginary part of plasma frequency in eV, 0.658/RTIME)
   DFIELD  = 0.0000000 0.0000000 0.0000000 field for delta impulse in time
 
 Orbital magnetization related:
   ORBITALMAG=     F  switch on orbital magnetization
   LCHIMAG   =     F  perturbation theory with respect to B field
   DQ        =  0.001000  dq finite difference perturbation B field
   LLRAUG    =     F  two centre corrections for induced B field



--------------------------------------------------------------------------------------------------------


 Static calculation
 charge density and potential will be updated during run
 non-spin polarized calculation
 Variant of blocked Davidson
 Davidson routine will perform the subspace rotation
 perform sub-space diagonalisation
    after iterative eigenvector-optimisation
 modified Broyden-mixing scheme, WC =      100.0
 initial mixing is a Kerker type mixing with AMIX =  0.4000 and BMIX =      1.0000
 Hartree-type preconditioning will be used
 using additional bands           16
 real space projection scheme for non local part
 use partial core corrections
 calculate Harris-corrections to forces 
   (improved forces if not selfconsistent)
 use gradient corrections 
 use of overlap-Matrix (Vanderbilt PP)
 Fermi weights with tetrahedron method with Bloechl corrections


--------------------------------------------------------------------------------------------------------


  energy-cutoff  :      500.00
  volume of cell :     1888.05
      direct lattice vectors                 reciprocal lattice vectors
    24.009468079  0.000000000  0.000000000     0.041650236  0.000000000  0.000000000
     0.000000000  6.777849674  0.000000000     0.000000000  0.147539419  0.000000000
     0.000000000  0.000000000 11.602143288     0.000000000  0.000000000  0.086190971

  length of vectors
    24.009468079  6.777849674 11.602143288     0.041650236  0.147539419  0.086190971


 
 k-points in units of 2pi/SCALE and weight: k-density: 8.0                          
   0.00000000  0.00000000  0.00000000       0.025
   0.00000000  0.01844243  0.00000000       0.050
   0.00000000  0.03688485  0.00000000       0.050
   0.00000000  0.05532728  0.00000000       0.050
   0.00000000  0.07376971  0.00000000       0.025
   0.00000000  0.00000000  0.01723819       0.050
   0.00000000  0.01844243  0.01723819       0.100
   0.00000000  0.03688485  0.01723819       0.100
   0.00000000  0.05532728  0.01723819       0.100
   0.00000000  0.07376971  0.01723819       0.050
   0.00000000  0.00000000  0.03447639       0.050
   0.00000000  0.01844243  0.03447639       0.100
   0.00000000  0.03688485  0.03447639       0.100
   0.00000000  0.05532728  0.03447639       0.100
   0.00000000  0.07376971  0.03447639       0.050
 
 k-points in reciprocal lattice and weights: k-density: 8.0                          
   0.00000000  0.00000000  0.00000000       0.025
   0.00000000  0.12500000  0.00000000       0.050
   0.00000000  0.25000000  0.00000000       0.050
   0.00000000  0.37500000  0.00000000       0.050
   0.00000000  0.50000000  0.00000000       0.025
   0.00000000  0.00000000  0.20000000       0.050
   0.00000000  0.12500000  0.20000000       0.100
   0.00000000  0.25000000  0.20000000       0.100
   0.00000000  0.37500000  0.20000000       0.100
   0.00000000  0.50000000  0.20000000       0.050
   0.00000000  0.00000000  0.40000000       0.050
   0.00000000  0.12500000  0.40000000       0.100
   0.00000000  0.25000000  0.40000000       0.100
   0.00000000  0.37500000  0.40000000       0.100
   0.00000000  0.50000000  0.40000000       0.050
 
 position of ions in fractional coordinates (direct lattice) 
   0.00569361  0.25000000  0.70599535
   0.37371788  0.75000002  0.29400465
   0.18192962  0.75000002  0.18718462
   0.19748187  0.25000000  0.81281536
   0.05978014  0.75000002  0.91863128
   0.31963135  0.25000000  0.08136870
   0.12784309  0.25000000  0.39690189
   0.25156840  0.75000002  0.60309815
   0.07289913  0.07288370  0.14474660
   0.30651236  0.92711629  0.85525338
   0.11472410  0.92789297  0.65896669
   0.26468739  0.07210702  0.34103331
   0.30651236  0.57288371  0.85525338
   0.07289913  0.42711629  0.14474660
   0.26468739  0.42789297  0.34103331
   0.11472410  0.57210703  0.65896669
   0.03110981  0.75000002  0.59975040
   0.34830168  0.25000000  0.40024960
   0.15651343  0.25000000  0.08438396
   0.22289807  0.75000002  0.91561602
   0.07418398  0.25000000  0.96314584
   0.30522751  0.75000002  0.03685418
   0.11343925  0.75000002  0.47715190
   0.26597224  0.25000000  0.52284801
 
 position of ions in cartesian coordinates  (Angst):
   0.13670066  1.69446242  8.19105927
   8.97276745  5.08338737  3.41108402
   4.36803341  5.08338737  2.17174276
   4.74143467  1.69446242  9.43040029
   1.43528938  5.08338737 10.65809175
   7.67417870  1.69446242  0.94405130
   3.06944466  1.69446242  4.60491256
   6.04002342  5.08338737  6.99723120
   1.75026941  0.49399474  1.67937084
   7.35919867  6.28385487  9.92277221
   2.75446463  6.28911906  7.64542593
   6.35500345  0.48873056  3.95671736
   7.35919867  3.88291964  9.92277221
   1.75026941  2.89493004  1.67937084
   6.35500345  2.90019422  3.95671736
   2.75446463  3.87765545  7.64542593
   0.74692994  5.08338737  6.95839008
   8.36253796  1.69446242  4.64375321
   3.75780416  1.69446242  0.97903481
   5.35166416  5.08338737 10.62310824
   1.78111780  1.69446242 11.17455599
   7.32835016  5.08338737  0.42758748
   2.72361612  5.08338737  5.53598477
   6.38585195  1.69446242  6.06615756
 


--------------------------------------------------------------------------------------------------------


 k-point  1 :   0.0000 0.0000 0.0000  plane waves:   47989
 k-point  2 :   0.0000 0.1250 0.0000  plane waves:   47929
 k-point  3 :   0.0000 0.2500 0.0000  plane waves:   47901
 k-point  4 :   0.0000 0.3750 0.0000  plane waves:   47910
 k-point  5 :   0.0000 0.5000 0.0000  plane waves:   47868
 k-point  6 :   0.0000 0.0000 0.2000  plane waves:   48006
 k-point  7 :   0.0000 0.1250 0.2000  plane waves:   47967
 k-point  8 :   0.0000 0.2500 0.2000  plane waves:   47907
 k-point  9 :   0.0000 0.3750 0.2000  plane waves:   47884
 k-point 10 :   0.0000 0.5000 0.2000  plane waves:   47884
 k-point 11 :   0.0000 0.0000 0.4000  plane waves:   47922
 k-point 12 :   0.0000 0.1250 0.4000  plane waves:   47954
 k-point 13 :   0.0000 0.2500 0.4000  plane waves:   47967
 k-point 14 :   0.0000 0.3750 0.4000  plane waves:   47928
 k-point 15 :   0.0000 0.5000 0.4000  plane waves:   47890

 maximum and minimum number of plane-waves per node :     12077    11868

 maximum number of plane-waves:     48006
 maximum index in each direction: 
   IXMAX=   43   IYMAX=   12   IZMAX=   21
   IXMIN=  -43   IYMIN=  -12   IZMIN=  -21


 real space projection operators:
  total allocation   :       4537.16 KBytes
  max/ min on nodes  :       1136.44       1132.58


 parallel 3D FFT for wavefunctions:
    minimum data exchange during FFTs selected (reduces bandwidth)
 parallel 3D FFT for charge:
    minimum data exchange during FFTs selected (reduces bandwidth)


 total amount of memory used by VASP MPI-rank0    79350. kBytes
=======================================================================

   base      :      30000. kBytes
   nonlr-proj:       2644. kBytes
   fftplans  :       5898. kBytes
   grid      :       8824. kBytes
   one-center:         93. kBytes
   wavefun   :      31891. kBytes
 
     INWAV:  cpu time    0.0000: real time    0.0000
 Broyden mixing: mesh for mixing (old mesh)
   NGX = 87   NGY = 25   NGZ = 43
  (NGX  =280   NGY  = 80   NGZ  =128)
  gives a total of  93525 points

 initial charge density was supplied:
 charge density of overlapping atoms calculated
 number of electron     144.0000000 magnetization 
 keeping initial charge density in first step


--------------------------------------------------------------------------------------------------------


 Maximum index for non-local projection operator          747
 Maximum index for augmentation-charges          600 (set IRDMAX)


--------------------------------------------------------------------------------------------------------


 First call to EWALD:  gamma=   0.143
 Maximum number of real-space cells 2x 5x 3
 Maximum number of reciprocal cells 5x 2x 3

    FEWALD:  cpu time    0.0052: real time    0.0053


--------------------------------------- Iteration      1(   1)  ---------------------------------------


    POTLOK:  cpu time    0.0730: real time    0.1257
    SETDIJ:  cpu time    0.0030: real time    0.0033
     EDDAV:  cpu time    3.0717: real time    3.1083
 BZINTS: Fermi energy:  7.084349;144.000000 electrons
         Band energy:-463.320596;  BLOECHL correction: -0.026261
       DOS:  cpu time    0.0125: real time    0.0127
    --------------------------------------------
      LOOP:  cpu time    3.1602: real time    3.2501

 eigenvalue-minimisations  :  2768
 total energy-change (2. order) : 0.1193284E+04  (-0.4787553E+04)
 number of electron     144.0000000 magnetization 
 augmentation part      144.0000000 magnetization 

 Free energy of the ion-electron system (eV)
  ---------------------------------------------------
  alpha Z        PSCENC =       170.45750602
  Ewald energy   TEWEN  =     12323.67135226
  -Hartree energ DENC   =    -18432.89544140
  -exchange      EXHF   =         0.00000000
  -V(xc)+E(xc)   XCENC  =        42.85200809
  PAW double counting   =      3692.15173346    -3390.49189382
  entropy T*S    EENTRO =         0.00000000
  eigenvalues    EBANDS =      -463.32059620
  atomic energy  EATOM  =      7250.85976021
  Solvation  Ediel_sol  =         0.00000000
  ---------------------------------------------------
  free energy    TOTEN  =      1193.28442860 eV

  energy without entropy =     1193.28442860  energy(sigma->0) =     1193.28442860


--------------------------------------------------------------------------------------------------------




--------------------------------------- Iteration      1(   2)  ---------------------------------------


     EDDAV:  cpu time    3.6128: real time    3.6312
 BZINTS: Fermi energy: -1.974076;144.000000 electrons
         Band energy:***********;  BLOECHL correction:  0.000000
       DOS:  cpu time    0.0024: real time    0.0024
    --------------------------------------------
      LOOP:  cpu time    3.6152: real time    3.6335

 eigenvalue-minimisations  :  3800
 total energy-change (2. order) :-0.1130956E+04  (-0.1101598E+04)
 number of electron     144.0000000 magnetization 
 augmentation part      144.0000000 magnetization 

 Free energy of the ion-electron system (eV)
  ---------------------------------------------------
  alpha Z        PSCENC =       170.45750602
  Ewald energy   TEWEN  =     12323.67135226
  -Hartree energ DENC   =    -18432.89544140
  -exchange      EXHF   =         0.00000000
  -V(xc)+E(xc)   XCENC  =        42.85200809
  PAW double counting   =      3692.15173346    -3390.49189382
  entropy T*S    EENTRO =         0.00000000
  eigenvalues    EBANDS =     -1594.27641019
  atomic energy  EATOM  =      7250.85976021
  Solvation  Ediel_sol  =         0.00000000
  ---------------------------------------------------
  free energy    TOTEN  =        62.32861462 eV

  energy without entropy =       62.32861462  energy(sigma->0) =       62.32861462


--------------------------------------------------------------------------------------------------------




--------------------------------------- Iteration      1(   3)  ---------------------------------------


     EDDAV:  cpu time    3.0325: real time    3.0557
 BZINTS: Fermi energy: -3.324388;144.000000 electrons
         Band energy:***********;  BLOECHL correction:  0.000000
       DOS:  cpu time    0.0024: real time    0.0024
    --------------------------------------------
      LOOP:  cpu time    3.0349: real time    3.0581

 eigenvalue-minimisations  :  3224
 total energy-change (2. order) :-0.1714092E+03  (-0.1707093E+03)
 number of electron     144.0000000 magnetization 
 augmentation part      144.0000000 magnetization 

 Free energy of the ion-electron system (eV)
  ---------------------------------------------------
  alpha Z        PSCENC =       170.45750602
  Ewald energy   TEWEN  =     12323.67135226
  -Hartree energ DENC   =    -18432.89544140
  -exchange      EXHF   =         0.00000000
  -V(xc)+E(xc)   XCENC  =        42.85200809
  PAW double counting   =      3692.15173346    -3390.49189382
  entropy T*S    EENTRO =         0.00000000
  eigenvalues    EBANDS =     -1765.68561753
  atomic energy  EATOM  =      7250.85976021
  Solvation  Ediel_sol  =         0.00000000
  ---------------------------------------------------
  free energy    TOTEN  =      -109.08059272 eV

  energy without entropy =     -109.08059272  energy(sigma->0) =     -109.08059272


--------------------------------------------------------------------------------------------------------




--------------------------------------- Iteration      1(   4)  ---------------------------------------


     EDDAV:  cpu time    3.6036: real time    3.6216
 BZINTS: Fermi energy: -3.421459;144.000000 electrons
         Band energy:***********;  BLOECHL correction:  0.000000
       DOS:  cpu time    0.0022: real time    0.0022
    --------------------------------------------
      LOOP:  cpu time    3.6058: real time    3.6238

 eigenvalue-minimisations  :  3736
 total energy-change (2. order) :-0.6001243E+01  (-0.5985081E+01)
 number of electron     144.0000000 magnetization 
 augmentation part      144.0000000 magnetization 

 Free energy of the ion-electron system (eV)
  ---------------------------------------------------
  alpha Z        PSCENC =       170.45750602
  Ewald energy   TEWEN  =     12323.67135226
  -Hartree energ DENC   =    -18432.89544140
  -exchange      EXHF   =         0.00000000
  -V(xc)+E(xc)   XCENC  =        42.85200809
  PAW double counting   =      3692.15173346    -3390.49189382
  entropy T*S    EENTRO =         0.00000000
  eigenvalues    EBANDS =     -1771.68686062
  atomic energy  EATOM  =      7250.85976021
  Solvation  Ediel_sol  =         0.00000000
  ---------------------------------------------------
  free energy    TOTEN  =      -115.08183581 eV

  energy without entropy =     -115.08183581  energy(sigma->0) =     -115.08183581


--------------------------------------------------------------------------------------------------------




--------------------------------------- Iteration      1(   5)  ---------------------------------------


     EDDAV:  cpu time    3.8449: real time    3.8639
 BZINTS: Fermi energy: -3.405183;144.000000 electrons
         Band energy:***********;  BLOECHL correction:  0.000000
       DOS:  cpu time    0.0020: real time    0.0020
    CHARGE:  cpu time    0.1859: real time    0.1863
    MIXING:  cpu time    0.0053: real time    0.0055
    --------------------------------------------
      LOOP:  cpu time    4.0382: real time    4.0578

 eigenvalue-minimisations  :  4192
 total energy-change (2. order) :-0.2866494E+00  (-0.2865623E+00)
 number of electron     144.0000004 magnetization 
 augmentation part      -17.5638881 magnetization 

 Broyden mixing:
  rms(total) = 0.90990E+00    rms(broyden)= 0.90989E+00
  rms(prec ) = 0.11955E+01
  weight for this iteration     100.00

 Free energy of the ion-electron system (eV)
  ---------------------------------------------------
  alpha Z        PSCENC =       170.45750602
  Ewald energy   TEWEN  =     12323.67135226
  -Hartree energ DENC   =    -18432.89544140
  -exchange      EXHF   =         0.00000000
  -V(xc)+E(xc)   XCENC  =        42.85200809
  PAW double counting   =      3692.15173346    -3390.49189382
  entropy T*S    EENTRO =         0.00000000
  eigenvalues    EBANDS =     -1771.97351006
  atomic energy  EATOM  =      7250.85976021
  Solvation  Ediel_sol  =         0.00000000
  ---------------------------------------------------
  free energy    TOTEN  =      -115.36848526 eV

  energy without entropy =     -115.36848526  energy(sigma->0) =     -115.36848526


--------------------------------------------------------------------------------------------------------




--------------------------------------- Iteration      1(   6)  ---------------------------------------


    POTLOK:  cpu time    0.0580: real time    0.0692
    SETDIJ:  cpu time    0.0021: real time    0.0021
     EDDAV:  cpu time    3.1693: real time    3.1768
 BZINTS: Fermi energy: -2.211964;144.000000 electrons
         Band energy:***********;  BLOECHL correction:  0.000000
       DOS:  cpu time    0.0028: real time    0.0028
    CHARGE:  cpu time    0.1924: real time    0.1928
    MIXING:  cpu time    0.0101: real time    0.0102
    --------------------------------------------
      LOOP:  cpu time    3.4347: real time    3.4540

 eigenvalue-minimisations  :  2992
 total energy-change (2. order) : 0.8283243E+01  (-0.2041286E+01)
 number of electron     144.0000003 magnetization 
 augmentation part      -17.4595526 magnetization 

 Broyden mixing:
  rms(total) = 0.46318E+00    rms(broyden)= 0.46318E+00
  rms(prec ) = 0.58680E+00
  weight for this iteration     100.00

 eigenvalues of (default mixing * dielectric matrix)
  average eigenvalue GAMMA=   1.5352
  1.5352

 Free energy of the ion-electron system (eV)
  ---------------------------------------------------
  alpha Z        PSCENC =       170.45750602
  Ewald energy   TEWEN  =     12323.67135226
  -Hartree energ DENC   =    -18531.71071654
  -exchange      EXHF   =         0.00000000
  -V(xc)+E(xc)   XCENC  =        45.58224160
  PAW double counting   =      3731.02136425    -3436.52819974
  entropy T*S    EENTRO =         0.00000000
  eigenvalues    EBANDS =     -1660.43855061
  atomic energy  EATOM  =      7250.85976021
  Solvation  Ediel_sol  =         0.00000000
  ---------------------------------------------------
  free energy    TOTEN  =      -107.08524255 eV

  energy without entropy =     -107.08524255  energy(sigma->0) =     -107.08524255


--------------------------------------------------------------------------------------------------------




--------------------------------------- Iteration      1(   7)  ---------------------------------------


    POTLOK:  cpu time    0.0667: real time    0.0773
    SETDIJ:  cpu time    0.0075: real time    0.0076
     EDDAV:  cpu time    3.5327: real time    3.5411
 BZINTS: Fermi energy: -1.373364;144.000000 electrons
         Band energy:***********;  BLOECHL correction:  0.000000
       DOS:  cpu time    0.0028: real time    0.0028
    CHARGE:  cpu time    0.1765: real time    0.1769
    MIXING:  cpu time    0.0056: real time    0.0058
    --------------------------------------------
      LOOP:  cpu time    3.7918: real time    3.8114

 eigenvalue-minimisations  :  3480
 total energy-change (2. order) : 0.1370153E+01  (-0.9690050E+00)
 number of electron     144.0000003 magnetization 
 augmentation part      -17.5431411 magnetization 

 Broyden mixing:
  rms(total) = 0.24421E+00    rms(broyden)= 0.24421E+00
  rms(prec ) = 0.29648E+00
  weight for this iteration     100.00

 eigenvalues of (default mixing * dielectric matrix)
  average eigenvalue GAMMA=   1.8386
  1.8386  1.8386

 Free energy of the ion-electron system (eV)
  ---------------------------------------------------
  alpha Z        PSCENC =       170.45750602
  Ewald energy   TEWEN  =     12323.67135226
  -Hartree energ DENC   =    -18612.57913546
  -exchange      EXHF   =         0.00000000
  -V(xc)+E(xc)   XCENC  =        47.84738612
  PAW double counting   =      3779.56339568    -3490.90731765
  entropy T*S    EENTRO =         0.00000000
  eigenvalues    EBANDS =     -1574.62803658
  atomic energy  EATOM  =      7250.85976021
  Solvation  Ediel_sol  =         0.00000000
  ---------------------------------------------------
  free energy    TOTEN  =      -105.71508941 eV

  energy without entropy =     -105.71508941  energy(sigma->0) =     -105.71508941


--------------------------------------------------------------------------------------------------------




--------------------------------------- Iteration      1(   8)  ---------------------------------------


    POTLOK:  cpu time    0.0619: real time    0.0724
    SETDIJ:  cpu time    0.0040: real time    0.0040
     EDDAV:  cpu time    2.9413: real time    2.9482
 BZINTS: Fermi energy: -1.236788;144.000000 electrons
         Band energy:***********;  BLOECHL correction:  0.000000
       DOS:  cpu time    0.0021: real time    0.0021
    CHARGE:  cpu time    0.1718: real time    0.1722
    MIXING:  cpu time    0.0077: real time    0.0080
    --------------------------------------------
      LOOP:  cpu time    3.1888: real time    3.2070

 eigenvalue-minimisations  :  3112
 total energy-change (2. order) : 0.2351372E+00  (-0.3473912E+00)
 number of electron     144.0000003 magnetization 
 augmentation part      -17.6677453 magnetization 

 Broyden mixing:
  rms(total) = 0.11517E+00    rms(broyden)= 0.11517E+00
  rms(prec ) = 0.19062E+00
  weight for this iteration     100.00

 eigenvalues of (default mixing * dielectric matrix)
  average eigenvalue GAMMA=   1.6732
  2.6056  1.2070  1.2070

 Free energy of the ion-electron system (eV)
  ---------------------------------------------------
  alpha Z        PSCENC =       170.45750602
  Ewald energy   TEWEN  =     12323.67135226
  -Hartree energ DENC   =    -18649.89302512
  -exchange      EXHF   =         0.00000000
  -V(xc)+E(xc)   XCENC  =        48.80997567
  PAW double counting   =      3829.10029542    -3542.28282960
  entropy T*S    EENTRO =         0.00000000
  eigenvalues    EBANDS =     -1536.20298704
  atomic energy  EATOM  =      7250.85976021
  Solvation  Ediel_sol  =         0.00000000
  ---------------------------------------------------
  free energy    TOTEN  =      -105.47995218 eV

  energy without entropy =     -105.47995218  energy(sigma->0) =     -105.47995218


--------------------------------------------------------------------------------------------------------




--------------------------------------- Iteration      1(   9)  ---------------------------------------


    POTLOK:  cpu time    0.0650: real time    0.0754
    SETDIJ:  cpu time    0.0034: real time    0.0034
     EDDAV:  cpu time    3.0218: real time    3.0290
 BZINTS: Fermi energy: -0.821925;144.000000 electrons
         Band energy:***********;  BLOECHL correction:  0.000000
       DOS:  cpu time    0.0040: real time    0.0040
    CHARGE:  cpu time    0.1523: real time    0.1527
    MIXING:  cpu time    0.0117: real time    0.0117
    --------------------------------------------
      LOOP:  cpu time    3.2582: real time    3.2762

 eigenvalue-minimisations  :  3112
 total energy-change (2. order) : 0.2778622E+00  (-0.1203003E+00)
 number of electron     144.0000003 magnetization 
 augmentation part      -17.6448806 magnetization 

 Broyden mixing:
  rms(total) = 0.58050E-01    rms(broyden)= 0.58049E-01
  rms(prec ) = 0.82229E-01
  weight for this iteration     100.00

 eigenvalues of (default mixing * dielectric matrix)
  average eigenvalue GAMMA=   1.4116
  2.5251  1.2055  1.2055  0.7104

 Free energy of the ion-electron system (eV)
  ---------------------------------------------------
  alpha Z        PSCENC =       170.45750602
  Ewald energy   TEWEN  =     12323.67135226
  -Hartree energ DENC   =    -18692.78786916
  -exchange      EXHF   =         0.00000000
  -V(xc)+E(xc)   XCENC  =        49.74957932
  PAW double counting   =      3840.85989162    -3555.41278107
  entropy T*S    EENTRO =         0.00000000
  eigenvalues    EBANDS =     -1492.59952922
  atomic energy  EATOM  =      7250.85976021
  Solvation  Ediel_sol  =         0.00000000
  ---------------------------------------------------
  free energy    TOTEN  =      -105.20209002 eV

  energy without entropy =     -105.20209002  energy(sigma->0) =     -105.20209002


--------------------------------------------------------------------------------------------------------




--------------------------------------- Iteration      1(  10)  ---------------------------------------


    POTLOK:  cpu time    0.0593: real time    0.0704
    SETDIJ:  cpu time    0.0022: real time    0.0022
     EDDAV:  cpu time    3.2783: real time    3.2861
 BZINTS: Fermi energy: -0.745444;144.000000 electrons
         Band energy:***********;  BLOECHL correction:  0.000000
       DOS:  cpu time    0.0020: real time    0.0020
    CHARGE:  cpu time    0.1676: real time    0.1680
    MIXING:  cpu time    0.0061: real time    0.0061
    --------------------------------------------
      LOOP:  cpu time    3.5155: real time    3.5349

 eigenvalue-minimisations  :  3488
 total energy-change (2. order) :-0.1757243E-01  (-0.2307889E-01)
 number of electron     144.0000003 magnetization 
 augmentation part      -17.6678134 magnetization 

 Broyden mixing:
  rms(total) = 0.41793E-01    rms(broyden)= 0.41792E-01
  rms(prec ) = 0.63267E-01
  weight for this iteration     100.00

 eigenvalues of (default mixing * dielectric matrix)
  average eigenvalue GAMMA=   1.6050
  2.4949  2.4949  1.0908  0.9721  0.9721

 Free energy of the ion-electron system (eV)
  ---------------------------------------------------
  alpha Z        PSCENC =       170.45750602
  Ewald energy   TEWEN  =     12323.67135226
  -Hartree energ DENC   =    -18701.98205473
  -exchange      EXHF   =         0.00000000
  -V(xc)+E(xc)   XCENC  =        49.73652676
  PAW double counting   =      3835.81633186    -3549.98602236
  entropy T*S    EENTRO =         0.00000000
  eigenvalues    EBANDS =     -1483.79306248
  atomic energy  EATOM  =      7250.85976021
  Solvation  Ediel_sol  =         0.00000000
  ---------------------------------------------------
  free energy    TOTEN  =      -105.21966245 eV

  energy without entropy =     -105.21966245  energy(sigma->0) =     -105.21966245


--------------------------------------------------------------------------------------------------------




--------------------------------------- Iteration      1(  11)  ---------------------------------------


    POTLOK:  cpu time    0.0637: real time    0.0740
    SETDIJ:  cpu time    0.0024: real time    0.0025
     EDDAV:  cpu time    2.9423: real time    2.9493
 BZINTS: Fermi energy: -0.646772;144.000000 electrons
         Band energy:***********;  BLOECHL correction:  0.000000
       DOS:  cpu time    0.0023: real time    0.0023
    CHARGE:  cpu time    0.1511: real time    0.1515
    MIXING:  cpu time    0.0069: real time    0.0070
    --------------------------------------------
      LOOP:  cpu time    3.1688: real time    3.1865

 eigenvalue-minimisations  :  3096
 total energy-change (2. order) : 0.9007999E-02  (-0.6598594E-02)
 number of electron     144.0000003 magnetization 
 augmentation part      -17.6711723 magnetization 

 Broyden mixing:
  rms(total) = 0.16761E-01    rms(broyden)= 0.16761E-01
  rms(prec ) = 0.33326E-01
  weight for this iteration     100.00

 eigenvalues of (default mixing * dielectric matrix)
  average eigenvalue GAMMA=   1.6221
  2.8125  2.8125  1.2450  0.9100  0.9763  0.9763

 Free energy of the ion-electron system (eV)
  ---------------------------------------------------
  alpha Z        PSCENC =       170.45750602
  Ewald energy   TEWEN  =     12323.67135226
  -Hartree energ DENC   =    -18722.35062091
  -exchange      EXHF   =         0.00000000
  -V(xc)+E(xc)   XCENC  =        49.92235540
  PAW double counting   =      3836.56576892    -3550.41914711
  entropy T*S    EENTRO =         0.00000000
  eigenvalues    EBANDS =     -1463.91762924
  atomic energy  EATOM  =      7250.85976021
  Solvation  Ediel_sol  =         0.00000000
  ---------------------------------------------------
  free energy    TOTEN  =      -105.21065445 eV

  energy without entropy =     -105.21065445  energy(sigma->0) =     -105.21065445


--------------------------------------------------------------------------------------------------------




--------------------------------------- Iteration      1(  12)  ---------------------------------------


    POTLOK:  cpu time    0.0552: real time    0.0661
    SETDIJ:  cpu time    0.0134: real time    0.0134
     EDDAV:  cpu time    2.9948: real time    3.0019
 BZINTS: Fermi energy: -0.541814;144.000000 electrons
         Band energy:***********;  BLOECHL correction:  0.000000
       DOS:  cpu time    0.0020: real time    0.0020
    CHARGE:  cpu time    0.1651: real time    0.1655
    MIXING:  cpu time    0.0061: real time    0.0062
    --------------------------------------------
      LOOP:  cpu time    3.2365: real time    3.2549

 eigenvalue-minimisations  :  3072
 total energy-change (2. order) :-0.4766053E-02  (-0.1584495E-02)
 number of electron     144.0000003 magnetization 
 augmentation part      -17.6651273 magnetization 

 Broyden mixing:
  rms(total) = 0.12510E-01    rms(broyden)= 0.12510E-01
  rms(prec ) = 0.21591E-01
  weight for this iteration     100.00

 eigenvalues of (default mixing * dielectric matrix)
  average eigenvalue GAMMA=   1.7842
  3.8504  2.5645  2.0078  1.1264  1.1264  0.9070  0.9070

 Free energy of the ion-electron system (eV)
  ---------------------------------------------------
  alpha Z        PSCENC =       170.45750602
  Ewald energy   TEWEN  =     12323.67135226
  -Hartree energ DENC   =    -18735.48032788
  -exchange      EXHF   =         0.00000000
  -V(xc)+E(xc)   XCENC  =        49.99604734
  PAW double counting   =      3834.28120055    -3548.00400857
  entropy T*S    EENTRO =         0.00000000
  eigenvalues    EBANDS =     -1450.99695043
  atomic energy  EATOM  =      7250.85976021
  Solvation  Ediel_sol  =         0.00000000
  ---------------------------------------------------
  free energy    TOTEN  =      -105.21542051 eV

  energy without entropy =     -105.21542051  energy(sigma->0) =     -105.21542051


--------------------------------------------------------------------------------------------------------




--------------------------------------- Iteration      1(  13)  ---------------------------------------


    POTLOK:  cpu time    0.0670: real time    0.0768
    SETDIJ:  cpu time    0.0022: real time    0.0022
     EDDAV:  cpu time    3.0275: real time    3.0347
 BZINTS: Fermi energy: -0.479500;144.000000 electrons
         Band energy:***********;  BLOECHL correction:  0.000000
       DOS:  cpu time    0.0019: real time    0.0019
    CHARGE:  cpu time    0.1502: real time    0.1506
    MIXING:  cpu time    0.0057: real time    0.0057
    --------------------------------------------
      LOOP:  cpu time    3.2545: real time    3.2718

 eigenvalue-minimisations  :  3224
 total energy-change (2. order) :-0.1004045E-01  (-0.1029095E-02)
 number of electron     144.0000003 magnetization 
 augmentation part      -17.6671157 magnetization 

 Broyden mixing:
  rms(total) = 0.64581E-02    rms(broyden)= 0.64581E-02
  rms(prec ) = 0.10918E-01
  weight for this iteration     100.00

 eigenvalues of (default mixing * dielectric matrix)
  average eigenvalue GAMMA=   1.8319
  4.2143  2.9193  2.3874  1.2276  1.2276  0.8961  0.8916  0.8916

 Free energy of the ion-electron system (eV)
  ---------------------------------------------------
  alpha Z        PSCENC =       170.45750602
  Ewald energy   TEWEN  =     12323.67135226
  -Hartree energ DENC   =    -18746.67945490
  -exchange      EXHF   =         0.00000000
  -V(xc)+E(xc)   XCENC  =        50.05069485
  PAW double counting   =      3832.44906151    -3546.27582430
  entropy T*S    EENTRO =         0.00000000
  eigenvalues    EBANDS =     -1439.75855661
  atomic energy  EATOM  =      7250.85976021
  Solvation  Ediel_sol  =         0.00000000
  ---------------------------------------------------
  free energy    TOTEN  =      -105.22546096 eV

  energy without entropy =     -105.22546096  energy(sigma->0) =     -105.22546096


--------------------------------------------------------------------------------------------------------




--------------------------------------- Iteration      1(  14)  ---------------------------------------


    POTLOK:  cpu time    0.0726: real time    0.0823
    SETDIJ:  cpu time    0.0020: real time    0.0020
     EDDAV:  cpu time    3.1356: real time    3.1431
 BZINTS: Fermi energy: -0.463145;144.000000 electrons
         Band energy:***********;  BLOECHL correction:  0.000000
       DOS:  cpu time    0.0021: real time    0.0021
    CHARGE:  cpu time    0.1700: real time    0.1704
    MIXING:  cpu time    0.0069: real time    0.0070
    --------------------------------------------
      LOOP:  cpu time    3.3892: real time    3.4069

 eigenvalue-minimisations  :  3160
 total energy-change (2. order) :-0.5655790E-02  (-0.3016052E-03)
 number of electron     144.0000003 magnetization 
 augmentation part      -17.6677407 magnetization 

 Broyden mixing:
  rms(total) = 0.54878E-02    rms(broyden)= 0.54878E-02
  rms(prec ) = 0.87878E-02
  weight for this iteration     100.00

 eigenvalues of (default mixing * dielectric matrix)
  average eigenvalue GAMMA=   1.8767
  4.6460  3.1681  2.0641  1.7477  1.3969  0.9161  0.9161  1.0179  1.0179

 Free energy of the ion-electron system (eV)
  ---------------------------------------------------
  alpha Z        PSCENC =       170.45750602
  Ewald energy   TEWEN  =     12323.67135226
  -Hartree energ DENC   =    -18750.08231735
  -exchange      EXHF   =         0.00000000
  -V(xc)+E(xc)   XCENC  =        50.05021142
  PAW double counting   =      3831.57001596    -3545.40813661
  entropy T*S    EENTRO =         0.00000000
  eigenvalues    EBANDS =     -1436.34950866
  atomic energy  EATOM  =      7250.85976021
  Solvation  Ediel_sol  =         0.00000000
  ---------------------------------------------------
  free energy    TOTEN  =      -105.23111675 eV

  energy without entropy =     -105.23111675  energy(sigma->0) =     -105.23111675


--------------------------------------------------------------------------------------------------------




--------------------------------------- Iteration      1(  15)  ---------------------------------------


    POTLOK:  cpu time    0.0757: real time    0.0849
    SETDIJ:  cpu time    0.0019: real time    0.0019
     EDDAV:  cpu time    3.0374: real time    3.0446
 BZINTS: Fermi energy: -0.454238;144.000000 electrons
         Band energy:***********;  BLOECHL correction:  0.000000
       DOS:  cpu time    0.0021: real time    0.0021
    CHARGE:  cpu time    0.1681: real time    0.1685
    MIXING:  cpu time    0.0072: real time    0.0073
    --------------------------------------------
      LOOP:  cpu time    3.2925: real time    3.3093

 eigenvalue-minimisations  :  3008
 total energy-change (2. order) :-0.2164018E-02  (-0.1876524E-03)
 number of electron     144.0000003 magnetization 
 augmentation part      -17.6694096 magnetization 

 Broyden mixing:
  rms(total) = 0.20422E-02    rms(broyden)= 0.20422E-02
  rms(prec ) = 0.38871E-02
  weight for this iteration     100.00

 eigenvalues of (default mixing * dielectric matrix)
  average eigenvalue GAMMA=   1.9689
  5.4239  3.6629  2.4537  1.7232  0.9134  0.9134  1.2864  1.2864  1.0129  1.0129

 Free energy of the ion-electron system (eV)
  ---------------------------------------------------
  alpha Z        PSCENC =       170.45750602
  Ewald energy   TEWEN  =     12323.67135226
  -Hartree energ DENC   =    -18751.74677254
  -exchange      EXHF   =         0.00000000
  -V(xc)+E(xc)   XCENC  =        50.04482466
  PAW double counting   =      3832.06380877    -3545.87059741
  entropy T*S    EENTRO =         0.00000000
  eigenvalues    EBANDS =     -1434.71316273
  atomic energy  EATOM  =      7250.85976021
  Solvation  Ediel_sol  =         0.00000000
  ---------------------------------------------------
  free energy    TOTEN  =      -105.23328077 eV

  energy without entropy =     -105.23328077  energy(sigma->0) =     -105.23328077


--------------------------------------------------------------------------------------------------------




--------------------------------------- Iteration      1(  16)  ---------------------------------------


    POTLOK:  cpu time    0.0737: real time    0.0839
    SETDIJ:  cpu time    0.0016: real time    0.0016
     EDDAV:  cpu time    2.9197: real time    2.9266
 BZINTS: Fermi energy: -0.448365;144.000000 electrons
         Band energy:***********;  BLOECHL correction:  0.000000
       DOS:  cpu time    0.0022: real time    0.0022
    CHARGE:  cpu time    0.1639: real time    0.1643
    MIXING:  cpu time    0.0064: real time    0.0065
    --------------------------------------------
      LOOP:  cpu time    3.1675: real time    3.1851

 eigenvalue-minimisations  :  3120
 total energy-change (2. order) :-0.1027095E-02  (-0.6552409E-04)
 number of electron     144.0000003 magnetization 
 augmentation part      -17.6694184 magnetization 

 Broyden mixing:
  rms(total) = 0.14920E-02    rms(broyden)= 0.14920E-02
  rms(prec ) = 0.26423E-02
  weight for this iteration     100.00

 eigenvalues of (default mixing * dielectric matrix)
  average eigenvalue GAMMA=   2.0253
  5.7337  4.0216  2.4665  1.8394  1.8394  0.9170  0.9170  1.2828  1.2828  0.9888
  0.9888

 Free energy of the ion-electron system (eV)
  ---------------------------------------------------
  alpha Z        PSCENC =       170.45750602
  Ewald energy   TEWEN  =     12323.67135226
  -Hartree energ DENC   =    -18753.05032639
  -exchange      EXHF   =         0.00000000
  -V(xc)+E(xc)   XCENC  =        50.04185556
  PAW double counting   =      3832.21536226    -3546.03140876
  entropy T*S    EENTRO =         0.00000000
  eigenvalues    EBANDS =     -1433.39840902
  atomic energy  EATOM  =      7250.85976021
  Solvation  Ediel_sol  =         0.00000000
  ---------------------------------------------------
  free energy    TOTEN  =      -105.23430786 eV

  energy without entropy =     -105.23430786  energy(sigma->0) =     -105.23430786


--------------------------------------------------------------------------------------------------------




--------------------------------------- Iteration      1(  17)  ---------------------------------------


    POTLOK:  cpu time    0.0682: real time    0.0784
    SETDIJ:  cpu time    0.0018: real time    0.0018
     EDDAV:  cpu time    3.2627: real time    3.2704
 BZINTS: Fermi energy: -0.444428;144.000000 electrons
         Band energy:***********;  BLOECHL correction:  0.000000
       DOS:  cpu time    0.0021: real time    0.0021
    CHARGE:  cpu time    0.1844: real time    0.1849
    MIXING:  cpu time    0.0060: real time    0.0061
    --------------------------------------------
      LOOP:  cpu time    3.5253: real time    3.5436

 eigenvalue-minimisations  :  3136
 total energy-change (2. order) :-0.5104552E-03  (-0.2360499E-04)
 number of electron     144.0000003 magnetization 
 augmentation part      -17.6693209 magnetization 

 Broyden mixing:
  rms(total) = 0.82660E-03    rms(broyden)= 0.82660E-03
  rms(prec ) = 0.16170E-02
  weight for this iteration     100.00

 eigenvalues of (default mixing * dielectric matrix)
  average eigenvalue GAMMA=   2.0388
  5.9705  4.3729  2.7353  2.1877  1.6899  0.9163  0.9163  1.3365  1.3365  0.9498
  1.0271  1.0271

 Free energy of the ion-electron system (eV)
  ---------------------------------------------------
  alpha Z        PSCENC =       170.45750602
  Ewald energy   TEWEN  =     12323.67135226
  -Hartree energ DENC   =    -18754.04758754
  -exchange      EXHF   =         0.00000000
  -V(xc)+E(xc)   XCENC  =        50.04402713
  PAW double counting   =      3832.20458127    -3546.01814205
  entropy T*S    EENTRO =         0.00000000
  eigenvalues    EBANDS =     -1432.40631561
  atomic energy  EATOM  =      7250.85976021
  Solvation  Ediel_sol  =         0.00000000
  ---------------------------------------------------
  free energy    TOTEN  =      -105.23481832 eV

  energy without entropy =     -105.23481832  energy(sigma->0) =     -105.23481832


--------------------------------------------------------------------------------------------------------




--------------------------------------- Iteration      1(  18)  ---------------------------------------


    POTLOK:  cpu time    0.0674: real time    0.0774
    SETDIJ:  cpu time    0.0019: real time    0.0019
     EDDAV:  cpu time    3.0371: real time    3.0442
 BZINTS: Fermi energy: -0.445074;144.000000 electrons
         Band energy:***********;  BLOECHL correction:  0.000000
       DOS:  cpu time    0.0022: real time    0.0022
    CHARGE:  cpu time    0.1801: real time    0.1806
    MIXING:  cpu time    0.0067: real time    0.0067
    --------------------------------------------
      LOOP:  cpu time    3.2953: real time    3.3130

 eigenvalue-minimisations  :  2840
 total energy-change (2. order) :-0.5431105E-03  (-0.1125250E-04)
 number of electron     144.0000003 magnetization 
 augmentation part      -17.6692535 magnetization 

 Broyden mixing:
  rms(total) = 0.54245E-03    rms(broyden)= 0.54245E-03
  rms(prec ) = 0.10220E-02
  weight for this iteration     100.00

 eigenvalues of (default mixing * dielectric matrix)
  average eigenvalue GAMMA=   2.1113
  6.3408  4.8906  2.9631  2.4600  1.8480  1.4410  1.4410  0.9153  0.9153  1.1577
  1.1577  0.9582  0.9582

 Free energy of the ion-electron system (eV)
  ---------------------------------------------------
  alpha Z        PSCENC =       170.45750602
  Ewald energy   TEWEN  =     12323.67135226
  -Hartree energ DENC   =    -18754.54248202
  -exchange      EXHF   =         0.00000000
  -V(xc)+E(xc)   XCENC  =        50.04511912
  PAW double counting   =      3832.20906771    -3546.02112662
  entropy T*S    EENTRO =         0.00000000
  eigenvalues    EBANDS =     -1431.91455810
  atomic energy  EATOM  =      7250.85976021
  Solvation  Ediel_sol  =         0.00000000
  ---------------------------------------------------
  free energy    TOTEN  =      -105.23536143 eV

  energy without entropy =     -105.23536143  energy(sigma->0) =     -105.23536143


--------------------------------------------------------------------------------------------------------




--------------------------------------- Iteration      1(  19)  ---------------------------------------


    POTLOK:  cpu time    0.0608: real time    0.0707
    SETDIJ:  cpu time    0.0055: real time    0.0056
     EDDAV:  cpu time    2.6246: real time    2.6308
 BZINTS: Fermi energy: -0.447878;144.000000 electrons
         Band energy:***********;  BLOECHL correction:  0.000000
       DOS:  cpu time    0.0020: real time    0.0020
    CHARGE:  cpu time    0.1777: real time    0.1781
    MIXING:  cpu time    0.0068: real time    0.0069
    --------------------------------------------
      LOOP:  cpu time    2.8774: real time    2.8940

 eigenvalue-minimisations  :  2640
 total energy-change (2. order) :-0.6020117E-03  (-0.6591531E-05)
 number of electron     144.0000003 magnetization 
 augmentation part      -17.6693678 magnetization 

 Broyden mixing:
  rms(total) = 0.41674E-03    rms(broyden)= 0.41674E-03
  rms(prec ) = 0.63623E-03
  weight for this iteration     100.00

 eigenvalues of (default mixing * dielectric matrix)
  average eigenvalue GAMMA=   2.1884
  6.5255  5.5366  3.2856  2.6797  2.0723  1.6216  1.6216  0.9154  0.9154  1.2334
  1.2334  0.9642  1.0167  1.0167

 Free energy of the ion-electron system (eV)
  ---------------------------------------------------
  alpha Z        PSCENC =       170.45750602
  Ewald energy   TEWEN  =     12323.67135226
  -Hartree energ DENC   =    -18754.89411283
  -exchange      EXHF   =         0.00000000
  -V(xc)+E(xc)   XCENC  =        50.04432846
  PAW double counting   =      3832.16371930    -3545.97398232
  entropy T*S    EENTRO =         0.00000000
  eigenvalues    EBANDS =     -1431.56453453
  atomic energy  EATOM  =      7250.85976021
  Solvation  Ediel_sol  =         0.00000000
  ---------------------------------------------------
  free energy    TOTEN  =      -105.23596344 eV

  energy without entropy =     -105.23596344  energy(sigma->0) =     -105.23596344


--------------------------------------------------------------------------------------------------------




--------------------------------------- Iteration      1(  20)  ---------------------------------------


    POTLOK:  cpu time    0.0677: real time    0.0771
    SETDIJ:  cpu time    0.0020: real time    0.0020
     EDDAV:  cpu time    2.6769: real time    2.6832
 BZINTS: Fermi energy: -0.365965;144.000000 electrons
         Band energy:***********;  BLOECHL correction:  0.000000
       DOS:  cpu time    0.0023: real time    0.0023
    CHARGE:  cpu time    0.1649: real time    0.1653
    MIXING:  cpu time    0.0069: real time    0.0070
    --------------------------------------------
      LOOP:  cpu time    2.9206: real time    2.9369

 eigenvalue-minimisations  :  2592
 total energy-change (2. order) :-0.4200353E-03  (-0.6589369E-05)
 number of electron     144.0000003 magnetization 
 augmentation part      -17.6694302 magnetization 

 Broyden mixing:
  rms(total) = 0.17559E-03    rms(broyden)= 0.17559E-03
  rms(prec ) = 0.25568E-03
  weight for this iteration     100.00

 eigenvalues of (default mixing * dielectric matrix)
  average eigenvalue GAMMA=   2.2982
  7.3458  6.3574  3.5410  3.0722  2.3461  1.6605  1.6605  0.9154  0.9154  1.2729
  1.2729  1.0977  1.0977  0.9587  0.9587

 Free energy of the ion-electron system (eV)
  ---------------------------------------------------
  alpha Z        PSCENC =       170.45750602
  Ewald energy   TEWEN  =     12323.67135226
  -Hartree energ DENC   =    -18755.03055402
  -exchange      EXHF   =         0.00000000
  -V(xc)+E(xc)   XCENC  =        50.04413971
  PAW double counting   =      3832.15432724    -3545.96445378
  entropy T*S    EENTRO =         0.00000000
  eigenvalues    EBANDS =     -1431.42846111
  atomic energy  EATOM  =      7250.85976021
  Solvation  Ediel_sol  =         0.00000000
  ---------------------------------------------------
  free energy    TOTEN  =      -105.23638348 eV

  energy without entropy =     -105.23638348  energy(sigma->0) =     -105.23638348


--------------------------------------------------------------------------------------------------------




--------------------------------------- Iteration      1(  21)  ---------------------------------------


    POTLOK:  cpu time    0.0736: real time    0.0836
    SETDIJ:  cpu time    0.0021: real time    0.0021
     EDDAV:  cpu time    2.4655: real time    2.4713
 BZINTS: Fermi energy: -0.371391;144.000000 electrons
         Band energy:***********;  BLOECHL correction:  0.000000
       DOS:  cpu time    0.0023: real time    0.0023
    CHARGE:  cpu time    0.1630: real time    0.1634
    MIXING:  cpu time    0.0082: real time    0.0083
    --------------------------------------------
      LOOP:  cpu time    2.7147: real time    2.7310

 eigenvalue-minimisations  :  2392
 total energy-change (2. order) :-0.1585981E-03  (-0.2338539E-05)
 number of electron     144.0000003 magnetization 
 augmentation part      -17.6694000 magnetization 

 Broyden mixing:
  rms(total) = 0.10792E-03    rms(broyden)= 0.10792E-03
  rms(prec ) = 0.13059E-03
  weight for this iteration     100.00

 eigenvalues of (default mixing * dielectric matrix)
  average eigenvalue GAMMA=   2.3638
  8.3304  6.6645  3.7402  3.1735  2.3767  1.8859  1.8859  0.9154  0.9154  1.3143
  1.3143  1.1824  1.1824  0.9754  0.9754  0.9883

 Free energy of the ion-electron system (eV)
  ---------------------------------------------------
  alpha Z        PSCENC =       170.45750602
  Ewald energy   TEWEN  =     12323.67135226
  -Hartree energ DENC   =    -18755.01267256
  -exchange      EXHF   =         0.00000000
  -V(xc)+E(xc)   XCENC  =        50.04350811
  PAW double counting   =      3832.15324773    -3545.96412874
  entropy T*S    EENTRO =         0.00000000
  eigenvalues    EBANDS =     -1431.44511511
  atomic energy  EATOM  =      7250.85976021
  Solvation  Ediel_sol  =         0.00000000
  ---------------------------------------------------
  free energy    TOTEN  =      -105.23654207 eV

  energy without entropy =     -105.23654207  energy(sigma->0) =     -105.23654207


--------------------------------------------------------------------------------------------------------




--------------------------------------- Iteration      1(  22)  ---------------------------------------


    POTLOK:  cpu time    0.0660: real time    0.0757
    SETDIJ:  cpu time    0.0016: real time    0.0016
     EDDAV:  cpu time    2.5476: real time    2.5536
 BZINTS: Fermi energy: -0.376301;144.000000 electrons
         Band energy:***********;  BLOECHL correction:  0.000000
       DOS:  cpu time    0.0027: real time    0.0027
    CHARGE:  cpu time    0.1739: real time    0.1743
    MIXING:  cpu time    0.0069: real time    0.0069
    --------------------------------------------
      LOOP:  cpu time    2.7987: real time    2.8149

 eigenvalue-minimisations  :  2424
 total energy-change (2. order) :-0.3438029E-04  (-0.3086990E-06)
 number of electron     144.0000003 magnetization 
 augmentation part      -17.6693922 magnetization 

 Broyden mixing:
  rms(total) = 0.51035E-04    rms(broyden)= 0.51035E-04
  rms(prec ) = 0.65100E-04
  weight for this iteration     100.00

 eigenvalues of (default mixing * dielectric matrix)
  average eigenvalue GAMMA=   2.3785
  8.8757  6.8882  3.8542  3.3179  2.5422  2.0985  1.7544  0.9154  0.9154  1.4184
  1.2774  1.2774  1.2304  1.0838  1.0838  0.9502  0.9502

 Free energy of the ion-electron system (eV)
  ---------------------------------------------------
  alpha Z        PSCENC =       170.45750602
  Ewald energy   TEWEN  =     12323.67135226
  -Hartree energ DENC   =    -18755.01780066
  -exchange      EXHF   =         0.00000000
  -V(xc)+E(xc)   XCENC  =        50.04334772
  PAW double counting   =      3832.14245572    -3545.95323802
  entropy T*S    EENTRO =         0.00000000
  eigenvalues    EBANDS =     -1431.43995969
  atomic energy  EATOM  =      7250.85976021
  Solvation  Ediel_sol  =         0.00000000
  ---------------------------------------------------
  free energy    TOTEN  =      -105.23657645 eV

  energy without entropy =     -105.23657645  energy(sigma->0) =     -105.23657645


--------------------------------------------------------------------------------------------------------




--------------------------------------- Iteration      1(  23)  ---------------------------------------


    POTLOK:  cpu time    0.0673: real time    0.0770
    SETDIJ:  cpu time    0.0019: real time    0.0019
     EDDAV:  cpu time    2.5734: real time    2.5795
 BZINTS: Fermi energy: -0.380844;144.000000 electrons
         Band energy:***********;  BLOECHL correction:  0.000000
       DOS:  cpu time    0.0026: real time    0.0026
    CHARGE:  cpu time    0.1934: real time    0.1938
    MIXING:  cpu time    0.0081: real time    0.0081
    --------------------------------------------
      LOOP:  cpu time    2.8466: real time    2.8630

 eigenvalue-minimisations  :  2144
 total energy-change (2. order) :-0.1764490E-04  (-0.1539804E-06)
 number of electron     144.0000003 magnetization 
 augmentation part      -17.6693937 magnetization 

 Broyden mixing:
  rms(total) = 0.22726E-04    rms(broyden)= 0.22726E-04
  rms(prec ) = 0.29557E-04
  weight for this iteration     100.00

 eigenvalues of (default mixing * dielectric matrix)
  average eigenvalue GAMMA=   2.3664
  8.9839  6.9809  3.7119  3.7119  2.5371  2.1292  1.8769  1.8769  0.9154  0.9154
  1.2669  1.2669  1.2056  1.2056  1.0720  0.9733  0.9733  0.9931

 Free energy of the ion-electron system (eV)
  ---------------------------------------------------
  alpha Z        PSCENC =       170.45750602
  Ewald energy   TEWEN  =     12323.67135226
  -Hartree energ DENC   =    -18755.00769893
  -exchange      EXHF   =         0.00000000
  -V(xc)+E(xc)   XCENC  =        50.04327636
  PAW double counting   =      3832.14356840    -3545.95440003
  entropy T*S    EENTRO =         0.00000000
  eigenvalues    EBANDS =     -1431.44995839
  atomic energy  EATOM  =      7250.85976021
  Solvation  Ediel_sol  =         0.00000000
  ---------------------------------------------------
  free energy    TOTEN  =      -105.23659410 eV

  energy without entropy =     -105.23659410  energy(sigma->0) =     -105.23659410


--------------------------------------------------------------------------------------------------------




--------------------------------------- Iteration      1(  24)  ---------------------------------------


    POTLOK:  cpu time    0.0639: real time    0.0759
    SETDIJ:  cpu time    0.0021: real time    0.0021
     EDDAV:  cpu time    2.4068: real time    2.4125
 BZINTS: Fermi energy: -0.385080;144.000000 electrons
         Band energy:***********;  BLOECHL correction:  0.000000
       DOS:  cpu time    0.0025: real time    0.0025
    CHARGE:  cpu time    0.1746: real time    0.1750
    MIXING:  cpu time    0.0076: real time    0.0077
    --------------------------------------------
      LOOP:  cpu time    2.6575: real time    2.6757

 eigenvalue-minimisations  :  1960
 total energy-change (2. order) :-0.2810680E-05  (-0.1800165E-07)
 number of electron     144.0000003 magnetization 
 augmentation part      -17.6693983 magnetization 

 Broyden mixing:
  rms(total) = 0.15258E-04    rms(broyden)= 0.15258E-04
  rms(prec ) = 0.22267E-04
  weight for this iteration     100.00

 eigenvalues of (default mixing * dielectric matrix)
  average eigenvalue GAMMA=   2.3697
  9.0707  7.0466  3.8293  3.8293  2.8690  2.2776  2.2776  1.5904  1.5904  0.9154
  0.9154  1.2629  1.2629  1.1426  1.1426  0.9614  0.9614  1.0397  1.0397

 Free energy of the ion-electron system (eV)
  ---------------------------------------------------
  alpha Z        PSCENC =       170.45750602
  Ewald energy   TEWEN  =     12323.67135226
  -Hartree energ DENC   =    -18755.00459816
  -exchange      EXHF   =         0.00000000
  -V(xc)+E(xc)   XCENC  =        50.04321503
  PAW double counting   =      3832.14484237    -3545.95564218
  entropy T*S    EENTRO =         0.00000000
  eigenvalues    EBANDS =     -1431.45303247
  atomic energy  EATOM  =      7250.85976021
  Solvation  Ediel_sol  =         0.00000000
  ---------------------------------------------------
  free energy    TOTEN  =      -105.23659691 eV

  energy without entropy =     -105.23659691  energy(sigma->0) =     -105.23659691


--------------------------------------------------------------------------------------------------------




--------------------------------------- Iteration      1(  25)  ---------------------------------------


    POTLOK:  cpu time    0.0745: real time    0.0848
    SETDIJ:  cpu time    0.0022: real time    0.0022
     EDDAV:  cpu time    2.1883: real time    2.1935
 BZINTS: Fermi energy: -0.388712;144.000000 electrons
         Band energy:***********;  BLOECHL correction:  0.000000
       DOS:  cpu time    0.0031: real time    0.0031
    CHARGE:  cpu time    0.1407: real time    0.1411
    MIXING:  cpu time    0.0141: real time    0.0142
    --------------------------------------------
      LOOP:  cpu time    2.4230: real time    2.4389

 eigenvalue-minimisations  :  1824
 total energy-change (2. order) :-0.1245411E-05  (-0.1794697E-07)
 number of electron     144.0000003 magnetization 
 augmentation part      -17.6693998 magnetization 

 Broyden mixing:
  rms(total) = 0.61150E-05    rms(broyden)= 0.61150E-05
  rms(prec ) = 0.89468E-05
  weight for this iteration     100.00

 eigenvalues of (default mixing * dielectric matrix)
  average eigenvalue GAMMA=   2.3368
  9.1321  7.0190  3.9442  3.9023  2.8984  2.5203  1.8924  1.8924  1.5016  1.5016
  0.9154  0.9154  1.2244  1.2244  1.1499  1.1499  1.0674  0.9703  0.9703  0.9449

 Free energy of the ion-electron system (eV)
  ---------------------------------------------------
[...]
     26     -13.6156      2.00000
     27     -13.1432      2.00000
     28     -13.1333      2.00000
     29     -13.0997      2.00000
     30     -13.0920      2.00000
     31     -13.0641      2.00000
     32     -13.0632      2.00000
     33     -11.0248      2.00000
     34     -11.0109      2.00000
     35     -10.6312      2.00000
     36     -10.6156      2.00000
     37      -6.4123      2.00000
     38      -6.3936      2.00000
     39      -6.1713      2.00000
     40      -6.1580      2.00000
     41      -6.1016      2.00000
     42      -6.0858      2.00000
     43      -5.8305      2.00000
     44      -5.8169      2.00000
     45      -5.7821      2.00000
     46      -5.7324      2.00000
     47      -5.6921      2.00000
     48      -5.5818      2.00000
     49      -2.7844      2.00000
     50      -2.6885      2.00000
     51      -2.5208      2.00000
     52      -2.4670      2.00000
     53      -2.2018      2.00000
     54      -2.1177      2.00000
     55      -2.0964      2.00000
     56      -2.0617      2.00000
     57      -1.9020      2.00000
     58      -1.8775      2.00000
     59      -1.7775      2.00000
     60      -1.6945      2.00000
     61      -1.6132      2.00000
     62      -1.5583      2.00000
     63      -1.4596      2.00000
     64      -1.3822      2.00000
     65      -1.2649      2.00000
     66      -1.1929      2.00000
     67      -1.1242      2.00000
     68      -1.0105      2.00000
     69      -0.8807      2.00000
     70      -0.7674      2.00000
     71      -0.7606      2.00000
     72      -0.6920      2.00000
     73       0.4155      0.00000
     74       0.4453      0.00000
     75       0.5814      0.00000
     76       0.6251      0.00000
     77       0.6862      0.00000
     78       0.8203      0.00000
     79       0.9374      0.00000
     80       0.9787      0.00000
     81       0.9964      0.00000
     82       1.1566      0.00000
     83       1.2864      0.00000
     84       1.3782      0.00000
     85       1.4188      0.00000
     86       1.5802      0.00000
     87       1.6750      0.00000
     88       1.7796      0.00000

 k-point    15 :       0.0000    0.5000    0.4000
  band No.  band energies     occupation 
      1     -29.5290      2.00000
      2     -29.5290      2.00000
      3     -28.4784      2.00000
      4     -28.4784      2.00000
      5     -28.3530      2.00000
      6     -28.3530      2.00000
      7     -27.7478      2.00000
      8     -27.7478      2.00000
      9     -14.8670      2.00000
     10     -14.8670      2.00000
     11     -14.8023      2.00000
     12     -14.8023      2.00000
     13     -14.7325      2.00000
     14     -14.7325      2.00000
     15     -13.8993      2.00000
     16     -13.8993      2.00000
     17     -13.7776      2.00000
     18     -13.7776      2.00000
     19     -13.7593      2.00000
     20     -13.7593      2.00000
     21     -13.7237      2.00000
     22     -13.7237      2.00000
     23     -13.6944      2.00000
     24     -13.6944      2.00000
     25     -13.6190      2.00000
     26     -13.6190      2.00000
     27     -13.1381      2.00000
     28     -13.1381      2.00000
     29     -13.0954      2.00000
     30     -13.0954      2.00000
     31     -13.0635      2.00000
     32     -13.0635      2.00000
     33     -11.0122      2.00000
     34     -11.0122      2.00000
     35     -10.6138      2.00000
     36     -10.6137      2.00000
     37      -6.4311      2.00000
     38      -6.4311      2.00000
     39      -6.1381      2.00000
     40      -6.1380      2.00000
     41      -6.0937      2.00000
     42      -6.0937      2.00000
     43      -5.8014      2.00000
     44      -5.8013      2.00000
     45      -5.7651      2.00000
     46      -5.7651      2.00000
     47      -5.6354      2.00000
     48      -5.6354      2.00000
     49      -2.6913      2.00000
     50      -2.6913      2.00000
     51      -2.5117      2.00000
     52      -2.5117      2.00000
     53      -2.1537      2.00000
     54      -2.1537      2.00000
     55      -2.0955      2.00000
     56      -2.0955      2.00000
     57      -1.8922      2.00000
     58      -1.8922      2.00000
     59      -1.6822      2.00000
     60      -1.6822      2.00000
     61      -1.4979      2.00000
     62      -1.4979      2.00000
     63      -1.4622      2.00000
     64      -1.4622      2.00000
     65      -1.2468      2.00000
     66      -1.2468      2.00000
     67      -1.0595      2.00000
     68      -1.0595      2.00000
     69      -0.8691      2.00000
     70      -0.8691      2.00000
     71      -0.7249      2.00000
     72      -0.7249      2.00000
     73       0.3318      0.00000
     74       0.3318      0.00000
     75       0.5692      0.00000
     76       0.5692      0.00000
     77       0.7427      0.00000
     78       0.7427      0.00000
     79       0.9365      0.00000
     80       0.9365      0.00000
     81       0.9999      0.00000
     82       0.9999      0.00000
     83       1.3537      0.00000
     84       1.3537      0.00000
     85       1.5365      0.00000
     86       1.5365      0.00000
     87       1.6355      0.00000
     88       1.6355      0.00000


--------------------------------------------------------------------------------------------------------


 soft charge-density along one line, spin component           1
         0         1         2         3         4         5         6         7         8         9
 total charge-density along one line
 
 pseudopotential strength for first ion, spin component:           1
  5.096  -5.598  -0.000  -0.008  -0.037  -0.000  -0.003  -0.015
 -5.598  -2.740   0.000   0.002   0.007  -0.000  -0.001  -0.006
 -0.000   0.000  -6.777  -0.000  -0.000   1.862  -0.000  -0.000
 -0.008   0.002  -0.000  -6.772  -0.002  -0.000   1.873  -0.003
 -0.037   0.007  -0.000  -0.002  -6.772  -0.000  -0.003   1.873
 -0.000  -0.000   1.862  -0.000  -0.000   7.308  -0.000  -0.000
 -0.003  -0.001  -0.000   1.873  -0.003  -0.000   7.310  -0.000
 -0.015  -0.006  -0.000  -0.003   1.873  -0.000  -0.000   7.310
 -0.000   0.000  -0.013  -0.000  -0.000  -0.009  -0.000  -0.000
 -0.000   0.000  -0.001  -0.000  -0.000  -0.000  -0.000  -0.000
  0.002  -0.001   0.000  -0.004   0.007   0.000  -0.003   0.005
 -0.002   0.001  -0.000  -0.012  -0.002  -0.000  -0.008  -0.002
  0.003  -0.001   0.000  -0.001  -0.012   0.000  -0.001  -0.008
  0.000   0.000   0.001   0.000   0.000   0.000   0.000   0.000
  0.000   0.000   0.000   0.000   0.000  -0.000   0.000   0.000
 -0.000  -0.000  -0.000   0.000  -0.000  -0.000   0.000  -0.000
  0.000   0.000   0.000   0.001   0.000   0.000   0.000   0.000
 -0.000  -0.000  -0.000   0.000   0.000  -0.000   0.000   0.000
 total augmentation occupancy for first ion, spin component:           1
  2.102  -0.256   0.000   0.012   0.055   0.000  -0.006  -0.020   0.000   0.000   0.015  -0.010   0.032  -0.000   0.000  -0.010
 -0.256   0.637   0.000  -0.033  -0.143   0.000   0.012   0.033   0.000   0.000  -0.025   0.013  -0.062   0.000   0.000   0.040
  0.000   0.000   2.012  -0.000   0.000  -0.011   0.000   0.000  -0.083   0.022   0.000   0.000   0.000   0.077  -0.042   0.000
  0.012  -0.033  -0.000   2.000   0.003   0.000  -0.002  -0.002   0.000   0.000  -0.045  -0.068  -0.015   0.000   0.000   0.044
  0.055  -0.143   0.000   0.003   1.995   0.000  -0.002  -0.000   0.000   0.000   0.035  -0.007  -0.052   0.000   0.000  -0.032
  0.000   0.000  -0.011   0.000   0.000   0.008   0.000   0.000   0.022  -0.009   0.000   0.000   0.000  -0.030   0.014   0.000
 -0.006   0.012   0.000  -0.002  -0.002   0.000   0.005   0.001   0.000   0.000   0.016   0.015   0.005   0.000   0.000  -0.022
 -0.020   0.033   0.000  -0.002  -0.000   0.000   0.001   0.004   0.000   0.000  -0.007   0.000   0.009   0.000   0.000   0.009
  0.000   0.000  -0.083   0.000  -0.000   0.022   0.000   0.000   0.145  -0.014   0.000  -0.000   0.000  -0.182   0.020   0.000
  0.000   0.000   0.022   0.000   0.000  -0.009   0.000   0.000  -0.014   0.068   0.000   0.000   0.000   0.018  -0.085   0.000
  0.015  -0.025  -0.000  -0.045   0.035   0.000   0.016  -0.007   0.000   0.000   0.122   0.050   0.019   0.000   0.000  -0.148
 -0.010   0.013   0.000  -0.068  -0.007   0.000   0.015   0.000  -0.000   0.000   0.050   0.087   0.009   0.000   0.000  -0.069
  0.032  -0.062   0.000  -0.015  -0.052   0.000   0.005   0.009   0.000  -0.000   0.019   0.009   0.097   0.000   0.000  -0.026
 -0.000   0.000   0.077   0.000  -0.000  -0.030   0.000   0.000  -0.182   0.018  -0.000   0.000   0.000   0.258  -0.034   0.000
  0.000   0.000  -0.042   0.000   0.000   0.014   0.000   0.000   0.020  -0.085   0.000   0.000   0.000  -0.034   0.114   0.000
 -0.010   0.040   0.000   0.044  -0.032  -0.000  -0.022   0.009   0.000   0.000  -0.148  -0.069  -0.026   0.000   0.000   0.200
  0.008  -0.030   0.000   0.063  -0.000   0.000  -0.022  -0.001   0.000  -0.000  -0.068  -0.110  -0.012   0.000   0.000   0.104
 -0.024   0.074   0.000   0.022   0.050   0.000  -0.008  -0.012   0.000   0.000  -0.027  -0.014  -0.126   0.000   0.000   0.043


------------------------ aborting loop because EDIFF is reached ----------------------------------------


    CHARGE:  cpu time    0.1533: real time    0.1536
    FORLOC:  cpu time    0.0118: real time    0.0118
    FORNL :  cpu time    0.5633: real time    0.5647
    STRESS:  cpu time    1.7179: real time    1.7221
    FORCOR:  cpu time    0.0695: real time    0.0696
    FORHAR:  cpu time    0.0234: real time    0.0235
    MIXING:  cpu time    0.0092: real time    0.0097
    OFIELD:  cpu time    0.0000: real time    0.0000

 ---------------------------------------------------------------------------------------------

         DFTD3 V3.0 Rev 1        
 IVDW         = 11
 DF pbe       
 parameters
 VDW_S6       =    1.0000
 VDW_S8       =    0.7220
 VDW_SR       =    1.2170
 rs18     =    1.0000
 alpha6   =   14.0000
 alpha8   =   16.0000
 k1-k3    =   16.0000    1.3333   -4.0000
 VDW_RADIUS   =   50.2022 A
 VDW_CNRADIUS =   21.1671 A
 Edisp (eV)   -2.34466

 E6    (eV) :    -0.8770
 E8    (eV) :    -1.4677
 % E8        : 62.60
    FORVDW:  cpu time    0.0434: real time    0.0605

  FORCE on cell =-STRESS in cart. coord.  units (eV):
  Direction    XX          YY          ZZ          XY          YZ          ZX
  --------------------------------------------------------------------------------------
  Alpha Z   170.45751   170.45751   170.45751
  Ewald  -20096.00104 16476.56063 15943.09805    -0.00002     0.00000   146.20440
  Hartree-17024.61802 18099.82598 17679.79319     0.00000    -0.00000   110.26731
  E(xc)    -462.33826  -460.62876  -461.01836    -0.00000    -0.00000     0.21421
  Local   35704.32202-36011.49770-35049.96430     0.00001    -0.00000  -254.16508
  n-local   339.11518   339.30832   339.96106     0.05908    -0.19514    -1.73288
  augment  -169.35666  -169.66312  -169.54648    -0.00000    -0.00000     0.34210
  Kinetic  1532.18101  1547.36155  1539.84693    -0.02782    -0.81178    -1.08243
  Fock        0.00000     0.00000     0.00000     0.00000     0.00000     0.00000
  vdW        -1.35185    -2.70568    -2.60843     0.00000    -0.00000     0.02279
  -------------------------------------------------------------------------------------
  Total      -7.59012   -10.98128    -9.98083     0.00000     0.00000     0.07040
  in kB      -6.44090    -9.31860    -8.46963     0.00000     0.00000     0.05974
  external pressure =       -8.08 kB  Pullay stress =        0.00 kB


 VOLUME and BASIS-vectors are now :
 -----------------------------------------------------------------------------
  energy-cutoff  :      500.00
  volume of cell :     1888.05
      direct lattice vectors                 reciprocal lattice vectors
    24.009468079  0.000000000  0.000000000     0.041650236  0.000000000  0.000000000
     0.000000000  6.777849674  0.000000000     0.000000000  0.147539419  0.000000000
     0.000000000  0.000000000 11.602143288     0.000000000  0.000000000  0.086190971

  length of vectors
    24.009468079  6.777849674 11.602143288     0.041650236  0.147539419  0.086190971


 FORCES acting on ions
    electron-ion (+dipol)            ewald-force                    non-local-force                 convergence-correction
 -----------------------------------------------------------------------------------------------
   0.792E+03 0.102E-04 0.444E+02   -.787E+03 0.981E-05 -.435E+02   -.427E+01 0.540E-18 -.827E+00   0.562E-04 -.681E-09 0.746E-05
   -.792E+03 -.632E-04 -.444E+02   0.787E+03 -.127E-04 0.435E+02   0.427E+01 0.555E-18 0.827E+00   -.562E-04 0.723E-09 -.746E-05
   0.773E+02 -.598E-04 -.359E+02   -.771E+02 -.192E-04 0.346E+02   -.324E+00 -.295E-18 0.125E+01   0.678E-04 0.111E-08 -.483E-04
   -.773E+02 0.120E-04 0.359E+02   0.771E+02 0.133E-04 -.346E+02   0.324E+00 -.265E-18 -.125E+01   -.678E-04 -.104E-08 0.483E-04
   0.638E+03 -.610E-04 -.493E+02   -.635E+03 -.169E-04 0.498E+02   -.204E+01 -.236E-17 -.538E+00   0.128E-03 0.901E-09 -.524E-04
   -.638E+03 0.904E-05 0.493E+02   0.635E+03 0.147E-04 -.498E+02   0.204E+01 -.258E-17 0.538E+00   -.128E-03 -.861E-09 0.524E-04
   0.371E+03 0.124E-04 -.896E+01   -.370E+03 0.135E-04 0.813E+01   -.119E+01 -.227E-17 0.853E+00   0.110E-03 -.101E-08 0.895E-05
   -.371E+03 -.614E-04 0.896E+01   0.370E+03 -.135E-04 -.813E+01   0.119E+01 0.197E-17 -.853E+00   -.110E-03 0.996E-09 -.894E-05
   0.277E+03 0.368E+02 -.469E+02   -.277E+03 -.383E+02 0.478E+02   -.969E-01 0.149E+01 -.865E+00   0.811E-04 0.438E-04 -.404E-04
   -.277E+03 -.368E+02 0.469E+02   0.277E+03 0.383E+02 -.478E+02   0.969E-01 -.149E+01 0.865E+00   -.811E-04 -.438E-04 0.404E-04
   0.127E+03 -.324E+02 0.303E+01   -.126E+03 0.335E+02 -.206E+01   -.608E+00 -.111E+01 -.976E+00   0.280E-04 -.275E-04 -.433E-06
   -.127E+03 0.324E+02 -.303E+01   0.126E+03 -.335E+02 0.206E+01   0.608E+00 0.111E+01 0.976E+00   -.280E-04 0.275E-04 0.435E-06
   -.277E+03 0.368E+02 0.469E+02   0.277E+03 -.383E+02 -.478E+02   0.969E-01 0.149E+01 0.865E+00   -.811E-04 0.438E-04 0.404E-04
   0.277E+03 -.368E+02 -.469E+02   -.277E+03 0.383E+02 0.478E+02   -.969E-01 -.149E+01 -.865E+00   0.811E-04 -.438E-04 -.404E-04
   -.127E+03 -.324E+02 -.303E+01   0.126E+03 0.335E+02 0.206E+01   0.608E+00 -.111E+01 0.976E+00   -.280E-04 -.275E-04 0.435E-06
   0.127E+03 0.324E+02 0.303E+01   -.126E+03 -.335E+02 -.206E+01   -.608E+00 0.111E+01 -.976E+00   0.280E-04 0.275E-04 -.433E-06
   0.335E+03 -.425E-05 0.458E+02   -.337E+03 -.605E-05 -.464E+02   0.136E+01 0.104E-18 0.663E+00   0.624E-04 0.297E-09 0.229E-04
   -.335E+03 0.614E-05 -.458E+02   0.337E+03 0.630E-05 0.464E+02   -.136E+01 -.380E-19 -.663E+00   -.624E-04 -.302E-09 -.229E-04
   0.318E+02 0.102E-04 -.111E+02   -.302E+02 0.772E-05 0.103E+02   -.137E+01 -.272E-18 0.793E+00   -.149E-04 -.415E-09 -.157E-04
   -.318E+02 -.106E-05 0.111E+02   0.302E+02 -.736E-05 -.103E+02   0.137E+01 -.264E-18 -.793E+00   0.149E-04 0.390E-09 0.157E-04
   0.247E+03 0.444E-05 0.101E+02   -.246E+03 0.814E-05 -.112E+02   -.702E+00 0.735E-18 0.114E+01   0.766E-04 -.362E-09 0.287E-04
   -.247E+03 -.558E-05 -.101E+02   0.246E+03 -.818E-05 0.112E+02   0.702E+00 -.524E-18 -.114E+01   -.766E-04 0.344E-09 -.287E-04
   0.161E+03 -.628E-05 0.614E+02   -.160E+03 -.764E-05 -.630E+02   -.832E+00 0.978E-17 0.165E+01   0.361E-04 0.378E-09 0.463E-04
   -.161E+03 0.374E-05 -.614E+02   0.160E+03 0.745E-05 0.630E+02   0.832E+00 0.992E-17 -.165E+01   -.361E-04 -.378E-09 -.463E-04
 -----------------------------------------------------------------------------------------------
   0.637E-04 -.206E-03 0.629E-04   -.853E-13 0.446E-14 -.213E-13   0.000E+00 -.203E-15 0.222E-15   -.206E-07 0.676E-10 -.314E-08
 
 
 POSITION                                       TOTAL-FORCE (eV/Angst)
 -----------------------------------------------------------------------------------
      0.13670      1.69446      8.19106         0.787118      0.000000     -0.000204
      8.97277      5.08339      3.41108        -0.787118      0.000000      0.000204
      4.36803      5.08339      2.17174        -0.095812      0.000000      0.000179
      4.74143      1.69446      9.43040         0.095812     -0.000000     -0.000179
      1.43529      5.08339     10.65809         0.705322      0.000000      0.000599
      7.67418      1.69446      0.94405        -0.705322     -0.000000     -0.000599
      3.06944      1.69446      4.60491         0.305391      0.000000      0.000656
      6.04002      5.08339      6.99723        -0.305391      0.000000     -0.000656
      1.75027      0.49399      1.67937        -0.129064     -0.000176      0.000009
      7.35920      6.28385      9.92277         0.129064      0.000176     -0.000009
      2.75446      6.28912      7.64543         0.042318     -0.000391     -0.000474
      6.35500      0.48873      3.95672        -0.042318      0.000391      0.000474
      7.35920      3.88292      9.92277         0.129064     -0.000176     -0.000009
      1.75027      2.89493      1.67937        -0.129064      0.000176      0.000009
      6.35500      2.90019      3.95672        -0.042318     -0.000391      0.000474
      2.75446      3.87766      7.64543         0.042318      0.000391     -0.000474
      0.74693      5.08339      6.95839        -0.200852      0.000000     -0.000423
      8.36254      1.69446      4.64375         0.200852      0.000000      0.000423
      3.75780      1.69446      0.97903         0.173210     -0.000000      0.000281
      5.35166      5.08339     10.62311        -0.173210      0.000000     -0.000281
      1.78112      1.69446     11.17456        -0.247386      0.000000     -0.000715
      7.32835      5.08339      0.42759         0.247386      0.000000      0.000715
      2.72362      5.08339      5.53598        -0.273791     -0.000000      0.000119
      6.38585      1.69446      6.06616         0.273791     -0.000000     -0.000119
 -----------------------------------------------------------------------------------
    total drift:                                0.000064     -0.000206      0.000063


--------------------------------------------------------------------------------------------------------



  FREE ENERGIE OF THE ION-ELECTRON SYSTEM (eV)
  ---------------------------------------------------
  free  energy   TOTEN  =      -107.58126311 eV

  energy  without entropy=     -107.58126311  energy(sigma->0) =     -107.58126311
 


--------------------------------------------------------------------------------------------------------


    POTLOK:  cpu time    0.0708: real time    0.0709


--------------------------------------------------------------------------------------------------------


 writing wavefunctions
     LOOP+:  cpu time   90.9541: real time   93.0190
    4ORBIT:  cpu time    0.0000: real time    0.0000
 BZINTS: Fermi energy: -0.391837;144.000000 electrons
         Band energy:***********;  BLOECHL correction:  0.000000

 total amount of memory used by VASP MPI-rank0    79350. kBytes
=======================================================================

   base      :      30000. kBytes
   nonlr-proj:       2644. kBytes
   fftplans  :       5898. kBytes
   grid      :       8824. kBytes
   one-center:         93. kBytes
   wavefun   :      31891. kBytes
 
  
  
 General timing and accounting informations for this job:
 ========================================================
  
                  Total CPU time used (sec):       99.354
                            User time (sec):       93.499
                          System time (sec):        5.855
                         Elapsed time (sec):      104.830
  
                   Maximum memory used (kb):      173068.
                   Average memory used (kb):           0.
  
                          Minor page faults:        78660
                          Major page faults:          143
                 Voluntary context switches:        14212
