 vasp.5.4.4.18Apr17-6-g9f103f2a35 (build Nov 21 2017 15:30:27) complex          
  
 executed on             LinuxIFC date 2020.09.14  02:36:03
 running on   64 total cores
 distrk:  each k-point on   32 cores,    2 groups
 distr:  one band on NCORES_PER_BAND=   4 cores,    8 groups


--------------------------------------------------------------------------------------------------------


 INCAR:
 POTCAR:   PAW_PBE Ba_sv 06Sep2000                
 POTCAR:   PAW_PBE Si 05Jan2001                   

 ----------------------------------------------------------------------------- 
|                                                                             |
|           W    W    AA    RRRRR   N    N  II  N    N   GGGG   !!!           |
|           W    W   A  A   R    R  NN   N  II  NN   N  G    G  !!!           |
|           W    W  A    A  R    R  N N  N  II  N N  N  G       !!!           |
|           W WW W  AAAAAA  RRRRR   N  N N  II  N  N N  G  GGG   !            |
|           WW  WW  A    A  R   R   N   NN  II  N   NN  G    G                |
|           W    W  A    A  R    R  N    N  II  N    N   GGGG   !!!           |
|                                                                             |
|      You have enabled k-point parallelism (KPAR>1).                         |
|      This developmental code was originally  written by Paul Kent at ORNL,  |
|      and carefully double checked in Vienna.                                |
|      GW as well as linear response parallelism added by Martijn Marsman     |
|      and Georg Kresse.                                                      |
|      Carefully verify results versus KPAR=1.                                |
|      Report problems to Paul Kent and Vienna.                               |
|                                                                             |
 ----------------------------------------------------------------------------- 

 POTCAR:   PAW_PBE Ba_sv 06Sep2000                
   VRHFIN =Ba: 5s5p6s                                                           
   LEXCH  = PE                                                                  
   EATOM  =   700.2255 eV,   51.4651 Ry                                         
                                                                                
   TITEL  = PAW_PBE Ba_sv 06Sep2000                                             
   LULTRA =        F    use ultrasoft PP ?                                      
   IUNSCR =        1    unscreen: 0-lin 1-nonlin 2-no                           
   RPACOR =    2.400    partial core radius                                     
   POMASS =  137.327; ZVAL   =   10.000    mass and valenz                      
   RCORE  =    2.800    outmost cutoff radius                                   
   RWIGS  =    3.740; RWIGS  =    1.979    wigner-seitz radius (au A)           
   ENMAX  =  187.210; ENMIN  =  140.408 eV                                      
   RCLOC  =    2.516    cutoff for local pot                                    
   LCOR   =        T    correct aug charges                                     
   LPAW   =        T    paw PP                                                  
   EAUG   =  351.165                                                            
   DEXC   =     .000                                                            
   RMAX   =    3.370    core radius for proj-oper                               
   RAUG   =    1.300    factor for augmentation sphere                          
   RDEP   =    2.976    radius for radial grids                                 
   QCUT   =   -3.709; QGAM   =    7.419    optimization parameters              
                                                                                
   Description                                                                  
     l     E      TYP  RCUT    TYP  RCUT                                        
     0   .000     23  2.800                                                     
     0   .000     23  2.800                                                     
     1   .000     23  2.700                                                     
     1  2.000     23  2.700                                                     
     2   .000     23  2.700                                                     
     2   .000     23  2.700                                                     
  local pseudopotential read in
  partial core-charges read in
  atomic valenz-charges read in
  non local Contribution for L=           0  read in
    real space projection operators read in
  non local Contribution for L=           0  read in
    real space projection operators read in
  non local Contribution for L=           1  read in
    real space projection operators read in
  non local Contribution for L=           1  read in
    real space projection operators read in
  non local Contribution for L=           2  read in
    real space projection operators read in
  non local Contribution for L=           2  read in
    real space projection operators read in
    PAW grid and wavefunctions read in
 
   number of l-projection  operators is LMAX  =           6
   number of lm-projection operators is LMMAX =          18
 
 POTCAR:   PAW_PBE Si 05Jan2001                   
   VRHFIN =Si: s2p2                                                             
   LEXCH  = PE                                                                  
   EATOM  =   103.0669 eV,    7.5752 Ry                                         
                                                                                
   TITEL  = PAW_PBE Si 05Jan2001                                                
   LULTRA =        F    use ultrasoft PP ?                                      
   IUNSCR =        1    unscreen: 0-lin 1-nonlin 2-no                           
   RPACOR =    1.500    partial core radius                                     
   POMASS =   28.085; ZVAL   =    4.000    mass and valenz                      
   RCORE  =    1.900    outmost cutoff radius                                   
   RWIGS  =    2.480; RWIGS  =    1.312    wigner-seitz radius (au A)           
   ENMAX  =  245.345; ENMIN  =  184.009 eV                                      
   ICORE  =        2    local potential                                         
   LCOR   =        T    correct aug charges                                     
   LPAW   =        T    paw PP                                                  
   EAUG   =  322.069                                                            
   DEXC   =    -.007                                                            
   RMAX   =    2.944    core radius for proj-oper                               
   RAUG   =    1.300    factor for augmentation sphere                          
   RDEP   =    1.993    radius for radial grids                                 
   QCUT   =   -4.246; QGAM   =    8.493    optimization parameters              
                                                                                
   Description                                                                  
     l     E      TYP  RCUT    TYP  RCUT                                        
     0   .000     23  1.900                                                     
     0   .000     23  1.900                                                     
     1   .000     23  1.900                                                     
     1   .000     23  1.900                                                     
     2   .000      7  1.900                                                     
  local pseudopotential read in
  partial core-charges read in
  atomic valenz-charges read in
  non local Contribution for L=           0  read in
    real space projection operators read in
  non local Contribution for L=           0  read in
    real space projection operators read in
  non local Contribution for L=           1  read in
    real space projection operators read in
  non local Contribution for L=           1  read in
    real space projection operators read in
    PAW grid and wavefunctions read in
 
   number of l-projection  operators is LMAX  =           4
   number of lm-projection operators is LMMAX =           8
 
 Optimization of the real space projectors (new method)

 maximal supplied QI-value         = 13.42
 optimisation between [QCUT,QGAM] = [ 11.40, 22.81] = [ 36.42,145.68] Ry 
 Optimized for a Real-space Cutoff    1.56 Angstroem

   l    n(q)    QCUT    max X(q) W(low)/X(q) W(high)/X(q)  e(spline) 
   0     11    11.404     7.198    0.14E-04    0.26E-04    0.99E-07
   0     11    11.404    15.603    0.29E-04    0.72E-04    0.44E-06
   1     10    11.404     3.746    0.20E-04    0.24E-04    0.43E-07
   1     10    11.404     4.362    0.22E-03    0.97E-04    0.22E-06
   2     10    11.404     5.782    0.83E-04    0.62E-05    0.27E-06
   2     10    11.404    65.505    0.42E-03    0.31E-04    0.12E-05
 Optimization of the real space projectors (new method)

 maximal supplied QI-value         = 19.84
 optimisation between [QCUT,QGAM] = [ 11.31, 22.82] = [ 35.82,145.81] Ry 
 Optimized for a Real-space Cutoff    1.16 Angstroem

   l    n(q)    QCUT    max X(q) W(low)/X(q) W(high)/X(q)  e(spline) 
   0      8    11.310     8.708    0.14E-04    0.11E-04    0.43E-08
   0      8    11.310   106.241    0.27E-03    0.30E-03    0.38E-07
   1      7    11.310     5.901    0.82E-05    0.48E-04    0.19E-07
   1      7    11.310    73.241    0.27E-03    0.27E-03    0.74E-07
 PAW_PBE Ba_sv 06Sep2000                :
 energy of atom  1       EATOM= -700.2255
 kinetic energy error for atom=    0.0005 (will be added to EATOM!!)
 PAW_PBE Si 05Jan2001                   :
 energy of atom  2       EATOM= -103.0669
 kinetic energy error for atom=    0.0006 (will be added to EATOM!!)
 
 
 POSCAR: ba8 si16                                
  positions in direct lattice
  velocities in cartesian coordinates
 exchange correlation table for  LEXCH =        8
   RHO(1)=    0.500       N(1)  =     2000
   RHO(2)=  100.500       N(2)  =     4000
 


--------------------------------------------------------------------------------------------------------


 ion  position               nearest neighbor table
   1  0.006  0.250  0.705-  21 3.40  16 3.45  11 3.45  17 3.65  17 3.65   5 4.39   5 4.39   7 4.63

   2  0.380  0.750  0.295-  22 3.40  12 3.45  15 3.45  18 3.65  18 3.65   6 4.39   6 4.39   8 4.63

   3  0.182  0.750  0.186-  20 3.32   9 3.45  14 3.45  12 3.54  15 3.54  22 3.55  19 3.65  19 3.65
                            23 3.75   5 4.29   7 4.37   7 4.37
   4  0.204  0.250  0.814-  19 3.32  13 3.45  10 3.45  16 3.54  11 3.54  21 3.55  20 3.65  20 3.65
                            24 3.75   6 4.29   8 4.37   8 4.37
   5  0.060  0.750  0.917-   9 3.43  14 3.43  21 3.45  21 3.45  11 3.48  16 3.48  17 3.74   3 4.29
                             1 4.39   1 4.39
   6  0.326  0.250  0.083-  13 3.43  10 3.43  22 3.45  22 3.45  15 3.48  12 3.48  18 3.74   4 4.29
                             2 4.39   2 4.39
   7  0.128  0.250  0.396-  14 3.43   9 3.43  23 3.54  23 3.54  15 3.70  12 3.70  19 3.70  24 3.77
                            16 3.77  11 3.77   3 4.37   3 4.37   1 4.63
   8  0.258  0.750  0.604-  10 3.43  13 3.43  24 3.54  24 3.54  11 3.70  16 3.70  20 3.70  23 3.77
                            12 3.77  15 3.77   4 4.37   4 4.37   2 4.63
   9  0.073  0.073  0.143-  14 2.40  21 2.43  19 2.44   7 3.43   5 3.43   3 3.45
  10  0.313  0.927  0.857-  13 2.40  22 2.43  20 2.44   8 3.43   6 3.43   4 3.45
  11  0.115  0.928  0.659-  16 2.42  23 2.43  17 2.44   1 3.45   5 3.48   4 3.54   8 3.70   7 3.77

  12  0.271  0.072  0.341-  15 2.42  24 2.43  18 2.44   2 3.45   6 3.48   3 3.54   7 3.70   8 3.77

  13  0.313  0.573  0.857-  10 2.40  22 2.43  20 2.44   8 3.43   6 3.43   4 3.45
  14  0.073  0.427  0.143-   9 2.40  21 2.43  19 2.44   7 3.43   5 3.43   3 3.45
  15  0.271  0.428  0.341-  12 2.42  24 2.43  18 2.44   2 3.45   6 3.48   3 3.54   7 3.70   8 3.77

  16  0.115  0.572  0.659-  11 2.42  23 2.43  17 2.44   1 3.45   5 3.48   4 3.54   8 3.70   7 3.77

  17  0.031  0.750  0.600-  23 2.44  11 2.44  16 2.44   1 3.65   1 3.65   5 3.74
  18  0.355  0.250  0.400-  24 2.44  15 2.44  12 2.44   2 3.65   2 3.65   6 3.74
  19  0.157  0.250  0.082-  21 2.42  14 2.44   9 2.44   4 3.32   3 3.65   3 3.65   7 3.70
  20  0.229  0.750  0.918-  22 2.42  10 2.44  13 2.44   3 3.32   4 3.65   4 3.65   8 3.70
  21  0.074  0.250  0.961-  19 2.42  14 2.43   9 2.43   1 3.40   5 3.45   5 3.45   4 3.55
  22  0.311  0.750  0.039-  20 2.42  10 2.43  13 2.43   2 3.40   6 3.45   6 3.45   3 3.55
  23  0.113  0.750  0.477-  11 2.43  16 2.43  17 2.44   7 3.54   7 3.54   3 3.75   8 3.77
  24  0.272  0.250  0.523-  15 2.43  12 2.43  18 2.44   8 3.54   8 3.54   4 3.75   7 3.77
 
  LATTYP: Found a simple orthorhombic cell.
 ALAT       =     6.7778496742
 B/A-ratio  =     1.7117734747
 C/A-ratio  =     3.5423429602
  
  Lattice vectors:
  
 A1 = (   0.0000000000,   6.7778496742,   0.0000000000)
 A2 = (   0.0000000000,   0.0000000000, -11.6021432877)
 A3 = ( -24.0094680786,   0.0000000000,   0.0000000000)


Analysis of symmetry for initial positions (statically):
=====================================================================
 Subroutine PRICEL returns:
 Original cell was already a primitive cell.
 

 Routine SETGRP: Setting up the symmetry group for a 
 simple orthorhombic supercell.


 Subroutine GETGRP returns: Found  4 space group operations
 (whereof  1 operations were pure point group operations)
 out of a pool of  8 trial point group operations.


The static configuration has the point symmetry C_1 .
 The point group associated with its full space group is C_2h.


Analysis of symmetry for dynamics (positions and initial velocities):
=====================================================================
 Subroutine PRICEL returns:
 Original cell was already a primitive cell.
 

 Routine SETGRP: Setting up the symmetry group for a 
 simple orthorhombic supercell.


 Subroutine GETGRP returns: Found  4 space group operations
 (whereof  1 operations were pure point group operations)
 out of a pool of  8 trial point group operations.


The dynamic configuration has the point symmetry C_1 .
 The point group associated with its full space group is C_2h.


Analysis of constrained symmetry for selective dynamics:
=====================================================================
 Subroutine PRICEL returns:
 Original cell was already a primitive cell.
 

 Routine SETGRP: Setting up the symmetry group for a 
 simple orthorhombic supercell.


 Subroutine GETGRP returns: Found  4 space group operations
 (whereof  1 operations were pure point group operations)
 out of a pool of  8 trial point group operations.


The constrained configuration has the point symmetry C_1 .
 The point group associated with its full space group is C_2h.


 Subroutine INISYM returns: Found  4 space group operations
 (whereof  1 operations are pure point group operations),
 and found     1 'primitive' translations

 
 
 KPOINTS: k-density: 8.0                          

Automatic generation of k-mesh.
Space group operators:
 irot       det(A)        alpha          n_x          n_y          n_z        tau_x        tau_y        tau_z
    1     1.000000     0.000000     1.000000     0.000000     0.000000     0.000000     0.000000     0.000000
    2    -1.000000     0.000000     1.000000     0.000000     0.000000    -0.614341     0.000000     0.000000
    3     1.000000   180.000000     0.000000     1.000000     0.000000    -0.614341     0.500000     0.000000
    4    -1.000000   180.000000     0.000000     1.000000     0.000000     0.000000     0.500000     0.000000
 
 Subroutine IBZKPT returns following result:
 ===========================================
 
 Found     15 irreducible k-points:
 
 Following reciprocal coordinates:
            Coordinates               Weight
  0.000000  0.000000  0.000000      1.000000
  0.000000  0.125000  0.000000      2.000000
  0.000000  0.250000  0.000000      2.000000
  0.000000  0.375000  0.000000      2.000000
  0.000000  0.500000  0.000000      1.000000
  0.000000  0.000000  0.200000      2.000000
  0.000000  0.125000  0.200000      4.000000
  0.000000  0.250000  0.200000      4.000000
  0.000000  0.375000  0.200000      4.000000
  0.000000  0.500000  0.200000      2.000000
  0.000000  0.000000  0.400000      2.000000
  0.000000  0.125000  0.400000      4.000000
  0.000000  0.250000  0.400000      4.000000
  0.000000  0.375000  0.400000      4.000000
  0.000000  0.500000  0.400000      2.000000
 
 Following cartesian coordinates:
            Coordinates               Weight
  0.000000  0.000000  0.000000      1.000000
  0.000000  0.018442  0.000000      2.000000
  0.000000  0.036885  0.000000      2.000000
  0.000000  0.055327  0.000000      2.000000
  0.000000  0.073770  0.000000      1.000000
  0.000000  0.000000  0.017238      2.000000
  0.000000  0.018442  0.017238      4.000000
  0.000000  0.036885  0.017238      4.000000
  0.000000  0.055327  0.017238      4.000000
  0.000000  0.073770  0.017238      2.000000
  0.000000  0.000000  0.034476      2.000000
  0.000000  0.018442  0.034476      4.000000
  0.000000  0.036885  0.034476      4.000000
  0.000000  0.055327  0.034476      4.000000
  0.000000  0.073770  0.034476      2.000000
 
 TETIRR: Found    108 inequivalent tetrahedra from      240


--------------------------------------------------------------------------------------------------------




 Dimension of arrays:
   k-points           NKPTS =     15   k-points in BZ     NKDIM =     15   number of bands    NBANDS=     88
   number of dos      NEDOS =    301   number of ions     NIONS =     24
   non local maximal  LDIM  =      6   non local SUM 2l+1 LMDIM =     18
   total plane-waves  NPLWV = 358400
   max r-space proj   IRMAX =   3093   max aug-charges    IRDMAX=  12081
   dimension x,y,z NGX =   140 NGY =   40 NGZ =   64
   dimension x,y,z NGXF=   280 NGYF=   80 NGZF=  128
   support grid    NGXF=   280 NGYF=   80 NGZF=  128
   ions per type =               8  16
   NGX,Y,Z   is equivalent  to a cutoff of   9.69,  9.81,  9.17 a.u.
   NGXF,Y,Z  is equivalent  to a cutoff of  19.39, 19.62, 18.34 a.u.

 SYSTEM =  unknown system                          
 POSCAR =  ba8 si16                                

 Startparameter for this run:
   NWRITE =      2    write-flag & timer
   PREC   = normal    normal or accurate (medium, high low for compatibility)
   ISTART =      0    job   : 0-new  1-cont  2-samecut
   ICHARG =      2    charge: 1-file 2-atom 10-const
   ISPIN  =      1    spin polarized calculation?
   LNONCOLLINEAR =      F non collinear calculations
   LSORBIT =      F    spin-orbit coupling
   INIWAV =      1    electr: 0-lowe 1-rand  2-diag
   LASPH  =      F    aspherical Exc in radial PAW
   METAGGA=      F    non-selfconsistent MetaGGA calc.

 Electronic Relaxation 1
   ENCUT  =  500.0 eV  36.75 Ry    6.06 a.u.  43.77 12.36 21.15*2*pi/ulx,y,z
   ENINI  =  500.0     initial cutoff
   ENAUG  =  351.2 eV  augmentation charge cutoff
   NELM   =    100;   NELMIN=  2; NELMDL= -5     # of ELM steps 
   EDIFF  = 0.1E-05   stopping-criterion for ELM
   LREAL  =      T    real-space projection
   NLSPLINE    = F    spline interpolate recip. space projectors
   LCOMPAT=      F    compatible to vasp.4.4
   GGA_COMPAT  = T    GGA compatible to vasp.4.4-vasp.4.6
   LMAXPAW     = -100 max onsite density
   LMAXMIX     =    2 max onsite mixed and CHGCAR
   VOSKOWN=      0    Vosko Wilk Nusair interpolation
   ROPT   =   -0.00050  -0.00050
 Ionic relaxation
   EDIFFG = -.1E-02   stopping-criterion for IOM
   NSW    =      0    number of steps for IOM
   NBLOCK =      1;   KBLOCK =      1    inner block; outer block 
   IBRION =     -1    ionic relax: 0-MD 1-quasi-New 2-CG
   NFREE  =      0    steps in history (QN), initial steepest desc. (CG)
   ISIF   =      2    stress and relaxation
   IWAVPR =     10    prediction:  0-non 1-charg 2-wave 3-comb
   ISYM   =      2    0-nonsym 1-usesym 2-fastsym
   LCORR  =      T    Harris-Foulkes like correction to forces

   POTIM  = 0.3000    time-step for ionic-motion
   TEIN   =    0.0    initial temperature
   TEBEG  =    0.0;   TEEND  =   0.0 temperature during run
   SMASS  =  -3.00    Nose mass-parameter (am)
   estimated Nose-frequenzy (Omega)   =  0.10E-29 period in steps =****** mass=  -0.132E-25a.u.
   SCALEE = 1.0000    scale energy and forces
   NPACO  =    256;   APACO  = 16.0  distance and # of slots for P.C.
   PSTRESS=    0.0 pullay stress

  Mass of Ions in am
   POMASS = 137.33 28.09
  Ionic Valenz
   ZVAL   =  10.00  4.00
  Atomic Wigner-Seitz radii
   RWIGS  =  -1.00 -1.00
  virtual crystal weights 
   VCA    =   1.00  1.00
   NELECT =     144.0000    total number of electrons
   NUPDOWN=      -1.0000    fix difference up-down

 DOS related values:
   EMIN   =  10.00;   EMAX   =-10.00  energy-range for DOS
   EFERMI =   0.00
   ISMEAR =    -5;   SIGMA  =   0.01  broadening in eV -4-tet -1-fermi 0-gaus

 Electronic relaxation 2 (details)
   IALGO  =     38    algorithm
   LDIAG  =      T    sub-space diagonalisation (order eigenvalues)
   LSUBROT=      F    optimize rotation matrix (better conditioning)
   TURBO    =      0    0=normal 1=particle mesh
   IRESTART =      0    0=no restart 2=restart with 2 vectors
   NREBOOT  =      0    no. of reboots
   NMIN     =      0    reboot dimension
   EREF     =   0.00    reference energy to select bands
   IMIX   =      4    mixing-type and parameters
     AMIX     =   0.40;   BMIX     =  1.00
     AMIX_MAG =   1.60;   BMIX_MAG =  1.00
     AMIN     =   0.10
     WC   =   100.;   INIMIX=   1;  MIXPRE=   1;  MAXMIX= -45

 Intra band minimization:
   WEIMIN = 0.0000     energy-eigenvalue tresh-hold
   EBREAK =  0.28E-08  absolut break condition
   DEPER  =   0.30     relativ break condition  

   TIME   =   0.40     timestep for ELM

  volume/ion in A,a.u.               =      78.67       530.88
  Fermi-wavevector in a.u.,A,eV,Ry     =   0.694264  1.311969  6.558046  0.482003
  Thomas-Fermi vector in A             =   1.776709
 
 Write flags
   LWAVE        =      T    write WAVECAR
   LDOWNSAMPLE  =      F    k-point downsampling of WAVECAR
   LCHARG       =      T    write CHGCAR
   LVTOT        =      F    write LOCPOT, total local potential
   LVHAR        =      F    write LOCPOT, Hartree potential only
   LELF         =      F    write electronic localiz. function (ELF)
   LORBIT       =      0    0 simple, 1 ext, 2 COOP (PROOUT), +10 PAW based schemes


 Dipole corrections
   LMONO  =      F    monopole corrections only (constant potential shift)
   LDIPOL =      F    correct potential (dipole corrections)
   IDIPOL =      0    1-x, 2-y, 3-z, 4-all directions 
   EPSILON=  1.0000000 bulk dielectric constant

 Exchange correlation treatment:
   GGA     =    --    GGA type
   LEXCH   =     8    internal setting for exchange type
   VOSKOWN=      0    Vosko Wilk Nusair interpolation
   LHFCALC =     F    Hartree Fock is set to
   LHFONE  =     F    Hartree Fock one center treatment
   AEXX    =    0.0000 exact exchange contribution

 Linear response parameters
   LEPSILON=     F    determine dielectric tensor
   LRPA    =     F    only Hartree local field effects (RPA)
   LNABLA  =     F    use nabla operator in PAW spheres
   LVEL    =     F    velocity operator in full k-point grid
   LINTERFAST=   F  fast interpolation
   KINTER  =     0    interpolate to denser k-point grid
   CSHIFT  =0.1000    complex shift for real part using Kramers Kronig
   OMEGAMAX=  -1.0    maximum frequency
   DEG_THRESHOLD= 0.2000000E-02 threshold for treating states as degnerate
   RTIME   =   -0.100 relaxation time in fs
  (WPLASMAI=    0.000 imaginary part of plasma frequency in eV, 0.658/RTIME)
   DFIELD  = 0.0000000 0.0000000 0.0000000 field for delta impulse in time
 
 Orbital magnetization related:
   ORBITALMAG=     F  switch on orbital magnetization
   LCHIMAG   =     F  perturbation theory with respect to B field
   DQ        =  0.001000  dq finite difference perturbation B field
   LLRAUG    =     F  two centre corrections for induced B field



--------------------------------------------------------------------------------------------------------


 Static calculation
 charge density and potential will be updated during run
 non-spin polarized calculation
 Variant of blocked Davidson
 Davidson routine will perform the subspace rotation
 perform sub-space diagonalisation
    after iterative eigenvector-optimisation
 modified Broyden-mixing scheme, WC =      100.0
 initial mixing is a Kerker type mixing with AMIX =  0.4000 and BMIX =      1.0000
 Hartree-type preconditioning will be used
 using additional bands           16
 real space projection scheme for non local part
 use partial core corrections
 calculate Harris-corrections to forces 
   (improved forces if not selfconsistent)
 use gradient corrections 
 use of overlap-Matrix (Vanderbilt PP)
 Fermi weights with tetrahedron method with Bloechl corrections


--------------------------------------------------------------------------------------------------------


  energy-cutoff  :      500.00
  volume of cell :     1888.05
      direct lattice vectors                 reciprocal lattice vectors
    24.009468079  0.000000000  0.000000000     0.041650236  0.000000000  0.000000000
     0.000000000  6.777849674  0.000000000     0.000000000  0.147539419  0.000000000
     0.000000000  0.000000000 11.602143288     0.000000000  0.000000000  0.086190971

  length of vectors
    24.009468079  6.777849674 11.602143288     0.041650236  0.147539419  0.086190971


 
 k-points in units of 2pi/SCALE and weight: k-density: 8.0                          
   0.00000000  0.00000000  0.00000000       0.025
   0.00000000  0.01844243  0.00000000       0.050
   0.00000000  0.03688485  0.00000000       0.050
   0.00000000  0.05532728  0.00000000       0.050
   0.00000000  0.07376971  0.00000000       0.025
   0.00000000  0.00000000  0.01723819       0.050
   0.00000000  0.01844243  0.01723819       0.100
   0.00000000  0.03688485  0.01723819       0.100
   0.00000000  0.05532728  0.01723819       0.100
   0.00000000  0.07376971  0.01723819       0.050
   0.00000000  0.00000000  0.03447639       0.050
   0.00000000  0.01844243  0.03447639       0.100
   0.00000000  0.03688485  0.03447639       0.100
   0.00000000  0.05532728  0.03447639       0.100
   0.00000000  0.07376971  0.03447639       0.050
 
 k-points in reciprocal lattice and weights: k-density: 8.0                          
   0.00000000  0.00000000  0.00000000       0.025
   0.00000000  0.12500000  0.00000000       0.050
   0.00000000  0.25000000  0.00000000       0.050
   0.00000000  0.37500000  0.00000000       0.050
   0.00000000  0.50000000  0.00000000       0.025
   0.00000000  0.00000000  0.20000000       0.050
   0.00000000  0.12500000  0.20000000       0.100
   0.00000000  0.25000000  0.20000000       0.100
   0.00000000  0.37500000  0.20000000       0.100
   0.00000000  0.50000000  0.20000000       0.050
   0.00000000  0.00000000  0.40000000       0.050
   0.00000000  0.12500000  0.40000000       0.100
   0.00000000  0.25000000  0.40000000       0.100
   0.00000000  0.37500000  0.40000000       0.100
   0.00000000  0.50000000  0.40000000       0.050
 
 position of ions in fractional coordinates (direct lattice) 
   0.00569361  0.25000000  0.70468899
   0.37996541  0.75000002  0.29531101
   0.18192962  0.75000002  0.18640317
   0.20372941  0.25000000  0.81359681
   0.05978014  0.75000002  0.91694585
   0.32587889  0.25000000  0.08305413
   0.12784309  0.25000000  0.39557203
   0.25781593  0.75000002  0.60442801
   0.07289913  0.07289968  0.14317318
   0.31275989  0.92710031  0.85682680
   0.11472410  0.92828467  0.65937562
   0.27093493  0.07171532  0.34062438
   0.31275989  0.57289969  0.85682680
   0.07289913  0.42710031  0.14317318
   0.27093493  0.42828467  0.34062438
   0.11472410  0.57171533  0.65937562
   0.03110981  0.75000002  0.59992094
   0.35454921  0.25000000  0.40007906
   0.15651343  0.25000000  0.08221777
   0.22914561  0.75000002  0.91778221
   0.07418398  0.25000000  0.96137350
   0.31147505  0.75000002  0.03862652
   0.11343925  0.75000002  0.47732434
   0.27221977  0.25000000  0.52267558
 
 position of ions in cartesian coordinates  (Angst):
   0.13670066  1.69446242  8.17590265
   9.12276745  5.08338737  3.42624064
   4.36803341  5.08338737  2.16267625
   4.89143467  1.69446242  9.43946680
   1.43528938  5.08338737 10.63853709
   7.82417870  1.69446242  0.96360596
   3.06944466  1.69446242  4.58948343
   6.19002342  5.08338737  7.01266034
   1.75026941  0.49410309  1.66111578
   7.50919867  6.28374653  9.94102727
   2.75446463  6.29177393  7.65017042
   6.50500345  0.48607569  3.95197287
   7.50919867  3.88302799  9.94102727
   1.75026941  2.89482169  1.66111578
   6.50500345  2.90284909  3.95197287
   2.75446463  3.87500058  7.65017042
   0.74692994  5.08338737  6.96036871
   8.51253796  1.69446242  4.64177458
   3.75780416  1.69446242  0.95390234
   5.50166416  5.08338737 10.64824071
   1.78111780  1.69446242 11.15399305
   7.47835016  5.08338737  0.44815042
   2.72361612  5.08338737  5.53798534
   6.53585196  1.69446242  6.06415699
 


--------------------------------------------------------------------------------------------------------


 k-point  1 :   0.0000 0.0000 0.0000  plane waves:   47989
 k-point  2 :   0.0000 0.1250 0.0000  plane waves:   47929
 k-point  3 :   0.0000 0.2500 0.0000  plane waves:   47901
 k-point  4 :   0.0000 0.3750 0.0000  plane waves:   47910
 k-point  5 :   0.0000 0.5000 0.0000  plane waves:   47868
 k-point  6 :   0.0000 0.0000 0.2000  plane waves:   48006
 k-point  7 :   0.0000 0.1250 0.2000  plane waves:   47967
 k-point  8 :   0.0000 0.2500 0.2000  plane waves:   47907
 k-point  9 :   0.0000 0.3750 0.2000  plane waves:   47884
 k-point 10 :   0.0000 0.5000 0.2000  plane waves:   47884
 k-point 11 :   0.0000 0.0000 0.4000  plane waves:   47922
 k-point 12 :   0.0000 0.1250 0.4000  plane waves:   47954
 k-point 13 :   0.0000 0.2500 0.4000  plane waves:   47967
 k-point 14 :   0.0000 0.3750 0.4000  plane waves:   47928
 k-point 15 :   0.0000 0.5000 0.4000  plane waves:   47890

 maximum and minimum number of plane-waves per node :     12077    11868

 maximum number of plane-waves:     48006
 maximum index in each direction: 
   IXMAX=   43   IYMAX=   12   IZMAX=   21
   IXMIN=  -43   IYMIN=  -12   IZMIN=  -21


 real space projection operators:
  total allocation   :       4536.83 KBytes
  max/ min on nodes  :       1136.75       1127.41


 parallel 3D FFT for wavefunctions:
    minimum data exchange during FFTs selected (reduces bandwidth)
 parallel 3D FFT for charge:
    minimum data exchange during FFTs selected (reduces bandwidth)


 total amount of memory used by VASP MPI-rank0    79355. kBytes
=======================================================================

   base      :      30000. kBytes
   nonlr-proj:       2649. kBytes
   fftplans  :       5898. kBytes
   grid      :       8824. kBytes
   one-center:         93. kBytes
   wavefun   :      31891. kBytes
 
     INWAV:  cpu time    0.0000: real time    0.0000
 Broyden mixing: mesh for mixing (old mesh)
   NGX = 87   NGY = 25   NGZ = 43
  (NGX  =280   NGY  = 80   NGZ  =128)
  gives a total of  93525 points

 initial charge density was supplied:
 charge density of overlapping atoms calculated
 number of electron     144.0000000 magnetization 
 keeping initial charge density in first step


--------------------------------------------------------------------------------------------------------


 Maximum index for non-local projection operator          744
 Maximum index for augmentation-charges          603 (set IRDMAX)


--------------------------------------------------------------------------------------------------------


 First call to EWALD:  gamma=   0.143
 Maximum number of real-space cells 2x 5x 3
 Maximum number of reciprocal cells 5x 2x 3

    FEWALD:  cpu time    0.0017: real time    0.0018


--------------------------------------- Iteration      1(   1)  ---------------------------------------


    POTLOK:  cpu time    0.0664: real time    0.1167
    SETDIJ:  cpu time    0.0022: real time    0.0024
     EDDAV:  cpu time    2.5504: real time    2.5628
 BZINTS: Fermi energy:  7.044810;144.000000 electrons
         Band energy:-462.816246;  BLOECHL correction: -0.027500
       DOS:  cpu time    0.0121: real time    0.0124
    --------------------------------------------
      LOOP:  cpu time    2.6311: real time    2.6943

 eigenvalue-minimisations  :  2768
 total energy-change (2. order) : 0.1187501E+04  (-0.4783824E+04)
 number of electron     144.0000000 magnetization 
 augmentation part      144.0000000 magnetization 

 Free energy of the ion-electron system (eV)
  ---------------------------------------------------
  alpha Z        PSCENC =       170.45750602
  Ewald energy   TEWEN  =     11815.53903330
  -Hartree energ DENC   =    -17930.45791498
  -exchange      EXHF   =         0.00000000
  -V(xc)+E(xc)   XCENC  =        42.25909545
  PAW double counting   =      3692.15173346    -3390.49189382
  entropy T*S    EENTRO =         0.00000000
  eigenvalues    EBANDS =      -462.81624564
  atomic energy  EATOM  =      7250.85976021
  Solvation  Ediel_sol  =         0.00000000
  ---------------------------------------------------
  free energy    TOTEN  =      1187.50107400 eV

  energy without entropy =     1187.50107400  energy(sigma->0) =     1187.50107400


--------------------------------------------------------------------------------------------------------




--------------------------------------- Iteration      1(   2)  ---------------------------------------


     EDDAV:  cpu time    3.5288: real time    3.5506
 BZINTS: Fermi energy: -2.021596;144.000000 electrons
         Band energy:***********;  BLOECHL correction:  0.000000
       DOS:  cpu time    0.0025: real time    0.0025
    --------------------------------------------
      LOOP:  cpu time    3.5314: real time    3.5531

 eigenvalue-minimisations  :  3816
 total energy-change (2. order) :-0.1126990E+04  (-0.1097881E+04)
 number of electron     144.0000000 magnetization 
 augmentation part      144.0000000 magnetization 

 Free energy of the ion-electron system (eV)
  ---------------------------------------------------
  alpha Z        PSCENC =       170.45750602
  Ewald energy   TEWEN  =     11815.53903330
  -Hartree energ DENC   =    -17930.45791498
  -exchange      EXHF   =         0.00000000
  -V(xc)+E(xc)   XCENC  =        42.25909545
  PAW double counting   =      3692.15173346    -3390.49189382
  entropy T*S    EENTRO =         0.00000000
  eigenvalues    EBANDS =     -1589.80655388
  atomic energy  EATOM  =      7250.85976021
  Solvation  Ediel_sol  =         0.00000000
  ---------------------------------------------------
  free energy    TOTEN  =        60.51076575 eV

  energy without entropy =       60.51076575  energy(sigma->0) =       60.51076575


--------------------------------------------------------------------------------------------------------




--------------------------------------- Iteration      1(   3)  ---------------------------------------


     EDDAV:  cpu time    3.1854: real time    3.2035
 BZINTS: Fermi energy: -3.313639;144.000000 electrons
         Band energy:***********;  BLOECHL correction:  0.000000
       DOS:  cpu time    0.0020: real time    0.0020
    --------------------------------------------
      LOOP:  cpu time    3.1875: real time    3.2056

 eigenvalue-minimisations  :  3232
 total energy-change (2. order) :-0.1692919E+03  (-0.1685779E+03)
 number of electron     144.0000000 magnetization 
 augmentation part      144.0000000 magnetization 

 Free energy of the ion-electron system (eV)
  ---------------------------------------------------
  alpha Z        PSCENC =       170.45750602
  Ewald energy   TEWEN  =     11815.53903330
  -Hartree energ DENC   =    -17930.45791498
  -exchange      EXHF   =         0.00000000
  -V(xc)+E(xc)   XCENC  =        42.25909545
  PAW double counting   =      3692.15173346    -3390.49189382
  entropy T*S    EENTRO =         0.00000000
  eigenvalues    EBANDS =     -1759.09841872
  atomic energy  EATOM  =      7250.85976021
  Solvation  Ediel_sol  =         0.00000000
  ---------------------------------------------------
  free energy    TOTEN  =      -108.78109908 eV

  energy without entropy =     -108.78109908  energy(sigma->0) =     -108.78109908


--------------------------------------------------------------------------------------------------------




--------------------------------------- Iteration      1(   4)  ---------------------------------------


     EDDAV:  cpu time    3.4371: real time    3.4562
 BZINTS: Fermi energy: -3.373042;144.000000 electrons
         Band energy:***********;  BLOECHL correction:  0.000000
       DOS:  cpu time    0.0024: real time    0.0024
    --------------------------------------------
      LOOP:  cpu time    3.4395: real time    3.4586

 eigenvalue-minimisations  :  3736
 total energy-change (2. order) :-0.6043428E+01  (-0.6027023E+01)
 number of electron     144.0000000 magnetization 
 augmentation part      144.0000000 magnetization 

 Free energy of the ion-electron system (eV)
  ---------------------------------------------------
  alpha Z        PSCENC =       170.45750602
  Ewald energy   TEWEN  =     11815.53903330
  -Hartree energ DENC   =    -17930.45791498
  -exchange      EXHF   =         0.00000000
  -V(xc)+E(xc)   XCENC  =        42.25909545
  PAW double counting   =      3692.15173346    -3390.49189382
  entropy T*S    EENTRO =         0.00000000
  eigenvalues    EBANDS =     -1765.14184662
  atomic energy  EATOM  =      7250.85976021
  Solvation  Ediel_sol  =         0.00000000
  ---------------------------------------------------
  free energy    TOTEN  =      -114.82452699 eV

  energy without entropy =     -114.82452699  energy(sigma->0) =     -114.82452699


--------------------------------------------------------------------------------------------------------




--------------------------------------- Iteration      1(   5)  ---------------------------------------


     EDDAV:  cpu time    4.0653: real time    4.0870
 BZINTS: Fermi energy: -3.406510;144.000000 electrons
         Band energy:***********;  BLOECHL correction:  0.000000
       DOS:  cpu time    0.0021: real time    0.0021
    CHARGE:  cpu time    0.1798: real time    0.1802
    MIXING:  cpu time    0.0054: real time    0.0056
    --------------------------------------------
      LOOP:  cpu time    4.2525: real time    4.2749

 eigenvalue-minimisations  :  4200
 total energy-change (2. order) :-0.2839879E+00  (-0.2839020E+00)
 number of electron     143.9999994 magnetization 
 augmentation part      -17.5452881 magnetization 

 Broyden mixing:
  rms(total) = 0.91416E+00    rms(broyden)= 0.91415E+00
  rms(prec ) = 0.11920E+01
  weight for this iteration     100.00

 Free energy of the ion-electron system (eV)
  ---------------------------------------------------
  alpha Z        PSCENC =       170.45750602
  Ewald energy   TEWEN  =     11815.53903330
  -Hartree energ DENC   =    -17930.45791498
  -exchange      EXHF   =         0.00000000
  -V(xc)+E(xc)   XCENC  =        42.25909545
  PAW double counting   =      3692.15173346    -3390.49189382
  entropy T*S    EENTRO =         0.00000000
  eigenvalues    EBANDS =     -1765.42583448
  atomic energy  EATOM  =      7250.85976021
  Solvation  Ediel_sol  =         0.00000000
  ---------------------------------------------------
  free energy    TOTEN  =      -115.10851485 eV

  energy without entropy =     -115.10851485  energy(sigma->0) =     -115.10851485


--------------------------------------------------------------------------------------------------------




--------------------------------------- Iteration      1(   6)  ---------------------------------------


    POTLOK:  cpu time    0.0652: real time    0.0758
    SETDIJ:  cpu time    0.0019: real time    0.0019
     EDDAV:  cpu time    3.1658: real time    3.1733
 BZINTS: Fermi energy: -2.231157;144.000000 electrons
         Band energy:***********;  BLOECHL correction:  0.000000
       DOS:  cpu time    0.0024: real time    0.0024
    CHARGE:  cpu time    0.1757: real time    0.1762
    MIXING:  cpu time    0.0061: real time    0.0065
    --------------------------------------------
      LOOP:  cpu time    3.4171: real time    3.4361

 eigenvalue-minimisations  :  3008
 total energy-change (2. order) : 0.8247728E+01  (-0.2040722E+01)
 number of electron     143.9999993 magnetization 
 augmentation part      -17.4375064 magnetization 

 Broyden mixing:
  rms(total) = 0.46396E+00    rms(broyden)= 0.46396E+00
  rms(prec ) = 0.58527E+00
  weight for this iteration     100.00

 eigenvalues of (default mixing * dielectric matrix)
  average eigenvalue GAMMA=   1.5408
  1.5408

 Free energy of the ion-electron system (eV)
  ---------------------------------------------------
  alpha Z        PSCENC =       170.45750602
  Ewald energy   TEWEN  =     11815.53903330
  -Hartree energ DENC   =    -18025.19687323
  -exchange      EXHF   =         0.00000000
  -V(xc)+E(xc)   XCENC  =        45.04793221
  PAW double counting   =      3727.95670212    -3433.46398366
  entropy T*S    EENTRO =         0.00000000
  eigenvalues    EBANDS =     -1658.06086359
  atomic energy  EATOM  =      7250.85976021
  Solvation  Ediel_sol  =         0.00000000
  ---------------------------------------------------
  free energy    TOTEN  =      -106.86078661 eV

  energy without entropy =     -106.86078661  energy(sigma->0) =     -106.86078661


--------------------------------------------------------------------------------------------------------




--------------------------------------- Iteration      1(   7)  ---------------------------------------


    POTLOK:  cpu time    0.0641: real time    0.0752
    SETDIJ:  cpu time    0.0019: real time    0.0019
     EDDAV:  cpu time    3.2025: real time    3.2100
 BZINTS: Fermi energy: -1.361524;144.000000 electrons
         Band energy:***********;  BLOECHL correction:  0.000000
       DOS:  cpu time    0.0025: real time    0.0025
    CHARGE:  cpu time    0.1466: real time    0.1469
    MIXING:  cpu time    0.0055: real time    0.0057
    --------------------------------------------
      LOOP:  cpu time    3.4230: real time    3.4422

 eigenvalue-minimisations  :  3480
 total energy-change (2. order) : 0.1336119E+01  (-0.9796680E+00)
 number of electron     143.9999993 magnetization 
 augmentation part      -17.5245946 magnetization 

 Broyden mixing:
  rms(total) = 0.24388E+00    rms(broyden)= 0.24388E+00
  rms(prec ) = 0.29567E+00
  weight for this iteration     100.00

 eigenvalues of (default mixing * dielectric matrix)
  average eigenvalue GAMMA=   1.8502
  1.8502  1.8502

 Free energy of the ion-electron system (eV)
  ---------------------------------------------------
  alpha Z        PSCENC =       170.45750602
  Ewald energy   TEWEN  =     11815.53903330
  -Hartree energ DENC   =    -18104.03796441
  -exchange      EXHF   =         0.00000000
  -V(xc)+E(xc)   XCENC  =        47.33371585
  PAW double counting   =      3773.97548804    -3485.30851981
  entropy T*S    EENTRO =         0.00000000
  eigenvalues    EBANDS =     -1574.34368649
  atomic energy  EATOM  =      7250.85976021
  Solvation  Ediel_sol  =         0.00000000
  ---------------------------------------------------
  free energy    TOTEN  =      -105.52466729 eV

  energy without entropy =     -105.52466729  energy(sigma->0) =     -105.52466729


--------------------------------------------------------------------------------------------------------




--------------------------------------- Iteration      1(   8)  ---------------------------------------


    POTLOK:  cpu time    0.0589: real time    0.0699
    SETDIJ:  cpu time    0.0054: real time    0.0054
     EDDAV:  cpu time    2.9788: real time    2.9858
 BZINTS: Fermi energy: -1.254592;144.000000 electrons
         Band energy:***********;  BLOECHL correction:  0.000000
       DOS:  cpu time    0.0021: real time    0.0022
    CHARGE:  cpu time    0.1616: real time    0.1620
    MIXING:  cpu time    0.0062: real time    0.0065
    --------------------------------------------
      LOOP:  cpu time    3.2130: real time    3.2318

 eigenvalue-minimisations  :  3104
 total energy-change (2. order) : 0.2239001E+00  (-0.3503894E+00)
 number of electron     143.9999993 magnetization 
 augmentation part      -17.6530342 magnetization 

 Broyden mixing:
  rms(total) = 0.11564E+00    rms(broyden)= 0.11564E+00
  rms(prec ) = 0.18906E+00
  weight for this iteration     100.00

 eigenvalues of (default mixing * dielectric matrix)
  average eigenvalue GAMMA=   1.6776
  2.6105  1.2112  1.2112

 Free energy of the ion-electron system (eV)
  ---------------------------------------------------
  alpha Z        PSCENC =       170.45750602
  Ewald energy   TEWEN  =     11815.53903330
  -Hartree energ DENC   =    -18140.94355689
  -exchange      EXHF   =         0.00000000
  -V(xc)+E(xc)   XCENC  =        48.28343599
  PAW double counting   =      3823.42931327    -3536.57254432
  entropy T*S    EENTRO =         0.00000000
  eigenvalues    EBANDS =     -1536.35371480
  atomic energy  EATOM  =      7250.85976021
  Solvation  Ediel_sol  =         0.00000000
  ---------------------------------------------------
  free energy    TOTEN  =      -105.30076720 eV

  energy without entropy =     -105.30076720  energy(sigma->0) =     -105.30076720


--------------------------------------------------------------------------------------------------------




--------------------------------------- Iteration      1(   9)  ---------------------------------------


    POTLOK:  cpu time    0.0616: real time    0.0725
    SETDIJ:  cpu time    0.0030: real time    0.0030
     EDDAV:  cpu time    3.1318: real time    3.1392
 BZINTS: Fermi energy: -0.850810;144.000000 electrons
         Band energy:***********;  BLOECHL correction:  0.000000
       DOS:  cpu time    0.0036: real time    0.0036
    CHARGE:  cpu time    0.1599: real time    0.1603
    MIXING:  cpu time    0.0049: real time    0.0050
    --------------------------------------------
      LOOP:  cpu time    3.3649: real time    3.3836

 eigenvalue-minimisations  :  3120
 total energy-change (2. order) : 0.2752697E+00  (-0.1152998E+00)
 number of electron     143.9999993 magnetization 
 augmentation part      -17.6282556 magnetization 

 Broyden mixing:
  rms(total) = 0.56962E-01    rms(broyden)= 0.56961E-01
  rms(prec ) = 0.81793E-01
  weight for this iteration     100.00

 eigenvalues of (default mixing * dielectric matrix)
  average eigenvalue GAMMA=   1.4133
  2.5364  1.2115  1.2115  0.6937

 Free energy of the ion-electron system (eV)
  ---------------------------------------------------
  alpha Z        PSCENC =       170.45750602
  Ewald energy   TEWEN  =     11815.53903330
  -Hartree energ DENC   =    -18181.96510156
  -exchange      EXHF   =         0.00000000
  -V(xc)+E(xc)   XCENC  =        49.21896768
  PAW double counting   =      3834.38774760    -3548.87175531
  entropy T*S    EENTRO =         0.00000000
  eigenvalues    EBANDS =     -1494.65165546
  atomic energy  EATOM  =      7250.85976021
  Solvation  Ediel_sol  =         0.00000000
  ---------------------------------------------------
  free energy    TOTEN  =      -105.02549752 eV

  energy without entropy =     -105.02549752  energy(sigma->0) =     -105.02549752


--------------------------------------------------------------------------------------------------------




--------------------------------------- Iteration      1(  10)  ---------------------------------------


    POTLOK:  cpu time    0.0620: real time    0.0724
    SETDIJ:  cpu time    0.0016: real time    0.0016
     EDDAV:  cpu time    3.2325: real time    3.2401
 BZINTS: Fermi energy: -0.770977;144.000000 electrons
         Band energy:***********;  BLOECHL correction:  0.000000
       DOS:  cpu time    0.0027: real time    0.0027
    CHARGE:  cpu time    0.1567: real time    0.1571
    MIXING:  cpu time    0.0060: real time    0.0060
    --------------------------------------------
      LOOP:  cpu time    3.4615: real time    3.4799

 eigenvalue-minimisations  :  3496
 total energy-change (2. order) :-0.1601527E-01  (-0.2426754E-01)
 number of electron     143.9999993 magnetization 
 augmentation part      -17.6499451 magnetization 

 Broyden mixing:
  rms(total) = 0.42243E-01    rms(broyden)= 0.42243E-01
  rms(prec ) = 0.63390E-01
  weight for this iteration     100.00

 eigenvalues of (default mixing * dielectric matrix)
  average eigenvalue GAMMA=   1.6121
  2.5075  2.5075  1.1079  0.9687  0.9687

 Free energy of the ion-electron system (eV)
  ---------------------------------------------------
  alpha Z        PSCENC =       170.45750602
  Ewald energy   TEWEN  =     11815.53903330
  -Hartree energ DENC   =    -18192.13989710
  -exchange      EXHF   =         0.00000000
  -V(xc)+E(xc)   XCENC  =        49.23177741
  PAW double counting   =      3829.57192719    -3543.71350592
  entropy T*S    EENTRO =         0.00000000
  eigenvalues    EBANDS =     -1484.84811391
  atomic energy  EATOM  =      7250.85976021
  Solvation  Ediel_sol  =         0.00000000
  ---------------------------------------------------
  free energy    TOTEN  =      -105.04151279 eV

  energy without entropy =     -105.04151279  energy(sigma->0) =     -105.04151279


--------------------------------------------------------------------------------------------------------




--------------------------------------- Iteration      1(  11)  ---------------------------------------


    POTLOK:  cpu time    0.0669: real time    0.0775
    SETDIJ:  cpu time    0.0019: real time    0.0019
     EDDAV:  cpu time    3.1200: real time    3.1274
 BZINTS: Fermi energy: -0.667676;144.000000 electrons
         Band energy:***********;  BLOECHL correction:  0.000000
       DOS:  cpu time    0.0024: real time    0.0024
    CHARGE:  cpu time    0.1759: real time    0.1763
    MIXING:  cpu time    0.0055: real time    0.0055
    --------------------------------------------
      LOOP:  cpu time    3.3725: real time    3.3910

 eigenvalue-minimisations  :  3128
 total energy-change (2. order) : 0.8651611E-02  (-0.6853039E-02)
 number of electron     143.9999993 magnetization 
 augmentation part      -17.6548886 magnetization 

 Broyden mixing:
  rms(total) = 0.16390E-01    rms(broyden)= 0.16390E-01
  rms(prec ) = 0.32554E-01
  weight for this iteration     100.00

 eigenvalues of (default mixing * dielectric matrix)
  average eigenvalue GAMMA=   1.6270
  2.8404  2.8404  1.1975  0.9569  0.9634  0.9634

 Free energy of the ion-electron system (eV)
  ---------------------------------------------------
  alpha Z        PSCENC =       170.45750602
  Ewald energy   TEWEN  =     11815.53903330
  -Hartree energ DENC   =    -18212.26500646
  -exchange      EXHF   =         0.00000000
  -V(xc)+E(xc)   XCENC  =        49.41418899
  PAW double counting   =      3830.50758829    -3544.32468830
  entropy T*S    EENTRO =         0.00000000
  eigenvalues    EBANDS =     -1465.22124322
  atomic energy  EATOM  =      7250.85976021
  Solvation  Ediel_sol  =         0.00000000
  ---------------------------------------------------
  free energy    TOTEN  =      -105.03286118 eV

  energy without entropy =     -105.03286118  energy(sigma->0) =     -105.03286118


--------------------------------------------------------------------------------------------------------




--------------------------------------- Iteration      1(  12)  ---------------------------------------


    POTLOK:  cpu time    0.0728: real time    0.0839
    SETDIJ:  cpu time    0.0016: real time    0.0016
     EDDAV:  cpu time    3.1480: real time    3.1554
 BZINTS: Fermi energy: -0.561717;144.000000 electrons
         Band energy:***********;  BLOECHL correction:  0.000000
       DOS:  cpu time    0.0021: real time    0.0021
    CHARGE:  cpu time    0.1558: real time    0.1561
    MIXING:  cpu time    0.0053: real time    0.0053
    --------------------------------------------
      LOOP:  cpu time    3.3855: real time    3.4044

 eigenvalue-minimisations  :  3104
 total energy-change (2. order) :-0.4997916E-02  (-0.1559620E-02)
 number of electron     143.9999993 magnetization 
 augmentation part      -17.6491896 magnetization 

 Broyden mixing:
  rms(total) = 0.12437E-01    rms(broyden)= 0.12437E-01
  rms(prec ) = 0.21348E-01
  weight for this iteration     100.00

 eigenvalues of (default mixing * dielectric matrix)
  average eigenvalue GAMMA=   1.7804
  3.8276  2.5518  2.0255  1.1269  1.1269  0.9022  0.9022

 Free energy of the ion-electron system (eV)
  ---------------------------------------------------
  alpha Z        PSCENC =       170.45750602
  Ewald energy   TEWEN  =     11815.53903330
  -Hartree energ DENC   =    -18225.01587512
  -exchange      EXHF   =         0.00000000
  -V(xc)+E(xc)   XCENC  =        49.48047917
  PAW double counting   =      3828.22635032    -3541.89867169
  entropy T*S    EENTRO =         0.00000000
  eigenvalues    EBANDS =     -1452.68644131
  atomic energy  EATOM  =      7250.85976021
  Solvation  Ediel_sol  =         0.00000000
  ---------------------------------------------------
  free energy    TOTEN  =      -105.03785910 eV

  energy without entropy =     -105.03785910  energy(sigma->0) =     -105.03785910


--------------------------------------------------------------------------------------------------------




--------------------------------------- Iteration      1(  13)  ---------------------------------------


    POTLOK:  cpu time    0.0600: real time    0.0712
    SETDIJ:  cpu time    0.0026: real time    0.0026
     EDDAV:  cpu time    3.2680: real time    3.2758
 BZINTS: Fermi energy: -0.500644;144.000000 electrons
         Band energy:***********;  BLOECHL correction:  0.000000
       DOS:  cpu time    0.0021: real time    0.0021
    CHARGE:  cpu time    0.1684: real time    0.1688
    MIXING:  cpu time    0.0058: real time    0.0058
    --------------------------------------------
      LOOP:  cpu time    3.5070: real time    3.5264

 eigenvalue-minimisations  :  3240
 total energy-change (2. order) :-0.9543846E-02  (-0.1021245E-02)
 number of electron     143.9999993 magnetization 
 augmentation part      -17.6509982 magnetization 

 Broyden mixing:
  rms(total) = 0.65066E-02    rms(broyden)= 0.65066E-02
  rms(prec ) = 0.11196E-01
  weight for this iteration     100.00

 eigenvalues of (default mixing * dielectric matrix)
  average eigenvalue GAMMA=   1.8345
  4.2214  2.9233  2.4201  1.2202  1.2202  0.8977  0.8867  0.8867

 Free energy of the ion-electron system (eV)
  ---------------------------------------------------
  alpha Z        PSCENC =       170.45750602
  Ewald energy   TEWEN  =     11815.53903330
  -Hartree energ DENC   =    -18235.90429114
  -exchange      EXHF   =         0.00000000
  -V(xc)+E(xc)   XCENC  =        49.53726245
  PAW double counting   =      3826.44753112    -3540.23424565
  entropy T*S    EENTRO =         0.00000000
  eigenvalues    EBANDS =     -1441.74995926
  atomic energy  EATOM  =      7250.85976021
  Solvation  Ediel_sol  =         0.00000000
  ---------------------------------------------------
  free energy    TOTEN  =      -105.04740294 eV

  energy without entropy =     -105.04740294  energy(sigma->0) =     -105.04740294


--------------------------------------------------------------------------------------------------------




--------------------------------------- Iteration      1(  14)  ---------------------------------------


    POTLOK:  cpu time    0.0700: real time    0.0798
    SETDIJ:  cpu time    0.0017: real time    0.0017
     EDDAV:  cpu time    2.8161: real time    2.8227
 BZINTS: Fermi energy: -0.484628;144.000000 electrons
         Band energy:***********;  BLOECHL correction:  0.000000
       DOS:  cpu time    0.0021: real time    0.0021
    CHARGE:  cpu time    0.1396: real time    0.1399
    MIXING:  cpu time    0.0061: real time    0.0061
    --------------------------------------------
      LOOP:  cpu time    3.0355: real time    3.0524

 eigenvalue-minimisations  :  3064
 total energy-change (2. order) :-0.5308074E-02  (-0.2868042E-03)
 number of electron     143.9999993 magnetization 
 augmentation part      -17.6516976 magnetization 

 Broyden mixing:
  rms(total) = 0.54571E-02    rms(broyden)= 0.54571E-02
  rms(prec ) = 0.87354E-02
  weight for this iteration     100.00

 eigenvalues of (default mixing * dielectric matrix)
  average eigenvalue GAMMA=   1.8663
  4.6429  3.1413  2.1359  1.4939  1.4939  0.9105  0.9105  1.0340  1.0340

 Free energy of the ion-electron system (eV)
  ---------------------------------------------------
  alpha Z        PSCENC =       170.45750602
  Ewald energy   TEWEN  =     11815.53903330
  -Hartree energ DENC   =    -18239.26169261
  -exchange      EXHF   =         0.00000000
  -V(xc)+E(xc)   XCENC  =        49.53647022
  PAW double counting   =      3825.54767239    -3539.34599442
  entropy T*S    EENTRO =         0.00000000
  eigenvalues    EBANDS =     -1438.38546612
  atomic energy  EATOM  =      7250.85976021
  Solvation  Ediel_sol  =         0.00000000
  ---------------------------------------------------
  free energy    TOTEN  =      -105.05271102 eV

  energy without entropy =     -105.05271102  energy(sigma->0) =     -105.05271102


--------------------------------------------------------------------------------------------------------




--------------------------------------- Iteration      1(  15)  ---------------------------------------


    POTLOK:  cpu time    0.0626: real time    0.0732
    SETDIJ:  cpu time    0.0017: real time    0.0017
     EDDAV:  cpu time    2.9614: real time    2.9683
 BZINTS: Fermi energy: -0.475544;144.000000 electrons
         Band energy:***********;  BLOECHL correction:  0.000000
       DOS:  cpu time    0.0023: real time    0.0023
    CHARGE:  cpu time    0.1536: real time    0.1539
    MIXING:  cpu time    0.0077: real time    0.0077
    --------------------------------------------
      LOOP:  cpu time    3.1892: real time    3.2073

 eigenvalue-minimisations  :  3008
 total energy-change (2. order) :-0.1887096E-02  (-0.1766830E-03)
 number of electron     143.9999993 magnetization 
 augmentation part      -17.6534905 magnetization 

 Broyden mixing:
  rms(total) = 0.21039E-02    rms(broyden)= 0.21039E-02
  rms(prec ) = 0.40435E-02
  weight for this iteration     100.00

 eigenvalues of (default mixing * dielectric matrix)
  average eigenvalue GAMMA=   1.9632
  5.4247  3.6218  2.4461  1.7348  0.9072  0.9072  1.2579  1.2579  1.0243  1.0501

 Free energy of the ion-electron system (eV)
  ---------------------------------------------------
  alpha Z        PSCENC =       170.45750602
  Ewald energy   TEWEN  =     11815.53903330
  -Hartree energ DENC   =    -18240.92057530
  -exchange      EXHF   =         0.00000000
  -V(xc)+E(xc)   XCENC  =        49.53014177
  PAW double counting   =      3826.00694790    -3539.77115230
  entropy T*S    EENTRO =         0.00000000
  eigenvalues    EBANDS =     -1436.75625971
  atomic energy  EATOM  =      7250.85976021
  Solvation  Ediel_sol  =         0.00000000
  ---------------------------------------------------
  free energy    TOTEN  =      -105.05459811 eV

  energy without entropy =     -105.05459811  energy(sigma->0) =     -105.05459811


--------------------------------------------------------------------------------------------------------




--------------------------------------- Iteration      1(  16)  ---------------------------------------


    POTLOK:  cpu time    0.0954: real time    0.1075
    SETDIJ:  cpu time    0.0016: real time    0.0016
     EDDAV:  cpu time    3.1400: real time    3.1474
 BZINTS: Fermi energy: -0.468664;144.000000 electrons
         Band energy:***********;  BLOECHL correction:  0.000000
       DOS:  cpu time    0.0024: real time    0.0024
    CHARGE:  cpu time    0.1533: real time    0.1537
    MIXING:  cpu time    0.0055: real time    0.0055
    --------------------------------------------
      LOOP:  cpu time    3.3983: real time    3.4181

 eigenvalue-minimisations  :  3112
 total energy-change (2. order) :-0.9807736E-03  (-0.6669408E-04)
 number of electron     143.9999993 magnetization 
 augmentation part      -17.6534264 magnetization 

 Broyden mixing:
  rms(total) = 0.15099E-02    rms(broyden)= 0.15099E-02
  rms(prec ) = 0.27181E-02
  weight for this iteration     100.00

 eigenvalues of (default mixing * dielectric matrix)
  average eigenvalue GAMMA=   2.0157
  5.6715  4.0610  2.4760  1.8017  1.8017  0.9105  0.9105  1.2707  1.2707  0.9995
  0.9995

 Free energy of the ion-electron system (eV)
  ---------------------------------------------------
  alpha Z        PSCENC =       170.45750602
  Ewald energy   TEWEN  =     11815.53903330
  -Hartree energ DENC   =    -18242.26857891
  -exchange      EXHF   =         0.00000000
  -V(xc)+E(xc)   XCENC  =        49.52733724
  PAW double counting   =      3826.19033598    -3539.96282922
  entropy T*S    EENTRO =         0.00000000
  eigenvalues    EBANDS =     -1435.39814352
  atomic energy  EATOM  =      7250.85976021
  Solvation  Ediel_sol  =         0.00000000
  ---------------------------------------------------
  free energy    TOTEN  =      -105.05557889 eV

  energy without entropy =     -105.05557889  energy(sigma->0) =     -105.05557889


--------------------------------------------------------------------------------------------------------




--------------------------------------- Iteration      1(  17)  ---------------------------------------


    POTLOK:  cpu time    0.0611: real time    0.0724
    SETDIJ:  cpu time    0.0043: real time    0.0043
     EDDAV:  cpu time    2.9277: real time    2.9346
 BZINTS: Fermi energy: -0.463680;144.000000 electrons
         Band energy:***********;  BLOECHL correction:  0.000000
       DOS:  cpu time    0.0019: real time    0.0019
    CHARGE:  cpu time    0.1562: real time    0.1566
    MIXING:  cpu time    0.0057: real time    0.0058
    --------------------------------------------
      LOOP:  cpu time    3.1569: real time    3.1755

 eigenvalue-minimisations  :  3144
 total energy-change (2. order) :-0.4545202E-03  (-0.2720034E-04)
 number of electron     143.9999993 magnetization 
 augmentation part      -17.6533798 magnetization 

 Broyden mixing:
  rms(total) = 0.94756E-03    rms(broyden)= 0.94756E-03
  rms(prec ) = 0.17824E-02
  weight for this iteration     100.00

 eigenvalues of (default mixing * dielectric matrix)
  average eigenvalue GAMMA=   2.0425
  6.0132  4.3311  2.7502  2.1886  1.6620  0.9094  0.9094  1.3354  1.3354  0.9612
  1.0572  1.0572

 Free energy of the ion-electron system (eV)
  ---------------------------------------------------
  alpha Z        PSCENC =       170.45750602
  Ewald energy   TEWEN  =     11815.53903330
  -Hartree energ DENC   =    -18243.23628968
  -exchange      EXHF   =         0.00000000
  -V(xc)+E(xc)   XCENC  =        49.52897600
  PAW double counting   =      3826.21019679    -3539.98014768
  entropy T*S    EENTRO =         0.00000000
  eigenvalues    EBANDS =     -1434.43506837
  atomic energy  EATOM  =      7250.85976021
  Solvation  Ediel_sol  =         0.00000000
  ---------------------------------------------------
  free energy    TOTEN  =      -105.05603341 eV

  energy without entropy =     -105.05603341  energy(sigma->0) =     -105.05603341


--------------------------------------------------------------------------------------------------------




--------------------------------------- Iteration      1(  18)  ---------------------------------------


    POTLOK:  cpu time    0.0628: real time    0.0738
    SETDIJ:  cpu time    0.0016: real time    0.0016
     EDDAV:  cpu time    3.0757: real time    3.0830
 BZINTS: Fermi energy: -0.462282;144.000000 electrons
         Band energy:***********;  BLOECHL correction:  0.000000
       DOS:  cpu time    0.0022: real time    0.0022
    CHARGE:  cpu time    0.1624: real time    0.1628
    MIXING:  cpu time    0.0064: real time    0.0065
    --------------------------------------------
      LOOP:  cpu time    3.3111: real time    3.3298

 eigenvalue-minimisations  :  2992
 total energy-change (2. order) :-0.7306128E-03  (-0.1485537E-04)
 number of electron     143.9999993 magnetization 
 augmentation part      -17.6532339 magnetization 

 Broyden mixing:
  rms(total) = 0.57750E-03    rms(broyden)= 0.57750E-03
  rms(prec ) = 0.10398E-02
  weight for this iteration     100.00

 eigenvalues of (default mixing * dielectric matrix)
  average eigenvalue GAMMA=   2.1185
  6.3195  5.0015  2.9642  2.5012  1.8541  0.9087  0.9087  1.3875  1.3875  1.1850
  1.1850  0.9686  0.9686

 Free energy of the ion-electron system (eV)
  ---------------------------------------------------
  alpha Z        PSCENC =       170.45750602
  Ewald energy   TEWEN  =     11815.53903330
  -Hartree energ DENC   =    -18243.86049565
  -exchange      EXHF   =         0.00000000
  -V(xc)+E(xc)   XCENC  =        49.53078057
  PAW double counting   =      3826.18042395    -3539.94856659
  entropy T*S    EENTRO =         0.00000000
  eigenvalues    EBANDS =     -1433.81520584
  atomic energy  EATOM  =      7250.85976021
  Solvation  Ediel_sol  =         0.00000000
  ---------------------------------------------------
  free energy    TOTEN  =      -105.05676402 eV

  energy without entropy =     -105.05676402  energy(sigma->0) =     -105.05676402


--------------------------------------------------------------------------------------------------------




--------------------------------------- Iteration      1(  19)  ---------------------------------------


    POTLOK:  cpu time    0.0632: real time    0.0738
    SETDIJ:  cpu time    0.0017: real time    0.0017
     EDDAV:  cpu time    2.7944: real time    2.8010
 BZINTS: Fermi energy: -0.463468;144.000000 electrons
         Band energy:***********;  BLOECHL correction:  0.000000
       DOS:  cpu time    0.0022: real time    0.0022
    CHARGE:  cpu time    0.1731: real time    0.1735
    MIXING:  cpu time    0.0064: real time    0.0065
    --------------------------------------------
      LOOP:  cpu time    3.0411: real time    3.0587

 eigenvalue-minimisations  :  2624
 total energy-change (2. order) :-0.6592269E-03  (-0.7938799E-05)
 number of electron     143.9999993 magnetization 
 augmentation part      -17.6533808 magnetization 

 Broyden mixing:
  rms(total) = 0.43531E-03    rms(broyden)= 0.43531E-03
  rms(prec ) = 0.64390E-03
  weight for this iteration     100.00

 eigenvalues of (default mixing * dielectric matrix)
  average eigenvalue GAMMA=   2.2265
  6.8113  5.5872  3.3856  2.6990  2.1673  1.6248  1.6248  0.9087  0.9087  1.2297
  1.2297  0.9670  1.0132  1.0132

 Free energy of the ion-electron system (eV)
  ---------------------------------------------------
  alpha Z        PSCENC =       170.45750602
  Ewald energy   TEWEN  =     11815.53903330
  -Hartree energ DENC   =    -18244.14692838
  -exchange      EXHF   =         0.00000000
  -V(xc)+E(xc)   XCENC  =        49.52952268
  PAW double counting   =      3826.12997556    -3539.89661086
  entropy T*S    EENTRO =         0.00000000
  eigenvalues    EBANDS =     -1433.52968177
  atomic energy  EATOM  =      7250.85976021
  Solvation  Ediel_sol  =         0.00000000
  ---------------------------------------------------
  free energy    TOTEN  =      -105.05742325 eV

  energy without entropy =     -105.05742325  energy(sigma->0) =     -105.05742325


--------------------------------------------------------------------------------------------------------




--------------------------------------- Iteration      1(  20)  ---------------------------------------


    POTLOK:  cpu time    0.0636: real time    0.0744
    SETDIJ:  cpu time    0.0016: real time    0.0017
     EDDAV:  cpu time    2.8507: real time    2.8574
 BZINTS: Fermi energy: -0.465607;144.000000 electrons
         Band energy:***********;  BLOECHL correction:  0.000000
       DOS:  cpu time    0.0021: real time    0.0021
    CHARGE:  cpu time    0.1627: real time    0.1631
    MIXING:  cpu time    0.0062: real time    0.0063
    --------------------------------------------
      LOOP:  cpu time    3.0870: real time    3.1049

 eigenvalue-minimisations  :  2736
 total energy-change (2. order) :-0.4438499E-03  (-0.7609860E-05)
 number of electron     143.9999993 magnetization 
 augmentation part      -17.6534417 magnetization 

 Broyden mixing:
  rms(total) = 0.17398E-03    rms(broyden)= 0.17398E-03
  rms(prec ) = 0.24956E-03
  weight for this iteration     100.00

 eigenvalues of (default mixing * dielectric matrix)
  average eigenvalue GAMMA=   2.3140
  7.5048  6.4160  3.4474  3.1199  2.3433  1.6732  1.6732  0.9088  0.9088  1.2764
  1.2764  1.1193  1.1193  0.9619  0.9619

 Free energy of the ion-electron system (eV)
  ---------------------------------------------------
  alpha Z        PSCENC =       170.45750602
  Ewald energy   TEWEN  =     11815.53903330
  -Hartree energ DENC   =    -18244.27859607
  -exchange      EXHF   =         0.00000000
  -V(xc)+E(xc)   XCENC  =        49.52933517
  PAW double counting   =      3826.12446033    -3539.89113044
  entropy T*S    EENTRO =         0.00000000
  eigenvalues    EBANDS =     -1433.39823561
  atomic energy  EATOM  =      7250.85976021
  Solvation  Ediel_sol  =         0.00000000
  ---------------------------------------------------
  free energy    TOTEN  =      -105.05786710 eV

  energy without entropy =     -105.05786710  energy(sigma->0) =     -105.05786710


--------------------------------------------------------------------------------------------------------




--------------------------------------- Iteration      1(  21)  ---------------------------------------


    POTLOK:  cpu time    0.0630: real time    0.0740
    SETDIJ:  cpu time    0.0015: real time    0.0015
     EDDAV:  cpu time    2.1881: real time    2.1933
 BZINTS: Fermi energy: -0.468643;144.000000 electrons
         Band energy:***********;  BLOECHL correction:  0.000000
       DOS:  cpu time    0.0019: real time    0.0019
    CHARGE:  cpu time    0.1392: real time    0.1395
    MIXING:  cpu time    0.0097: real time    0.0097
    --------------------------------------------
      LOOP:  cpu time    2.4034: real time    2.4199

 eigenvalue-minimisations  :  2424
 total energy-change (2. order) :-0.1397319E-03  (-0.2075126E-05)
 number of electron     143.9999993 magnetization 
 augmentation part      -17.6534194 magnetization 

 Broyden mixing:
  rms(total) = 0.10041E-03    rms(broyden)= 0.10041E-03
  rms(prec ) = 0.12325E-03
  weight for this iteration     100.00

 eigenvalues of (default mixing * dielectric matrix)
  average eigenvalue GAMMA=   2.3794
  8.7245  6.5366  3.8004  3.1524  2.3905  1.8749  1.8749  0.9087  0.9087  1.2887
  1.2887  1.1895  1.1895  0.9709  0.9709  1.0009

 Free energy of the ion-electron system (eV)
  ---------------------------------------------------
  alpha Z        PSCENC =       170.45750602
  Ewald energy   TEWEN  =     11815.53903330
  -Hartree energ DENC   =    -18244.23753767
  -exchange      EXHF   =         0.00000000
  -V(xc)+E(xc)   XCENC  =        49.52866661
  PAW double counting   =      3826.12992862    -3539.89724057
  entropy T*S    EENTRO =         0.00000000
  eigenvalues    EBANDS =     -1433.43812335
  atomic energy  EATOM  =      7250.85976021
  Solvation  Ediel_sol  =         0.00000000
  ---------------------------------------------------
  free energy    TOTEN  =      -105.05800683 eV

  energy without entropy =     -105.05800683  energy(sigma->0) =     -105.05800683


--------------------------------------------------------------------------------------------------------




--------------------------------------- Iteration      1(  22)  ---------------------------------------


    POTLOK:  cpu time    0.0719: real time    0.0810
    SETDIJ:  cpu time    0.0016: real time    0.0016
     EDDAV:  cpu time    2.3795: real time    2.3851
 BZINTS: Fermi energy: -0.471032;144.000000 electrons
         Band energy:***********;  BLOECHL correction:  0.000000
       DOS:  cpu time    0.0021: real time    0.0022
    CHARGE:  cpu time    0.1435: real time    0.1439
    MIXING:  cpu time    0.0070: real time    0.0071
    --------------------------------------------
      LOOP:  cpu time    2.6057: real time    2.6208

 eigenvalue-minimisations  :  2392
 total energy-change (2. order) :-0.3136110E-04  (-0.2847348E-06)
 number of electron     143.9999993 magnetization 
 augmentation part      -17.6534153 magnetization 

 Broyden mixing:
  rms(total) = 0.52780E-04    rms(broyden)= 0.52780E-04
  rms(prec ) = 0.66762E-04
  weight for this iteration     100.00

 eigenvalues of (default mixing * dielectric matrix)
  average eigenvalue GAMMA=   2.3757
  8.8850  6.8815  3.7609  3.3746  2.5084  2.0819  1.8374  0.9087  0.9087  1.4301
  1.2634  1.2634  1.1621  1.1621  1.0492  0.9546  0.9546

 Free energy of the ion-electron system (eV)
  ---------------------------------------------------
  alpha Z        PSCENC =       170.45750602
  Ewald energy   TEWEN  =     11815.53903330
  -Hartree energ DENC   =    -18244.24115113
  -exchange      EXHF   =         0.00000000
  -V(xc)+E(xc)   XCENC  =        49.52847988
  PAW double counting   =      3826.11898039    -3539.88620344
  entropy T*S    EENTRO =         0.00000000
  eigenvalues    EBANDS =     -1433.43444342
  atomic energy  EATOM  =      7250.85976021
  Solvation  Ediel_sol  =         0.00000000
  ---------------------------------------------------
  free energy    TOTEN  =      -105.05803819 eV

  energy without entropy =     -105.05803819  energy(sigma->0) =     -105.05803819


--------------------------------------------------------------------------------------------------------




--------------------------------------- Iteration      1(  23)  ---------------------------------------


    POTLOK:  cpu time    0.0596: real time    0.0706
    SETDIJ:  cpu time    0.0022: real time    0.0022
     EDDAV:  cpu time    2.2165: real time    2.2217
 BZINTS: Fermi energy: -0.473174;144.000000 electrons
         Band energy:***********;  BLOECHL correction:  0.000000
       DOS:  cpu time    0.0021: real time    0.0021
    CHARGE:  cpu time    0.1446: real time    0.1450
    MIXING:  cpu time    0.0082: real time    0.0082
    --------------------------------------------
      LOOP:  cpu time    2.4331: real time    2.4498

 eigenvalue-minimisations  :  2104
 total energy-change (2. order) :-0.1486959E-04  (-0.1282547E-06)
 number of electron     143.9999993 magnetization 
 augmentation part      -17.6534137 magnetization 

 Broyden mixing:
  rms(total) = 0.23688E-04    rms(broyden)= 0.23688E-04
  rms(prec ) = 0.31119E-04
  weight for this iteration     100.00

 eigenvalues of (default mixing * dielectric matrix)
  average eigenvalue GAMMA=   2.3616
  9.0300  6.9379  3.6948  3.6948  2.5381  2.1511  1.8635  1.8635  0.9087  0.9087
  1.2623  1.2623  1.2035  1.2035  0.9675  0.9675  1.0254  1.0254

 Free energy of the ion-electron system (eV)
  ---------------------------------------------------
  alpha Z        PSCENC =       170.45750602
  Ewald energy   TEWEN  =     11815.53903330
  -Hartree energ DENC   =    -18244.23359481
  -exchange      EXHF   =         0.00000000
  -V(xc)+E(xc)   XCENC  =        49.52843697
  PAW double counting   =      3826.11908788    -3539.88630872
  entropy T*S    EENTRO =         0.00000000
  eigenvalues    EBANDS =     -1433.44197391
  atomic energy  EATOM  =      7250.85976021
  Solvation  Ediel_sol  =         0.00000000
  ---------------------------------------------------
  free energy    TOTEN  =      -105.05805306 eV

  energy without entropy =     -105.05805306  energy(sigma->0) =     -105.05805306


--------------------------------------------------------------------------------------------------------




--------------------------------------- Iteration      1(  24)  ---------------------------------------


    POTLOK:  cpu time    0.0641: real time    0.0740
    SETDIJ:  cpu time    0.0050: real time    0.0050
     EDDAV:  cpu time    2.2082: real time    2.2134
 BZINTS: Fermi energy: -0.475045;144.000000 electrons
         Band energy:***********;  BLOECHL correction:  0.000000
       DOS:  cpu time    0.0022: real time    0.0022
    CHARGE:  cpu time    0.1476: real time    0.1480
    MIXING:  cpu time    0.0071: real time    0.0071
    --------------------------------------------
      LOOP:  cpu time    2.4341: real time    2.4496

 eigenvalue-minimisations  :  1936
 total energy-change (2. order) :-0.2584546E-05  (-0.1813283E-07)
 number of electron     143.9999993 magnetization 
 augmentation part      -17.6534174 magnetization 

 Broyden mixing:
  rms(total) = 0.17002E-04    rms(broyden)= 0.17002E-04
  rms(prec ) = 0.24684E-04
  weight for this iteration     100.00

 eigenvalues of (default mixing * dielectric matrix)
  average eigenvalue GAMMA=   2.3639
  9.0434  7.0237  3.8214  3.8214  2.7934  2.3651  2.2265  1.7332  0.9087  0.9087
  1.4708  1.2563  1.2563  1.1603  1.1603  0.9574  0.9574  1.0251  1.0251

 Free energy of the ion-electron system (eV)
  ---------------------------------------------------
  alpha Z        PSCENC =       170.45750602
  Ewald energy   TEWEN  =     11815.53903330
  -Hartree energ DENC   =    -18244.22930864
  -exchange      EXHF   =         0.00000000
  -V(xc)+E(xc)   XCENC  =        49.52837293
  PAW double counting   =      3826.11980870    -3539.88701010
  entropy T*S    EENTRO =         0.00000000
  eigenvalues    EBANDS =     -1433.44621806
  atomic energy  EATOM  =      7250.85976021
  Solvation  Ediel_sol  =         0.00000000
  ---------------------------------------------------
  free energy    TOTEN  =      -105.05805564 eV

  energy without entropy =     -105.05805564  energy(sigma->0) =     -105.05805564


--------------------------------------------------------------------------------------------------------




--------------------------------------- Iteration      1(  25)  ---------------------------------------


    POTLOK:  cpu time    0.0607: real time    0.0719
    SETDIJ:  cpu time    0.0016: real time    0.0016
     EDDAV:  cpu time    1.9456: real time    1.9502
 BZINTS: Fermi energy: -0.390187;144.000000 electrons
         Band energy:***********;  BLOECHL correction:  0.000000
       DOS:  cpu time    0.0024: real time    0.0025
    CHARGE:  cpu time    0.1412: real time    0.1415
    MIXING:  cpu time    0.0074: real time    0.0074
    --------------------------------------------
      LOOP:  cpu time    2.1590: real time    2.1752

 eigenvalue-minimisations  :  1864
 total energy-change (2. order) :-0.1053424E-05  (-0.1609857E-07)
 number of electron     143.9999993 magnetization 
 augmentation part      -17.6534185 magnetization 

 Broyden mixing:
  rms(total) = 0.63049E-05    rms(broyden)= 0.63049E-05
  rms(prec ) = 0.91986E-05
  weight for this iteration     100.00

 eigenvalues of (default mixing * dielectric matrix)
  average eigenvalue GAMMA=   2.3321
  9.1110  6.9886  4.0734  3.6849  3.0104  2.5084  1.8936  1.8936  0.9087  0.9087
  1.4650  1.4650  1.2277  1.2277  1.1606  1.1606  0.9675  0.9675  0.9550  1.0635

 Free energy of the ion-electron system (eV)
  ---------------------------------------------------
  alpha Z        PSCENC =       170.45750602
[...]
     26     -13.7110      2.00000
     27     -13.2420      2.00000
     28     -13.2331      2.00000
     29     -13.1922      2.00000
     30     -13.1842      2.00000
     31     -13.1652      2.00000
     32     -13.1635      2.00000
     33     -10.9915      2.00000
     34     -10.9803      2.00000
     35     -10.6377      2.00000
     36     -10.6233      2.00000
     37      -6.3786      2.00000
     38      -6.3635      2.00000
     39      -6.1377      2.00000
     40      -6.1293      2.00000
     41      -6.0695      2.00000
     42      -6.0624      2.00000
     43      -5.8263      2.00000
     44      -5.8128      2.00000
     45      -5.7781      2.00000
     46      -5.7331      2.00000
     47      -5.7008      2.00000
     48      -5.5904      2.00000
     49      -2.7469      2.00000
     50      -2.6576      2.00000
     51      -2.5048      2.00000
     52      -2.4591      2.00000
     53      -2.1565      2.00000
     54      -2.0858      2.00000
     55      -2.0672      2.00000
     56      -2.0270      2.00000
     57      -1.8954      2.00000
     58      -1.8709      2.00000
     59      -1.7565      2.00000
     60      -1.6697      2.00000
     61      -1.6122      2.00000
     62      -1.5361      2.00000
     63      -1.4307      2.00000
     64      -1.3761      2.00000
     65      -1.2459      2.00000
     66      -1.1794      2.00000
     67      -1.1192      2.00000
     68      -0.9950      2.00000
     69      -0.8762      2.00000
     70      -0.7989      2.00000
     71      -0.7614      2.00000
     72      -0.7086      2.00000
     73       0.4363      0.00000
     74       0.4662      0.00000
     75       0.5995      0.00000
     76       0.6370      0.00000
     77       0.7095      0.00000
     78       0.8126      0.00000
     79       0.9483      0.00000
     80       0.9904      0.00000
     81       1.0113      0.00000
     82       1.1453      0.00000
     83       1.2832      0.00000
     84       1.3746      0.00000
     85       1.4280      0.00000
     86       1.5616      0.00000
     87       1.6659      0.00000
     88       1.7896      0.00000

 k-point    15 :       0.0000    0.5000    0.4000
  band No.  band energies     occupation 
      1     -29.5080      2.00000
      2     -29.5080      2.00000
      3     -28.4952      2.00000
      4     -28.4952      2.00000
      5     -28.4673      2.00000
      6     -28.4673      2.00000
      7     -27.8699      2.00000
      8     -27.8699      2.00000
      9     -14.8487      2.00000
     10     -14.8487      2.00000
     11     -14.7827      2.00000
     12     -14.7827      2.00000
     13     -14.7106      2.00000
     14     -14.7106      2.00000
     15     -13.9220      2.00000
     16     -13.9220      2.00000
     17     -13.8396      2.00000
     18     -13.8395      2.00000
     19     -13.7907      2.00000
     20     -13.7907      2.00000
     21     -13.7743      2.00000
     22     -13.7743      2.00000
     23     -13.7571      2.00000
     24     -13.7571      2.00000
     25     -13.7142      2.00000
     26     -13.7142      2.00000
     27     -13.2372      2.00000
     28     -13.2372      2.00000
     29     -13.1884      2.00000
     30     -13.1884      2.00000
     31     -13.1638      2.00000
     32     -13.1638      2.00000
     33     -10.9802      2.00000
     34     -10.9802      2.00000
     35     -10.6210      2.00000
     36     -10.6210      2.00000
     37      -6.3997      2.00000
     38      -6.3997      2.00000
     39      -6.1094      2.00000
     40      -6.1094      2.00000
     41      -6.0658      2.00000
     42      -6.0658      2.00000
     43      -5.7968      2.00000
     44      -5.7968      2.00000
     45      -5.7640      2.00000
     46      -5.7640      2.00000
     47      -5.6416      2.00000
     48      -5.6416      2.00000
     49      -2.6548      2.00000
     50      -2.6548      2.00000
     51      -2.5007      2.00000
     52      -2.5007      2.00000
     53      -2.1157      2.00000
     54      -2.1157      2.00000
     55      -2.0605      2.00000
     56      -2.0605      2.00000
     57      -1.8899      2.00000
     58      -1.8899      2.00000
     59      -1.6606      2.00000
     60      -1.6606      2.00000
     61      -1.4724      2.00000
     62      -1.4724      2.00000
     63      -1.4610      2.00000
     64      -1.4610      2.00000
     65      -1.2287      2.00000
     66      -1.2287      2.00000
     67      -1.0550      2.00000
     68      -1.0550      2.00000
     69      -0.8639      2.00000
     70      -0.8639      2.00000
     71      -0.7411      2.00000
     72      -0.7411      2.00000
     73       0.3566      0.00000
     74       0.3566      0.00000
     75       0.5892      0.00000
     76       0.5892      0.00000
     77       0.7610      0.00000
     78       0.7610      0.00000
     79       0.9287      0.00000
     80       0.9287      0.00000
     81       1.0011      0.00000
     82       1.0011      0.00000
     83       1.3499      0.00000
     84       1.3499      0.00000
     85       1.5336      0.00000
     86       1.5336      0.00000
     87       1.6253      0.00000
     88       1.6253      0.00000


--------------------------------------------------------------------------------------------------------


 soft charge-density along one line, spin component           1
         0         1         2         3         4         5         6         7         8         9
 total charge-density along one line
 
 pseudopotential strength for first ion, spin component:           1
  5.086  -5.594  -0.000  -0.008  -0.037  -0.000  -0.003  -0.015
 -5.594  -2.740   0.000   0.002   0.007  -0.000  -0.001  -0.006
 -0.000   0.000  -6.780  -0.000  -0.000   1.859  -0.000  -0.000
 -0.008   0.002  -0.000  -6.774  -0.002  -0.000   1.871  -0.004
 -0.037   0.007  -0.000  -0.002  -6.774  -0.000  -0.004   1.870
 -0.000  -0.000   1.859  -0.000  -0.000   7.309  -0.000  -0.000
 -0.003  -0.001  -0.000   1.871  -0.004  -0.000   7.310  -0.000
 -0.015  -0.006  -0.000  -0.004   1.870  -0.000  -0.000   7.310
 -0.000   0.000  -0.013  -0.000  -0.000  -0.009  -0.000  -0.000
 -0.000   0.000  -0.001  -0.000  -0.000  -0.000  -0.000  -0.000
  0.002  -0.001   0.000  -0.004   0.007   0.000  -0.003   0.005
 -0.002   0.001  -0.000  -0.013  -0.002  -0.000  -0.008  -0.002
  0.003  -0.001   0.000  -0.001  -0.012   0.000  -0.001  -0.008
  0.000   0.000   0.001   0.000   0.000   0.000   0.000   0.000
  0.000   0.000   0.000   0.000   0.000  -0.000   0.000   0.000
 -0.000  -0.000  -0.000   0.000  -0.000  -0.000   0.000  -0.000
  0.000   0.000   0.000   0.001   0.000   0.000   0.000   0.000
 -0.000  -0.000  -0.000   0.000   0.000  -0.000   0.000   0.000
 total augmentation occupancy for first ion, spin component:           1
  2.102  -0.256   0.000   0.012   0.055   0.000  -0.006  -0.020   0.000   0.000   0.017  -0.010   0.034   0.000   0.000  -0.010
 -0.256   0.638   0.000  -0.033  -0.144   0.000   0.012   0.033   0.000  -0.000  -0.028   0.013  -0.065   0.000  -0.000   0.041
  0.000   0.000   2.012   0.000  -0.000  -0.012  -0.000   0.000  -0.084   0.022   0.000   0.000   0.000   0.078  -0.042  -0.000
  0.012  -0.033   0.000   2.000   0.003   0.000  -0.002  -0.002   0.000   0.000  -0.045  -0.068  -0.014  -0.000   0.000   0.044
  0.055  -0.144   0.000   0.003   1.995   0.000  -0.002  -0.000   0.000   0.000   0.035  -0.007  -0.052   0.000   0.000  -0.032
 -0.000   0.000  -0.012   0.000   0.000   0.008  -0.000  -0.000   0.022  -0.009   0.000   0.000   0.000  -0.030   0.014   0.000
 -0.006   0.012   0.000  -0.002  -0.002   0.000   0.005   0.001   0.000   0.000   0.016   0.016   0.005   0.000   0.000  -0.022
 -0.020   0.033   0.000  -0.002  -0.000   0.000   0.001   0.004   0.000   0.000  -0.006   0.000   0.008   0.000   0.000   0.008
  0.000  -0.000  -0.084   0.000  -0.000   0.022  -0.000  -0.000   0.147  -0.014   0.000   0.000   0.000  -0.185   0.019   0.000
 -0.000   0.000   0.022  -0.000   0.000  -0.009   0.000   0.000  -0.014   0.068   0.000   0.000   0.000   0.018  -0.084   0.000
  0.017  -0.028   0.000  -0.045   0.035   0.000   0.016  -0.006   0.000   0.000   0.121   0.051   0.020   0.000   0.000  -0.148
 -0.010   0.013   0.000  -0.068  -0.007   0.000   0.016   0.000   0.000   0.000   0.051   0.087   0.008   0.000   0.000  -0.071
  0.034  -0.065   0.000  -0.014  -0.052  -0.000   0.005   0.008   0.000   0.000   0.020   0.008   0.096   0.000   0.000  -0.027
  0.000   0.000   0.078   0.000   0.000  -0.030   0.000   0.000  -0.185   0.018   0.000   0.000  -0.000   0.261  -0.033  -0.000
  0.000   0.000  -0.042   0.000   0.000   0.014   0.000   0.000   0.019  -0.084   0.000   0.000   0.000  -0.033   0.114   0.000
 -0.010   0.041   0.000   0.044  -0.032  -0.000  -0.022   0.008   0.000   0.000  -0.148  -0.071  -0.027   0.000   0.000   0.203
  0.007  -0.030   0.000   0.064   0.000   0.000  -0.022  -0.001   0.000   0.000  -0.069  -0.110  -0.011   0.000  -0.000   0.105
 -0.026   0.079   0.000   0.022   0.050   0.000  -0.008  -0.011   0.000   0.000  -0.028  -0.013  -0.126  -0.000   0.000   0.044


------------------------ aborting loop because EDIFF is reached ----------------------------------------


    CHARGE:  cpu time    0.1655: real time    0.1659
    FORLOC:  cpu time    0.0092: real time    0.0092
    FORNL :  cpu time    0.6413: real time    0.6428
    STRESS:  cpu time    1.8505: real time    1.8551
    FORCOR:  cpu time    0.0697: real time    0.0699
    FORHAR:  cpu time    0.0277: real time    0.0277
    MIXING:  cpu time    0.0088: real time    0.0092
    OFIELD:  cpu time    0.0000: real time    0.0000

 ---------------------------------------------------------------------------------------------

         DFTD3 V3.0 Rev 1        
 IVDW         = 11
 DF pbe       
 parameters
 VDW_S6       =    1.0000
 VDW_S8       =    0.7220
 VDW_SR       =    1.2170
 rs18     =    1.0000
 alpha6   =   14.0000
 alpha8   =   16.0000
 k1-k3    =   16.0000    1.3333   -4.0000
 VDW_RADIUS   =   50.2022 A
 VDW_CNRADIUS =   21.1671 A
 Edisp (eV)   -2.31627

 E6    (eV) :    -0.8668
 E8    (eV) :    -1.4495
 % E8        : 62.58
    FORVDW:  cpu time    0.0397: real time    0.0579

  FORCE on cell =-STRESS in cart. coord.  units (eV):
  Direction    XX          YY          ZZ          XY          YZ          ZX
  --------------------------------------------------------------------------------------
  Alpha Z   170.45751   170.45751   170.45751
  Ewald  -19571.43967 15960.90498 15426.06010    -0.00002     0.00000   146.90150
  Hartree-16510.16683 17587.56921 17166.82340     0.00000    -0.00000   112.11414
  E(xc)    -461.98326  -460.12203  -460.54496    -0.00000    -0.00000     0.18574
  Local   34666.60216-34983.60808-34020.11636     0.00001    -0.00000  -257.12904
  n-local   338.83248   338.79366   339.93247     0.05944    -0.20162    -1.45469
  augment  -169.21451  -169.58465  -169.52329    -0.00000    -0.00000     0.29464
  Kinetic  1528.25148  1545.96714  1538.13784    -0.04501    -0.81387    -0.85273
  Fock        0.00000     0.00000     0.00000     0.00000     0.00000     0.00000
  vdW        -1.24821    -2.62828    -2.56566     0.00000    -0.00000     0.03327
  -------------------------------------------------------------------------------------
  Total      -9.90886   -12.25055   -11.33896     0.00000     0.00000     0.09283
  in kB      -8.40856   -10.39569    -9.62213     0.00000     0.00000     0.07877
  external pressure =       -9.48 kB  Pullay stress =        0.00 kB


 VOLUME and BASIS-vectors are now :
 -----------------------------------------------------------------------------
  energy-cutoff  :      500.00
  volume of cell :     1888.05
      direct lattice vectors                 reciprocal lattice vectors
    24.009468079  0.000000000  0.000000000     0.041650236  0.000000000  0.000000000
     0.000000000  6.777849674  0.000000000     0.000000000  0.147539419  0.000000000
     0.000000000  0.000000000 11.602143288     0.000000000  0.000000000  0.086190971

  length of vectors
    24.009468079  6.777849674 11.602143288     0.041650236  0.147539419  0.086190971


 FORCES acting on ions
    electron-ion (+dipol)            ewald-force                    non-local-force                 convergence-correction
 -----------------------------------------------------------------------------------------------
   0.780E+03 0.102E-04 0.444E+02   -.775E+03 0.984E-05 -.436E+02   -.429E+01 0.101E-18 -.826E+00   0.960E-04 -.635E-09 0.616E-05
   -.780E+03 -.631E-04 -.444E+02   0.775E+03 -.128E-04 0.436E+02   0.429E+01 -.162E-18 0.826E+00   -.960E-04 0.640E-09 -.615E-05
   0.825E+02 -.605E-04 -.378E+02   -.822E+02 -.185E-04 0.365E+02   -.120E+00 -.545E-19 0.129E+01   0.798E-04 0.101E-08 -.571E-04
   -.825E+02 0.114E-04 0.378E+02   0.822E+02 0.130E-04 -.365E+02   0.120E+00 0.164E-19 -.129E+01   -.798E-04 -.974E-09 0.570E-04
   0.627E+03 -.611E-04 -.485E+02   -.625E+03 -.166E-04 0.490E+02   -.192E+01 -.256E-17 -.434E+00   0.167E-03 0.809E-09 -.522E-04
   -.627E+03 0.902E-05 0.485E+02   0.625E+03 0.144E-04 -.490E+02   0.192E+01 -.227E-17 0.434E+00   -.167E-03 -.804E-09 0.522E-04
   0.363E+03 0.118E-04 -.113E+02   -.361E+03 0.132E-04 0.105E+02   -.842E+00 -.345E-17 0.827E+00   0.141E-03 -.946E-09 0.930E-05
   -.363E+03 -.618E-04 0.113E+02   0.361E+03 -.133E-04 -.105E+02   0.842E+00 0.327E-17 -.827E+00   -.141E-03 0.901E-09 -.929E-05
   0.274E+03 0.366E+02 -.467E+02   -.274E+03 -.381E+02 0.476E+02   -.806E-01 0.150E+01 -.860E+00   0.999E-04 0.523E-04 -.458E-04
   -.274E+03 -.366E+02 0.467E+02   0.274E+03 0.381E+02 -.476E+02   0.806E-01 -.150E+01 0.860E+00   -.999E-04 -.523E-04 0.458E-04
   0.122E+03 -.328E+02 0.290E+01   -.122E+03 0.339E+02 -.187E+01   -.331E+00 -.111E+01 -.103E+01   0.379E-04 -.348E-04 -.455E-05
   -.122E+03 0.328E+02 -.290E+01   0.122E+03 -.339E+02 0.187E+01   0.331E+00 0.111E+01 0.103E+01   -.379E-04 0.348E-04 0.456E-05
   -.274E+03 0.366E+02 0.467E+02   0.274E+03 -.381E+02 -.476E+02   0.806E-01 0.150E+01 0.860E+00   -.999E-04 0.523E-04 0.458E-04
   0.274E+03 -.366E+02 -.467E+02   -.274E+03 0.381E+02 0.476E+02   -.806E-01 -.150E+01 -.860E+00   0.999E-04 -.523E-04 -.458E-04
   -.122E+03 -.328E+02 -.290E+01   0.122E+03 0.339E+02 0.187E+01   0.331E+00 -.111E+01 0.103E+01   -.379E-04 -.348E-04 0.456E-05
   0.122E+03 0.328E+02 0.290E+01   -.122E+03 -.339E+02 -.187E+01   -.331E+00 0.111E+01 -.103E+01   0.379E-04 0.348E-04 -.455E-05
   0.330E+03 -.421E-05 0.459E+02   -.332E+03 -.605E-05 -.465E+02   0.139E+01 -.580E-18 0.668E+00   0.838E-04 0.276E-09 0.226E-04
   -.330E+03 0.615E-05 -.459E+02   0.332E+03 0.630E-05 0.465E+02   -.139E+01 -.598E-18 -.668E+00   -.838E-04 -.280E-09 -.226E-04
   0.324E+02 0.942E-05 -.108E+02   -.308E+02 0.758E-05 0.101E+02   -.145E+01 0.643E-19 0.752E+00   -.164E-04 -.386E-09 -.167E-04
   -.324E+02 -.179E-05 0.108E+02   0.308E+02 -.723E-05 -.101E+02   0.145E+01 -.381E-19 -.752E+00   0.164E-04 0.365E-09 0.167E-04
   0.242E+03 0.438E-05 0.123E+02   -.242E+03 0.809E-05 -.134E+02   -.385E+00 0.517E-18 0.111E+01   0.970E-04 -.335E-09 0.376E-04
   -.242E+03 -.551E-05 -.123E+02   0.242E+03 -.813E-05 0.134E+02   0.385E+00 -.735E-18 -.111E+01   -.970E-04 0.320E-09 -.376E-04
   0.156E+03 -.620E-05 0.598E+02   -.156E+03 -.750E-05 -.615E+02   -.690E+00 0.342E-17 0.171E+01   0.456E-04 0.354E-09 0.578E-04
   -.156E+03 0.372E-05 -.598E+02   0.156E+03 0.734E-05 0.615E+02   0.690E+00 -.131E-17 -.171E+01   -.456E-04 -.352E-09 -.578E-04
 -----------------------------------------------------------------------------------------------
   0.704E-04 -.209E-03 0.807E-04   0.313E-12 -.243E-13 -.782E-13   0.133E-14 0.743E-18 -.222E-15   -.685E-09 -.574E-10 -.453E-08
 
 
 POSITION                                       TOTAL-FORCE (eV/Angst)
 -----------------------------------------------------------------------------------
      0.13670      1.69446      8.17590         0.804311      0.000000     -0.000888
      9.12277      5.08339      3.42624        -0.804311      0.000000      0.000888
      4.36803      5.08339      2.16268         0.142217      0.000000      0.000871
      4.89143      1.69446      9.43947        -0.142217     -0.000000     -0.000871
      1.43529      5.08339     10.63854         0.686044      0.000000     -0.000577
      7.82418      1.69446      0.96361        -0.686044      0.000000      0.000577
      3.06944      1.69446      4.58948         0.425586     -0.000000     -0.000138
      6.19002      5.08339      7.01266        -0.425586      0.000000      0.000138
      1.75027      0.49410      1.66112        -0.128386      0.000093     -0.000052
      7.50920      6.28375      9.94103         0.128386     -0.000093      0.000052
      2.75446      6.29177      7.65017         0.159056      0.000248     -0.000439
      6.50500      0.48608      3.95197        -0.159056     -0.000248      0.000439
      7.50920      3.88303      9.94103         0.128386      0.000093      0.000052
      1.75027      2.89482      1.66112        -0.128386     -0.000093     -0.000052
      6.50500      2.90285      3.95197        -0.159056      0.000248      0.000439
      2.75446      3.87500      7.65017         0.159056     -0.000248     -0.000439
      0.74693      5.08339      6.96037        -0.214275      0.000000      0.000554
      8.51254      1.69446      4.64177         0.214275     -0.000000     -0.000554
      3.75780      1.69446      0.95390         0.201175     -0.000000      0.000127
      5.50166      5.08339     10.64824        -0.201175      0.000000     -0.000127
      1.78112      1.69446     11.15399        -0.179444     -0.000000     -0.000495
      7.47835      5.08339      0.44815         0.179444      0.000000      0.000495
      2.72362      5.08339      5.53799        -0.210837      0.000000     -0.000337
      6.53585      1.69446      6.06416         0.210837     -0.000000      0.000337
 -----------------------------------------------------------------------------------
    total drift:                                0.000070     -0.000209      0.000081


--------------------------------------------------------------------------------------------------------



  FREE ENERGIE OF THE ION-ELECTRON SYSTEM (eV)
  ---------------------------------------------------
  free  energy   TOTEN  =      -107.37432781 eV

  energy  without entropy=     -107.37432781  energy(sigma->0) =     -107.37432781
 


--------------------------------------------------------------------------------------------------------


    POTLOK:  cpu time    0.0710: real time    0.0711


--------------------------------------------------------------------------------------------------------


 writing wavefunctions
     LOOP+:  cpu time   88.8385: real time   90.9019
    4ORBIT:  cpu time    0.0000: real time    0.0000
 BZINTS: Fermi energy: -0.391535;144.000000 electrons
         Band energy:***********;  BLOECHL correction:  0.000000

 total amount of memory used by VASP MPI-rank0    79355. kBytes
=======================================================================

   base      :      30000. kBytes
   nonlr-proj:       2649. kBytes
   fftplans  :       5898. kBytes
   grid      :       8824. kBytes
   one-center:         93. kBytes
   wavefun   :      31891. kBytes
 
  
  
 General timing and accounting informations for this job:
 ========================================================
  
                  Total CPU time used (sec):       96.731
                            User time (sec):       91.335
                          System time (sec):        5.396
                         Elapsed time (sec):      101.506
  
                   Maximum memory used (kb):      170772.
                   Average memory used (kb):           0.
  
                          Minor page faults:        69431
                          Major page faults:          192
                 Voluntary context switches:        14853
