 vasp.5.4.4.18Apr17-6-g9f103f2a35 (build Nov 21 2017 15:30:27) complex          
  
 executed on             LinuxIFC date 2020.09.14  15:50:22
 running on   64 total cores
 distrk:  each k-point on   32 cores,    2 groups
 distr:  one band on NCORES_PER_BAND=   4 cores,    8 groups


--------------------------------------------------------------------------------------------------------


 INCAR:
 POTCAR:   PAW_PBE Ba_sv 06Sep2000                
 POTCAR:   PAW_PBE Si 05Jan2001                   

 ----------------------------------------------------------------------------- 
|                                                                             |
|           W    W    AA    RRRRR   N    N  II  N    N   GGGG   !!!           |
|           W    W   A  A   R    R  NN   N  II  NN   N  G    G  !!!           |
|           W    W  A    A  R    R  N N  N  II  N N  N  G       !!!           |
|           W WW W  AAAAAA  RRRRR   N  N N  II  N  N N  G  GGG   !            |
|           WW  WW  A    A  R   R   N   NN  II  N   NN  G    G                |
|           W    W  A    A  R    R  N    N  II  N    N   GGGG   !!!           |
|                                                                             |
|      You have enabled k-point parallelism (KPAR>1).                         |
|      This developmental code was originally  written by Paul Kent at ORNL,  |
|      and carefully double checked in Vienna.                                |
|      GW as well as linear response parallelism added by Martijn Marsman     |
|      and Georg Kresse.                                                      |
|      Carefully verify results versus KPAR=1.                                |
|      Report problems to Paul Kent and Vienna.                               |
|                                                                             |
 ----------------------------------------------------------------------------- 

 POTCAR:   PAW_PBE Ba_sv 06Sep2000                
   VRHFIN =Ba: 5s5p6s                                                           
   LEXCH  = PE                                                                  
   EATOM  =   700.2255 eV,   51.4651 Ry                                         
                                                                                
   TITEL  = PAW_PBE Ba_sv 06Sep2000                                             
   LULTRA =        F    use ultrasoft PP ?                                      
   IUNSCR =        1    unscreen: 0-lin 1-nonlin 2-no                           
   RPACOR =    2.400    partial core radius                                     
   POMASS =  137.327; ZVAL   =   10.000    mass and valenz                      
   RCORE  =    2.800    outmost cutoff radius                                   
   RWIGS  =    3.740; RWIGS  =    1.979    wigner-seitz radius (au A)           
   ENMAX  =  187.210; ENMIN  =  140.408 eV                                      
   RCLOC  =    2.516    cutoff for local pot                                    
   LCOR   =        T    correct aug charges                                     
   LPAW   =        T    paw PP                                                  
   EAUG   =  351.165                                                            
   DEXC   =     .000                                                            
   RMAX   =    3.370    core radius for proj-oper                               
   RAUG   =    1.300    factor for augmentation sphere                          
   RDEP   =    2.976    radius for radial grids                                 
   QCUT   =   -3.709; QGAM   =    7.419    optimization parameters              
                                                                                
   Description                                                                  
     l     E      TYP  RCUT    TYP  RCUT                                        
     0   .000     23  2.800                                                     
     0   .000     23  2.800                                                     
     1   .000     23  2.700                                                     
     1  2.000     23  2.700                                                     
     2   .000     23  2.700                                                     
     2   .000     23  2.700                                                     
  local pseudopotential read in
  partial core-charges read in
  atomic valenz-charges read in
  non local Contribution for L=           0  read in
    real space projection operators read in
  non local Contribution for L=           0  read in
    real space projection operators read in
  non local Contribution for L=           1  read in
    real space projection operators read in
  non local Contribution for L=           1  read in
    real space projection operators read in
  non local Contribution for L=           2  read in
    real space projection operators read in
  non local Contribution for L=           2  read in
    real space projection operators read in
    PAW grid and wavefunctions read in
 
   number of l-projection  operators is LMAX  =           6
   number of lm-projection operators is LMMAX =          18
 
 POTCAR:   PAW_PBE Si 05Jan2001                   
   VRHFIN =Si: s2p2                                                             
   LEXCH  = PE                                                                  
   EATOM  =   103.0669 eV,    7.5752 Ry                                         
                                                                                
   TITEL  = PAW_PBE Si 05Jan2001                                                
   LULTRA =        F    use ultrasoft PP ?                                      
   IUNSCR =        1    unscreen: 0-lin 1-nonlin 2-no                           
   RPACOR =    1.500    partial core radius                                     
   POMASS =   28.085; ZVAL   =    4.000    mass and valenz                      
   RCORE  =    1.900    outmost cutoff radius                                   
   RWIGS  =    2.480; RWIGS  =    1.312    wigner-seitz radius (au A)           
   ENMAX  =  245.345; ENMIN  =  184.009 eV                                      
   ICORE  =        2    local potential                                         
   LCOR   =        T    correct aug charges                                     
   LPAW   =        T    paw PP                                                  
   EAUG   =  322.069                                                            
   DEXC   =    -.007                                                            
   RMAX   =    2.944    core radius for proj-oper                               
   RAUG   =    1.300    factor for augmentation sphere                          
   RDEP   =    1.993    radius for radial grids                                 
   QCUT   =   -4.246; QGAM   =    8.493    optimization parameters              
                                                                                
   Description                                                                  
     l     E      TYP  RCUT    TYP  RCUT                                        
     0   .000     23  1.900                                                     
     0   .000     23  1.900                                                     
     1   .000     23  1.900                                                     
     1   .000     23  1.900                                                     
     2   .000      7  1.900                                                     
  local pseudopotential read in
  partial core-charges read in
  atomic valenz-charges read in
  non local Contribution for L=           0  read in
    real space projection operators read in
  non local Contribution for L=           0  read in
    real space projection operators read in
  non local Contribution for L=           1  read in
    real space projection operators read in
  non local Contribution for L=           1  read in
    real space projection operators read in
    PAW grid and wavefunctions read in
 
   number of l-projection  operators is LMAX  =           4
   number of lm-projection operators is LMMAX =           8
 
 Optimization of the real space projectors (new method)

 maximal supplied QI-value         = 13.42
 optimisation between [QCUT,QGAM] = [ 11.40, 22.81] = [ 36.42,145.68] Ry 
 Optimized for a Real-space Cutoff    1.56 Angstroem

   l    n(q)    QCUT    max X(q) W(low)/X(q) W(high)/X(q)  e(spline) 
   0     11    11.404     7.198    0.14E-04    0.26E-04    0.99E-07
   0     11    11.404    15.603    0.29E-04    0.72E-04    0.44E-06
   1     10    11.404     3.746    0.20E-04    0.24E-04    0.43E-07
   1     10    11.404     4.362    0.22E-03    0.97E-04    0.22E-06
   2     10    11.404     5.782    0.83E-04    0.62E-05    0.27E-06
   2     10    11.404    65.505    0.42E-03    0.31E-04    0.12E-05
 Optimization of the real space projectors (new method)

 maximal supplied QI-value         = 19.84
 optimisation between [QCUT,QGAM] = [ 11.31, 22.82] = [ 35.82,145.81] Ry 
 Optimized for a Real-space Cutoff    1.16 Angstroem

   l    n(q)    QCUT    max X(q) W(low)/X(q) W(high)/X(q)  e(spline) 
   0      8    11.310     8.708    0.14E-04    0.11E-04    0.43E-08
   0      8    11.310   106.241    0.27E-03    0.30E-03    0.38E-07
   1      7    11.310     5.901    0.82E-05    0.48E-04    0.19E-07
   1      7    11.310    73.241    0.27E-03    0.27E-03    0.74E-07
 PAW_PBE Ba_sv 06Sep2000                :
 energy of atom  1       EATOM= -700.2255
 kinetic energy error for atom=    0.0005 (will be added to EATOM!!)
 PAW_PBE Si 05Jan2001                   :
 energy of atom  2       EATOM= -103.0669
 kinetic energy error for atom=    0.0006 (will be added to EATOM!!)
 
 
 POSCAR: ba8 si16                                
  positions in direct lattice
  velocities in cartesian coordinates
 exchange correlation table for  LEXCH =        8
   RHO(1)=    0.500       N(1)  =     2000
   RHO(2)=  100.500       N(2)  =     4000
 


--------------------------------------------------------------------------------------------------------


 ion  position               nearest neighbor table
   1  0.006  0.250  0.702-  21 3.40  16 3.44  11 3.44  17 3.64  17 3.64   5 4.38   5 4.38   7 4.63

   2  0.390  0.750  0.298-  22 3.40  12 3.44  15 3.44  18 3.64  18 3.64   6 4.38   6 4.38   8 4.63

   3  0.182  0.750  0.185-  20 3.35   9 3.45  14 3.45  19 3.66  19 3.66  12 3.70  15 3.70  22 3.75
                            23 3.77   5 4.30   7 4.36   7 4.36
   4  0.214  0.250  0.815-  19 3.35  13 3.45  10 3.45  20 3.66  20 3.66  16 3.70  11 3.70  21 3.75
                            24 3.77   6 4.30   8 4.36   8 4.36
   5  0.060  0.750  0.914-   9 3.44  14 3.44  21 3.45  21 3.45  11 3.45  16 3.45  17 3.71   3 4.30
                             1 4.38   1 4.38
   6  0.336  0.250  0.086-  13 3.44  10 3.44  22 3.45  22 3.45  15 3.45  12 3.45  18 3.71   4 4.30
                             2 4.38   2 4.38
   7  0.128  0.250  0.393-  14 3.44   9 3.44  23 3.54  23 3.54  19 3.72  16 3.79  11 3.79  15 3.93
                            12 3.93   3 4.36   3 4.36   1 4.63
   8  0.268  0.750  0.607-  10 3.44  13 3.44  24 3.54  24 3.54  20 3.72  12 3.79  15 3.79  11 3.93
                            16 3.93   4 4.36   4 4.36   2 4.63
   9  0.073  0.073  0.140-  14 2.40  21 2.43  19 2.45   7 3.44   5 3.44   3 3.45
  10  0.323  0.927  0.860-  13 2.40  22 2.43  20 2.45   8 3.44   6 3.44   4 3.45
  11  0.115  0.929  0.659-  16 2.42  23 2.44  17 2.44   1 3.44   5 3.45   4 3.70   7 3.79   8 3.93

  12  0.281  0.071  0.341-  15 2.42  24 2.44  18 2.44   2 3.44   6 3.45   3 3.70   8 3.79   7 3.93

  13  0.323  0.573  0.860-  10 2.40  22 2.43  20 2.45   8 3.44   6 3.44   4 3.45
  14  0.073  0.427  0.140-   9 2.40  21 2.43  19 2.45   7 3.44   5 3.44   3 3.45
  15  0.281  0.429  0.341-  12 2.42  24 2.44  18 2.44   2 3.44   6 3.45   3 3.70   8 3.79   7 3.93

  16  0.115  0.571  0.659-  11 2.42  23 2.44  17 2.44   1 3.44   5 3.45   4 3.70   7 3.79   8 3.93

  17  0.031  0.750  0.600-  23 2.44  11 2.44  16 2.44   1 3.64   1 3.64   5 3.71
  18  0.365  0.250  0.400-  24 2.44  15 2.44  12 2.44   2 3.64   2 3.64   6 3.71
  19  0.157  0.250  0.078-  21 2.42  14 2.45   9 2.45   4 3.35   3 3.66   3 3.66   7 3.72
  20  0.240  0.750  0.922-  22 2.42  10 2.45  13 2.45   3 3.35   4 3.66   4 3.66   8 3.72
  21  0.074  0.250  0.958-  19 2.42  14 2.43   9 2.43   1 3.40   5 3.45   5 3.45   4 3.75
  22  0.322  0.750  0.042-  20 2.42  10 2.43  13 2.43   2 3.40   6 3.45   6 3.45   3 3.75
  23  0.113  0.750  0.477-  17 2.44  11 2.44  16 2.44   7 3.54   7 3.54   3 3.77
  24  0.283  0.250  0.523-  18 2.44  15 2.44  12 2.44   8 3.54   8 3.54   4 3.77
 
  LATTYP: Found a simple orthorhombic cell.
 ALAT       =     6.7778496742
 B/A-ratio  =     1.7117734747
 C/A-ratio  =     3.5423429602
  
  Lattice vectors:
  
 A1 = (   0.0000000000,   6.7778496742,   0.0000000000)
 A2 = (   0.0000000000,   0.0000000000, -11.6021432877)
 A3 = ( -24.0094680786,   0.0000000000,   0.0000000000)


Analysis of symmetry for initial positions (statically):
=====================================================================
 Subroutine PRICEL returns:
 Original cell was already a primitive cell.
 

 Routine SETGRP: Setting up the symmetry group for a 
 simple orthorhombic supercell.


 Subroutine GETGRP returns: Found  4 space group operations
 (whereof  1 operations were pure point group operations)
 out of a pool of  8 trial point group operations.


The static configuration has the point symmetry C_1 .
 The point group associated with its full space group is C_2h.


Analysis of symmetry for dynamics (positions and initial velocities):
=====================================================================
 Subroutine PRICEL returns:
 Original cell was already a primitive cell.
 

 Routine SETGRP: Setting up the symmetry group for a 
 simple orthorhombic supercell.


 Subroutine GETGRP returns: Found  4 space group operations
 (whereof  1 operations were pure point group operations)
 out of a pool of  8 trial point group operations.


The dynamic configuration has the point symmetry C_1 .
 The point group associated with its full space group is C_2h.


Analysis of constrained symmetry for selective dynamics:
=====================================================================
 Subroutine PRICEL returns:
 Original cell was already a primitive cell.
 

 Routine SETGRP: Setting up the symmetry group for a 
 simple orthorhombic supercell.


 Subroutine GETGRP returns: Found  4 space group operations
 (whereof  1 operations were pure point group operations)
 out of a pool of  8 trial point group operations.


The constrained configuration has the point symmetry C_1 .
 The point group associated with its full space group is C_2h.


 Subroutine INISYM returns: Found  4 space group operations
 (whereof  1 operations are pure point group operations),
 and found     1 'primitive' translations

 
 
 KPOINTS: k-density: 8.0                          

Automatic generation of k-mesh.
Space group operators:
 irot       det(A)        alpha          n_x          n_y          n_z        tau_x        tau_y        tau_z
    1     1.000000     0.000000     1.000000     0.000000     0.000000     0.000000     0.000000     0.000000
    2    -1.000000     0.000000     1.000000     0.000000     0.000000    -0.603928     0.000000     0.000000
    3     1.000000   180.000000     0.000000     1.000000     0.000000    -0.603928     0.500000     0.000000
    4    -1.000000   180.000000     0.000000     1.000000     0.000000     0.000000     0.500000     0.000000
 
 Subroutine IBZKPT returns following result:
 ===========================================
 
 Found     15 irreducible k-points:
 
 Following reciprocal coordinates:
            Coordinates               Weight
  0.000000  0.000000  0.000000      1.000000
  0.000000  0.125000  0.000000      2.000000
  0.000000  0.250000  0.000000      2.000000
  0.000000  0.375000  0.000000      2.000000
  0.000000  0.500000  0.000000      1.000000
  0.000000  0.000000  0.200000      2.000000
  0.000000  0.125000  0.200000      4.000000
  0.000000  0.250000  0.200000      4.000000
  0.000000  0.375000  0.200000      4.000000
  0.000000  0.500000  0.200000      2.000000
  0.000000  0.000000  0.400000      2.000000
  0.000000  0.125000  0.400000      4.000000
  0.000000  0.250000  0.400000      4.000000
  0.000000  0.375000  0.400000      4.000000
  0.000000  0.500000  0.400000      2.000000
 
 Following cartesian coordinates:
            Coordinates               Weight
  0.000000  0.000000  0.000000      1.000000
  0.000000  0.018442  0.000000      2.000000
  0.000000  0.036885  0.000000      2.000000
  0.000000  0.055327  0.000000      2.000000
  0.000000  0.073770  0.000000      1.000000
  0.000000  0.000000  0.017238      2.000000
  0.000000  0.018442  0.017238      4.000000
  0.000000  0.036885  0.017238      4.000000
  0.000000  0.055327  0.017238      4.000000
  0.000000  0.073770  0.017238      2.000000
  0.000000  0.000000  0.034476      2.000000
  0.000000  0.018442  0.034476      4.000000
  0.000000  0.036885  0.034476      4.000000
  0.000000  0.055327  0.034476      4.000000
  0.000000  0.073770  0.034476      2.000000
 
 TETIRR: Found    108 inequivalent tetrahedra from      240


--------------------------------------------------------------------------------------------------------




 Dimension of arrays:
   k-points           NKPTS =     15   k-points in BZ     NKDIM =     15   number of bands    NBANDS=     88
   number of dos      NEDOS =    301   number of ions     NIONS =     24
   non local maximal  LDIM  =      6   non local SUM 2l+1 LMDIM =     18
   total plane-waves  NPLWV = 358400
   max r-space proj   IRMAX =   3093   max aug-charges    IRDMAX=  12081
   dimension x,y,z NGX =   140 NGY =   40 NGZ =   64
   dimension x,y,z NGXF=   280 NGYF=   80 NGZF=  128
   support grid    NGXF=   280 NGYF=   80 NGZF=  128
   ions per type =               8  16
   NGX,Y,Z   is equivalent  to a cutoff of   9.69,  9.81,  9.17 a.u.
   NGXF,Y,Z  is equivalent  to a cutoff of  19.39, 19.62, 18.34 a.u.

 SYSTEM =  unknown system                          
 POSCAR =  ba8 si16                                

 Startparameter for this run:
   NWRITE =      2    write-flag & timer
   PREC   = normal    normal or accurate (medium, high low for compatibility)
   ISTART =      0    job   : 0-new  1-cont  2-samecut
   ICHARG =      2    charge: 1-file 2-atom 10-const
   ISPIN  =      1    spin polarized calculation?
   LNONCOLLINEAR =      F non collinear calculations
   LSORBIT =      F    spin-orbit coupling
   INIWAV =      1    electr: 0-lowe 1-rand  2-diag
   LASPH  =      F    aspherical Exc in radial PAW
   METAGGA=      F    non-selfconsistent MetaGGA calc.

 Electronic Relaxation 1
   ENCUT  =  500.0 eV  36.75 Ry    6.06 a.u.  43.77 12.36 21.15*2*pi/ulx,y,z
   ENINI  =  500.0     initial cutoff
   ENAUG  =  351.2 eV  augmentation charge cutoff
   NELM   =    100;   NELMIN=  2; NELMDL= -5     # of ELM steps 
   EDIFF  = 0.1E-05   stopping-criterion for ELM
   LREAL  =      T    real-space projection
   NLSPLINE    = F    spline interpolate recip. space projectors
   LCOMPAT=      F    compatible to vasp.4.4
   GGA_COMPAT  = T    GGA compatible to vasp.4.4-vasp.4.6
   LMAXPAW     = -100 max onsite density
   LMAXMIX     =    2 max onsite mixed and CHGCAR
   VOSKOWN=      0    Vosko Wilk Nusair interpolation
   ROPT   =   -0.00050  -0.00050
 Ionic relaxation
   EDIFFG = -.1E-02   stopping-criterion for IOM
   NSW    =      0    number of steps for IOM
   NBLOCK =      1;   KBLOCK =      1    inner block; outer block 
   IBRION =     -1    ionic relax: 0-MD 1-quasi-New 2-CG
   NFREE  =      0    steps in history (QN), initial steepest desc. (CG)
   ISIF   =      2    stress and relaxation
   IWAVPR =     10    prediction:  0-non 1-charg 2-wave 3-comb
   ISYM   =      2    0-nonsym 1-usesym 2-fastsym
   LCORR  =      T    Harris-Foulkes like correction to forces

   POTIM  = 0.3000    time-step for ionic-motion
   TEIN   =    0.0    initial temperature
   TEBEG  =    0.0;   TEEND  =   0.0 temperature during run
   SMASS  =  -3.00    Nose mass-parameter (am)
   estimated Nose-frequenzy (Omega)   =  0.10E-29 period in steps =****** mass=  -0.132E-25a.u.
   SCALEE = 1.0000    scale energy and forces
   NPACO  =    256;   APACO  = 16.0  distance and # of slots for P.C.
   PSTRESS=    0.0 pullay stress

  Mass of Ions in am
   POMASS = 137.33 28.09
  Ionic Valenz
   ZVAL   =  10.00  4.00
  Atomic Wigner-Seitz radii
   RWIGS  =  -1.00 -1.00
  virtual crystal weights 
   VCA    =   1.00  1.00
   NELECT =     144.0000    total number of electrons
   NUPDOWN=      -1.0000    fix difference up-down

 DOS related values:
   EMIN   =  10.00;   EMAX   =-10.00  energy-range for DOS
   EFERMI =   0.00
   ISMEAR =    -5;   SIGMA  =   0.01  broadening in eV -4-tet -1-fermi 0-gaus

 Electronic relaxation 2 (details)
   IALGO  =     38    algorithm
   LDIAG  =      T    sub-space diagonalisation (order eigenvalues)
   LSUBROT=      F    optimize rotation matrix (better conditioning)
   TURBO    =      0    0=normal 1=particle mesh
   IRESTART =      0    0=no restart 2=restart with 2 vectors
   NREBOOT  =      0    no. of reboots
   NMIN     =      0    reboot dimension
   EREF     =   0.00    reference energy to select bands
   IMIX   =      4    mixing-type and parameters
     AMIX     =   0.40;   BMIX     =  1.00
     AMIX_MAG =   1.60;   BMIX_MAG =  1.00
     AMIN     =   0.10
     WC   =   100.;   INIMIX=   1;  MIXPRE=   1;  MAXMIX= -45

 Intra band minimization:
   WEIMIN = 0.0000     energy-eigenvalue tresh-hold
   EBREAK =  0.28E-08  absolut break condition
   DEPER  =   0.30     relativ break condition  

   TIME   =   0.40     timestep for ELM

  volume/ion in A,a.u.               =      78.67       530.88
  Fermi-wavevector in a.u.,A,eV,Ry     =   0.694264  1.311969  6.558046  0.482003
  Thomas-Fermi vector in A             =   1.776709
 
 Write flags
   LWAVE        =      T    write WAVECAR
   LDOWNSAMPLE  =      F    k-point downsampling of WAVECAR
   LCHARG       =      T    write CHGCAR
   LVTOT        =      F    write LOCPOT, total local potential
   LVHAR        =      F    write LOCPOT, Hartree potential only
   LELF         =      F    write electronic localiz. function (ELF)
   LORBIT       =      0    0 simple, 1 ext, 2 COOP (PROOUT), +10 PAW based schemes


 Dipole corrections
   LMONO  =      F    monopole corrections only (constant potential shift)
   LDIPOL =      F    correct potential (dipole corrections)
   IDIPOL =      0    1-x, 2-y, 3-z, 4-all directions 
   EPSILON=  1.0000000 bulk dielectric constant

 Exchange correlation treatment:
   GGA     =    --    GGA type
   LEXCH   =     8    internal setting for exchange type
   VOSKOWN=      0    Vosko Wilk Nusair interpolation
   LHFCALC =     F    Hartree Fock is set to
   LHFONE  =     F    Hartree Fock one center treatment
   AEXX    =    0.0000 exact exchange contribution

 Linear response parameters
   LEPSILON=     F    determine dielectric tensor
   LRPA    =     F    only Hartree local field effects (RPA)
   LNABLA  =     F    use nabla operator in PAW spheres
   LVEL    =     F    velocity operator in full k-point grid
   LINTERFAST=   F  fast interpolation
   KINTER  =     0    interpolate to denser k-point grid
   CSHIFT  =0.1000    complex shift for real part using Kramers Kronig
   OMEGAMAX=  -1.0    maximum frequency
   DEG_THRESHOLD= 0.2000000E-02 threshold for treating states as degnerate
   RTIME   =   -0.100 relaxation time in fs
  (WPLASMAI=    0.000 imaginary part of plasma frequency in eV, 0.658/RTIME)
   DFIELD  = 0.0000000 0.0000000 0.0000000 field for delta impulse in time
 
 Orbital magnetization related:
   ORBITALMAG=     F  switch on orbital magnetization
   LCHIMAG   =     F  perturbation theory with respect to B field
   DQ        =  0.001000  dq finite difference perturbation B field
   LLRAUG    =     F  two centre corrections for induced B field



--------------------------------------------------------------------------------------------------------


 Static calculation
 charge density and potential will be updated during run
 non-spin polarized calculation
 Variant of blocked Davidson
 Davidson routine will perform the subspace rotation
 perform sub-space diagonalisation
    after iterative eigenvector-optimisation
 modified Broyden-mixing scheme, WC =      100.0
 initial mixing is a Kerker type mixing with AMIX =  0.4000 and BMIX =      1.0000
 Hartree-type preconditioning will be used
 using additional bands           16
 real space projection scheme for non local part
 use partial core corrections
 calculate Harris-corrections to forces 
   (improved forces if not selfconsistent)
 use gradient corrections 
 use of overlap-Matrix (Vanderbilt PP)
 Fermi weights with tetrahedron method with Bloechl corrections


--------------------------------------------------------------------------------------------------------


  energy-cutoff  :      500.00
  volume of cell :     1888.05
      direct lattice vectors                 reciprocal lattice vectors
    24.009468079  0.000000000  0.000000000     0.041650236  0.000000000  0.000000000
     0.000000000  6.777849674  0.000000000     0.000000000  0.147539419  0.000000000
     0.000000000  0.000000000 11.602143288     0.000000000  0.000000000  0.086190971

  length of vectors
    24.009468079  6.777849674 11.602143288     0.041650236  0.147539419  0.086190971


 
 k-points in units of 2pi/SCALE and weight: k-density: 8.0                          
   0.00000000  0.00000000  0.00000000       0.025
   0.00000000  0.01844243  0.00000000       0.050
   0.00000000  0.03688485  0.00000000       0.050
   0.00000000  0.05532728  0.00000000       0.050
   0.00000000  0.07376971  0.00000000       0.025
   0.00000000  0.00000000  0.01723819       0.050
   0.00000000  0.01844243  0.01723819       0.100
   0.00000000  0.03688485  0.01723819       0.100
   0.00000000  0.05532728  0.01723819       0.100
   0.00000000  0.07376971  0.01723819       0.050
   0.00000000  0.00000000  0.03447639       0.050
   0.00000000  0.01844243  0.03447639       0.100
   0.00000000  0.03688485  0.03447639       0.100
   0.00000000  0.05532728  0.03447639       0.100
   0.00000000  0.07376971  0.03447639       0.050
 
 k-points in reciprocal lattice and weights: k-density: 8.0                          
   0.00000000  0.00000000  0.00000000       0.025
   0.00000000  0.12500000  0.00000000       0.050
   0.00000000  0.25000000  0.00000000       0.050
   0.00000000  0.37500000  0.00000000       0.050
   0.00000000  0.50000000  0.00000000       0.025
   0.00000000  0.00000000  0.20000000       0.050
   0.00000000  0.12500000  0.20000000       0.100
   0.00000000  0.25000000  0.20000000       0.100
   0.00000000  0.37500000  0.20000000       0.100
   0.00000000  0.50000000  0.20000000       0.050
   0.00000000  0.00000000  0.40000000       0.050
   0.00000000  0.12500000  0.40000000       0.100
   0.00000000  0.25000000  0.40000000       0.100
   0.00000000  0.37500000  0.40000000       0.100
   0.00000000  0.50000000  0.40000000       0.050
 
 position of ions in fractional coordinates (direct lattice) 
   0.00569361  0.25000000  0.70237436
   0.39037797  0.75000002  0.29762564
   0.18192962  0.75000002  0.18455769
   0.21414196  0.25000000  0.81544229
   0.05978014  0.75000002  0.91381034
   0.33629144  0.25000000  0.08618964
   0.12784309  0.25000000  0.39347508
   0.26822849  0.75000002  0.60652497
   0.07289913  0.07294055  0.14040652
   0.32317245  0.92705944  0.85959346
   0.11472410  0.92882682  0.65949390
   0.28134748  0.07117317  0.34050610
   0.32317245  0.57294056  0.85959346
   0.07289913  0.42705944  0.14040652
   0.28134748  0.42882682  0.34050610
   0.11472410  0.57117318  0.65949390
   0.03110981  0.75000002  0.59990657
   0.36496177  0.25000000  0.40009343
   0.15651343  0.25000000  0.07815062
   0.23955817  0.75000002  0.92184936
   0.07418398  0.25000000  0.95849974
   0.32188760  0.75000002  0.04150028
   0.11343925  0.75000002  0.47722591
   0.28263233  0.25000000  0.52277401
 
 position of ions in cartesian coordinates  (Angst):
   0.13670066  1.69446242  8.14904792
   9.37276745  5.08338737  3.45309536
   4.36803341  5.08338737  2.14126475
   5.14143467  1.69446242  9.46087830
   1.43528938  5.08338737 10.60215845
   8.07417870  1.69446242  0.99998460
   3.06944466  1.69446242  4.56515421
   6.44002342  5.08338737  7.03698955
   1.75026941  0.49438011  1.62901661
   7.75919867  6.28346951  9.97312644
   2.75446463  6.29544856  7.65154271
   6.75500345  0.48240106  3.95060058
   7.75919867  3.88330500  9.97312644
   1.75026941  2.89454467  1.62901661
   6.75500345  2.90652372  3.95060058
   2.75446463  3.87132595  7.65154271
   0.74692994  5.08338737  6.96020196
   8.76253796  1.69446242  4.64194132
   3.75780416  1.69446242  0.90671465
   5.75166416  5.08338737 10.69542840
   1.78111780  1.69446242 11.12065129
   7.72835016  5.08338737  0.48149218
   2.72361612  5.08338737  5.53684339
   6.78585196  1.69446242  6.06529895
 


--------------------------------------------------------------------------------------------------------


 k-point  1 :   0.0000 0.0000 0.0000  plane waves:   47989
 k-point  2 :   0.0000 0.1250 0.0000  plane waves:   47929
 k-point  3 :   0.0000 0.2500 0.0000  plane waves:   47901
 k-point  4 :   0.0000 0.3750 0.0000  plane waves:   47910
 k-point  5 :   0.0000 0.5000 0.0000  plane waves:   47868
 k-point  6 :   0.0000 0.0000 0.2000  plane waves:   48006
 k-point  7 :   0.0000 0.1250 0.2000  plane waves:   47967
 k-point  8 :   0.0000 0.2500 0.2000  plane waves:   47907
 k-point  9 :   0.0000 0.3750 0.2000  plane waves:   47884
 k-point 10 :   0.0000 0.5000 0.2000  plane waves:   47884
 k-point 11 :   0.0000 0.0000 0.4000  plane waves:   47922
 k-point 12 :   0.0000 0.1250 0.4000  plane waves:   47954
 k-point 13 :   0.0000 0.2500 0.4000  plane waves:   47967
 k-point 14 :   0.0000 0.3750 0.4000  plane waves:   47928
 k-point 15 :   0.0000 0.5000 0.4000  plane waves:   47890

 maximum and minimum number of plane-waves per node :     12077    11868

 maximum number of plane-waves:     48006
 maximum index in each direction: 
   IXMAX=   43   IYMAX=   12   IZMAX=   21
   IXMIN=  -43   IYMIN=  -12   IZMIN=  -21


 real space projection operators:
  total allocation   :       4538.56 KBytes
  max/ min on nodes  :       1137.44       1133.27


 parallel 3D FFT for wavefunctions:
    minimum data exchange during FFTs selected (reduces bandwidth)
 parallel 3D FFT for charge:
    minimum data exchange during FFTs selected (reduces bandwidth)


 total amount of memory used by VASP MPI-rank0    79354. kBytes
=======================================================================

   base      :      30000. kBytes
   nonlr-proj:       2648. kBytes
   fftplans  :       5898. kBytes
   grid      :       8824. kBytes
   one-center:         93. kBytes
   wavefun   :      31891. kBytes
 
     INWAV:  cpu time    0.0000: real time    0.0000
 Broyden mixing: mesh for mixing (old mesh)
   NGX = 87   NGY = 25   NGZ = 43
  (NGX  =280   NGY  = 80   NGZ  =128)
  gives a total of  93525 points

 initial charge density was supplied:
 charge density of overlapping atoms calculated
 number of electron     144.0000000 magnetization 
 keeping initial charge density in first step


--------------------------------------------------------------------------------------------------------


 Maximum index for non-local projection operator          744
 Maximum index for augmentation-charges          607 (set IRDMAX)


--------------------------------------------------------------------------------------------------------


 First call to EWALD:  gamma=   0.143
 Maximum number of real-space cells 2x 5x 3
 Maximum number of reciprocal cells 5x 2x 3

    FEWALD:  cpu time    0.0079: real time    0.0080


--------------------------------------- Iteration      1(   1)  ---------------------------------------


    POTLOK:  cpu time    0.0646: real time    0.1059
    SETDIJ:  cpu time    0.0167: real time    0.0168
     EDDAV:  cpu time    2.6197: real time    2.6318
 BZINTS: Fermi energy:  6.982969;144.000000 electrons
         Band energy:-463.043839;  BLOECHL correction: -0.033826
       DOS:  cpu time    0.0123: real time    0.0125
    --------------------------------------------
      LOOP:  cpu time    2.7133: real time    2.7671

 eigenvalue-minimisations  :  2768
 total energy-change (2. order) : 0.1179089E+04  (-0.4778704E+04)
 number of electron     144.0000000 magnetization 
 augmentation part      144.0000000 magnetization 

 Free energy of the ion-electron system (eV)
  ---------------------------------------------------
  alpha Z        PSCENC =       170.45750602
  Ewald energy   TEWEN  =     10986.99358953
  -Hartree energ DENC   =    -17109.26071287
  -exchange      EXHF   =         0.00000000
  -V(xc)+E(xc)   XCENC  =        41.42270582
  PAW double counting   =      3692.15173346    -3390.49189382
  entropy T*S    EENTRO =         0.00000000
  eigenvalues    EBANDS =      -463.04383865
  atomic energy  EATOM  =      7250.85976021
  Solvation  Ediel_sol  =         0.00000000
  ---------------------------------------------------
  free energy    TOTEN  =      1179.08884969 eV

  energy without entropy =     1179.08884969  energy(sigma->0) =     1179.08884969


--------------------------------------------------------------------------------------------------------




--------------------------------------- Iteration      1(   2)  ---------------------------------------


     EDDAV:  cpu time    3.3399: real time    3.3598
 BZINTS: Fermi energy: -1.762746;144.000000 electrons
         Band energy:***********;  BLOECHL correction:  0.000000
       DOS:  cpu time    0.0027: real time    0.0027
    --------------------------------------------
      LOOP:  cpu time    3.3426: real time    3.3625

 eigenvalue-minimisations  :  3856
 total energy-change (2. order) :-0.1120400E+04  (-0.1092548E+04)
 number of electron     144.0000000 magnetization 
 augmentation part      144.0000000 magnetization 

 Free energy of the ion-electron system (eV)
  ---------------------------------------------------
  alpha Z        PSCENC =       170.45750602
  Ewald energy   TEWEN  =     10986.99358953
  -Hartree energ DENC   =    -17109.26071287
  -exchange      EXHF   =         0.00000000
  -V(xc)+E(xc)   XCENC  =        41.42270582
  PAW double counting   =      3692.15173346    -3390.49189382
  entropy T*S    EENTRO =         0.00000000
  eigenvalues    EBANDS =     -1583.44422902
  atomic energy  EATOM  =      7250.85976021
  Solvation  Ediel_sol  =         0.00000000
  ---------------------------------------------------
  free energy    TOTEN  =        58.68845932 eV

  energy without entropy =       58.68845932  energy(sigma->0) =       58.68845932


--------------------------------------------------------------------------------------------------------




--------------------------------------- Iteration      1(   3)  ---------------------------------------


     EDDAV:  cpu time    2.8948: real time    2.9128
 BZINTS: Fermi energy: -3.215858;144.000000 electrons
         Band energy:***********;  BLOECHL correction:  0.000000
       DOS:  cpu time    0.0023: real time    0.0023
    --------------------------------------------
      LOOP:  cpu time    2.8971: real time    2.9151

 eigenvalue-minimisations  :  3216
 total energy-change (2. order) :-0.1671264E+03  (-0.1664719E+03)
 number of electron     144.0000000 magnetization 
 augmentation part      144.0000000 magnetization 

 Free energy of the ion-electron system (eV)
  ---------------------------------------------------
  alpha Z        PSCENC =       170.45750602
  Ewald energy   TEWEN  =     10986.99358953
  -Hartree energ DENC   =    -17109.26071287
  -exchange      EXHF   =         0.00000000
  -V(xc)+E(xc)   XCENC  =        41.42270582
  PAW double counting   =      3692.15173346    -3390.49189382
  entropy T*S    EENTRO =         0.00000000
  eigenvalues    EBANDS =     -1750.57058426
  atomic energy  EATOM  =      7250.85976021
  Solvation  Ediel_sol  =         0.00000000
  ---------------------------------------------------
  free energy    TOTEN  =      -108.43789592 eV

  energy without entropy =     -108.43789592  energy(sigma->0) =     -108.43789592


--------------------------------------------------------------------------------------------------------




--------------------------------------- Iteration      1(   4)  ---------------------------------------


     EDDAV:  cpu time    3.3083: real time    3.3276
 BZINTS: Fermi energy: -3.340446;144.000000 electrons
         Band energy:***********;  BLOECHL correction:  0.000000
       DOS:  cpu time    0.0019: real time    0.0019
    --------------------------------------------
      LOOP:  cpu time    3.3102: real time    3.3296

 eigenvalue-minimisations  :  3768
 total energy-change (2. order) :-0.5949116E+01  (-0.5932697E+01)
 number of electron     144.0000000 magnetization 
 augmentation part      144.0000000 magnetization 

 Free energy of the ion-electron system (eV)
  ---------------------------------------------------
  alpha Z        PSCENC =       170.45750602
  Ewald energy   TEWEN  =     10986.99358953
  -Hartree energ DENC   =    -17109.26071287
  -exchange      EXHF   =         0.00000000
  -V(xc)+E(xc)   XCENC  =        41.42270582
  PAW double counting   =      3692.15173346    -3390.49189382
  entropy T*S    EENTRO =         0.00000000
  eigenvalues    EBANDS =     -1756.51970048
  atomic energy  EATOM  =      7250.85976021
  Solvation  Ediel_sol  =         0.00000000
  ---------------------------------------------------
  free energy    TOTEN  =      -114.38701214 eV

  energy without entropy =     -114.38701214  energy(sigma->0) =     -114.38701214


--------------------------------------------------------------------------------------------------------




--------------------------------------- Iteration      1(   5)  ---------------------------------------


     EDDAV:  cpu time    3.5197: real time    3.5401
 BZINTS: Fermi energy: -3.314412;144.000000 electrons
         Band energy:***********;  BLOECHL correction:  0.000000
       DOS:  cpu time    0.0020: real time    0.0020
    CHARGE:  cpu time    0.1582: real time    0.1587
    MIXING:  cpu time    0.0078: real time    0.0082
    --------------------------------------------
      LOOP:  cpu time    3.6877: real time    3.7090

 eigenvalue-minimisations  :  4168
 total energy-change (2. order) :-0.2740774E+00  (-0.2739977E+00)
 number of electron     143.9999993 magnetization 
 augmentation part      -17.5280434 magnetization 

 Broyden mixing:
  rms(total) = 0.92552E+00    rms(broyden)= 0.92551E+00
  rms(prec ) = 0.11950E+01
  weight for this iteration     100.00

 Free energy of the ion-electron system (eV)
  ---------------------------------------------------
  alpha Z        PSCENC =       170.45750602
  Ewald energy   TEWEN  =     10986.99358953
  -Hartree energ DENC   =    -17109.26071287
  -exchange      EXHF   =         0.00000000
  -V(xc)+E(xc)   XCENC  =        41.42270582
  PAW double counting   =      3692.15173346    -3390.49189382
  entropy T*S    EENTRO =         0.00000000
  eigenvalues    EBANDS =     -1756.79377787
  atomic energy  EATOM  =      7250.85976021
  Solvation  Ediel_sol  =         0.00000000
  ---------------------------------------------------
  free energy    TOTEN  =      -114.66108953 eV

  energy without entropy =     -114.66108953  energy(sigma->0) =     -114.66108953


--------------------------------------------------------------------------------------------------------




--------------------------------------- Iteration      1(   6)  ---------------------------------------


    POTLOK:  cpu time    0.0588: real time    0.0702
    SETDIJ:  cpu time    0.0087: real time    0.0087
     EDDAV:  cpu time    2.7691: real time    2.7756
 BZINTS: Fermi energy: -2.266959;144.000000 electrons
         Band energy:***********;  BLOECHL correction:  0.000000
       DOS:  cpu time    0.0021: real time    0.0021
    CHARGE:  cpu time    0.1600: real time    0.1603
    MIXING:  cpu time    0.0065: real time    0.0065
    --------------------------------------------
      LOOP:  cpu time    3.0051: real time    3.0235

 eigenvalue-minimisations  :  3024
 total energy-change (2. order) : 0.8347485E+01  (-0.2083224E+01)
 number of electron     143.9999992 magnetization 
 augmentation part      -17.4174089 magnetization 

 Broyden mixing:
  rms(total) = 0.46640E+00    rms(broyden)= 0.46640E+00
  rms(prec ) = 0.58463E+00
  weight for this iteration     100.00

 eigenvalues of (default mixing * dielectric matrix)
  average eigenvalue GAMMA=   1.5429
  1.5429

 Free energy of the ion-electron system (eV)
  ---------------------------------------------------
  alpha Z        PSCENC =       170.45750602
  Ewald energy   TEWEN  =     10986.99358953
  -Hartree energ DENC   =    -17198.26256377
  -exchange      EXHF   =         0.00000000
  -V(xc)+E(xc)   XCENC  =        44.32148485
  PAW double counting   =      3724.73275173    -3430.25267378
  entropy T*S    EENTRO =         0.00000000
  eigenvalues    EBANDS =     -1655.16345923
  atomic energy  EATOM  =      7250.85976021
  Solvation  Ediel_sol  =         0.00000000
  ---------------------------------------------------
  free energy    TOTEN  =      -106.31360444 eV

  energy without entropy =     -106.31360444  energy(sigma->0) =     -106.31360444


--------------------------------------------------------------------------------------------------------




--------------------------------------- Iteration      1(   7)  ---------------------------------------


    POTLOK:  cpu time    0.0573: real time    0.0683
    SETDIJ:  cpu time    0.0047: real time    0.0048
     EDDAV:  cpu time    3.0935: real time    3.1008
 BZINTS: Fermi energy: -1.423045;144.000000 electrons
         Band energy:***********;  BLOECHL correction:  0.000000
       DOS:  cpu time    0.0019: real time    0.0019
    CHARGE:  cpu time    0.1560: real time    0.1564
    MIXING:  cpu time    0.0066: real time    0.0069
    --------------------------------------------
      LOOP:  cpu time    3.3200: real time    3.3391

 eigenvalue-minimisations  :  3480
 total energy-change (2. order) : 0.1288447E+01  (-0.1007683E+01)
 number of electron     143.9999991 magnetization 
 augmentation part      -17.5054043 magnetization 

 Broyden mixing:
  rms(total) = 0.24494E+00    rms(broyden)= 0.24494E+00
  rms(prec ) = 0.29624E+00
  weight for this iteration     100.00

 eigenvalues of (default mixing * dielectric matrix)
  average eigenvalue GAMMA=   1.8596
  1.8596  1.8596

 Free energy of the ion-electron system (eV)
  ---------------------------------------------------
  alpha Z        PSCENC =       170.45750602
  Ewald energy   TEWEN  =     10986.99358953
  -Hartree energ DENC   =    -17273.84942485
  -exchange      EXHF   =         0.00000000
  -V(xc)+E(xc)   XCENC  =        46.64545931
  PAW double counting   =      3767.60939489    -3478.91934566
  entropy T*S    EENTRO =         0.00000000
  eigenvalues    EBANDS =     -1574.82209655
  atomic energy  EATOM  =      7250.85976021
  Solvation  Ediel_sol  =         0.00000000
  ---------------------------------------------------
  free energy    TOTEN  =      -105.02515711 eV

  energy without entropy =     -105.02515711  energy(sigma->0) =     -105.02515711


--------------------------------------------------------------------------------------------------------




--------------------------------------- Iteration      1(   8)  ---------------------------------------


    POTLOK:  cpu time    0.0577: real time    0.0672
    SETDIJ:  cpu time    0.0108: real time    0.0108
     EDDAV:  cpu time    2.8188: real time    2.8254
 BZINTS: Fermi energy: -1.234799;144.000000 electrons
         Band energy:***********;  BLOECHL correction:  0.000000
       DOS:  cpu time    0.0023: real time    0.0023
    CHARGE:  cpu time    0.1543: real time    0.1547
    MIXING:  cpu time    0.0074: real time    0.0077
    --------------------------------------------
      LOOP:  cpu time    3.0513: real time    3.0682

 eigenvalue-minimisations  :  3104
 total energy-change (2. order) : 0.2112672E+00  (-0.3535633E+00)
 number of electron     143.9999991 magnetization 
 augmentation part      -17.6393065 magnetization 

 Broyden mixing:
  rms(total) = 0.11631E+00    rms(broyden)= 0.11631E+00
  rms(prec ) = 0.18607E+00
  weight for this iteration     100.00

 eigenvalues of (default mixing * dielectric matrix)
  average eigenvalue GAMMA=   1.6831
  2.6182  1.2156  1.2156

 Free energy of the ion-electron system (eV)
  ---------------------------------------------------
  alpha Z        PSCENC =       170.45750602
  Ewald energy   TEWEN  =     10986.99358953
  -Hartree energ DENC   =    -17310.22362404
  -exchange      EXHF   =         0.00000000
  -V(xc)+E(xc)   XCENC  =        47.58028922
  PAW double counting   =      3816.96410109    -3530.05392070
  entropy T*S    EENTRO =         0.00000000
  eigenvalues    EBANDS =     -1537.39159126
  atomic energy  EATOM  =      7250.85976021
  Solvation  Ediel_sol  =         0.00000000
  ---------------------------------------------------
  free energy    TOTEN  =      -104.81388993 eV

  energy without entropy =     -104.81388993  energy(sigma->0) =     -104.81388993


--------------------------------------------------------------------------------------------------------




--------------------------------------- Iteration      1(   9)  ---------------------------------------


    POTLOK:  cpu time    0.0571: real time    0.0676
    SETDIJ:  cpu time    0.0084: real time    0.0084
     EDDAV:  cpu time    2.8004: real time    2.8071
 BZINTS: Fermi energy: -0.840544;144.000000 electrons
         Band energy:***********;  BLOECHL correction:  0.000000
       DOS:  cpu time    0.0023: real time    0.0023
    CHARGE:  cpu time    0.1480: real time    0.1484
    MIXING:  cpu time    0.0058: real time    0.0059
    --------------------------------------------
      LOOP:  cpu time    3.0220: real time    3.0396

 eigenvalue-minimisations  :  3104
 total energy-change (2. order) : 0.2701045E+00  (-0.1106795E+00)
 number of electron     143.9999991 magnetization 
 augmentation part      -17.6117437 magnetization 

 Broyden mixing:
  rms(total) = 0.55756E-01    rms(broyden)= 0.55756E-01
  rms(prec ) = 0.81136E-01
  weight for this iteration     100.00

 eigenvalues of (default mixing * dielectric matrix)
  average eigenvalue GAMMA=   1.4195
  2.5514  1.2206  1.2206  0.6855

 Free energy of the ion-electron system (eV)
  ---------------------------------------------------
  alpha Z        PSCENC =       170.45750602
  Ewald energy   TEWEN  =     10986.99358953
  -Hartree energ DENC   =    -17349.23119264
  -exchange      EXHF   =         0.00000000
  -V(xc)+E(xc)   XCENC  =        48.53607696
  PAW double counting   =      3827.42057302    -3541.83479822
  entropy T*S    EENTRO =         0.00000000
  eigenvalues    EBANDS =     -1497.74530036
  atomic energy  EATOM  =      7250.85976021
  Solvation  Ediel_sol  =         0.00000000
  ---------------------------------------------------
  free energy    TOTEN  =      -104.54378548 eV

  energy without entropy =     -104.54378548  energy(sigma->0) =     -104.54378548


--------------------------------------------------------------------------------------------------------




--------------------------------------- Iteration      1(  10)  ---------------------------------------


    POTLOK:  cpu time    0.0570: real time    0.0677
    SETDIJ:  cpu time    0.0075: real time    0.0075
     EDDAV:  cpu time    3.1326: real time    3.1401
 BZINTS: Fermi energy: -0.799056;144.000000 electrons
         Band energy:***********;  BLOECHL correction:  0.000000
       DOS:  cpu time    0.0023: real time    0.0023
    CHARGE:  cpu time    0.1509: real time    0.1512
    MIXING:  cpu time    0.0084: real time    0.0084
    --------------------------------------------
      LOOP:  cpu time    3.3586: real time    3.3771

 eigenvalue-minimisations  :  3472
 total energy-change (2. order) :-0.1392227E-01  (-0.2538764E-01)
 number of electron     143.9999991 magnetization 
 augmentation part      -17.6313774 magnetization 

 Broyden mixing:
  rms(total) = 0.42649E-01    rms(broyden)= 0.42649E-01
  rms(prec ) = 0.63330E-01
  weight for this iteration     100.00

 eigenvalues of (default mixing * dielectric matrix)
  average eigenvalue GAMMA=   1.6370
  2.5653  2.5653  1.0963  0.9789  0.9789

 Free energy of the ion-electron system (eV)
  ---------------------------------------------------
  alpha Z        PSCENC =       170.45750602
  Ewald energy   TEWEN  =     10986.99358953
  -Hartree energ DENC   =    -17360.36035997
  -exchange      EXHF   =         0.00000000
  -V(xc)+E(xc)   XCENC  =        48.57731317
  PAW double counting   =      3822.69778879    -3536.80830188
  entropy T*S    EENTRO =         0.00000000
  eigenvalues    EBANDS =     -1486.97500361
  atomic energy  EATOM  =      7250.85976021
  Solvation  Ediel_sol  =         0.00000000
  ---------------------------------------------------
  free energy    TOTEN  =      -104.55770774 eV

  energy without entropy =     -104.55770774  energy(sigma->0) =     -104.55770774


--------------------------------------------------------------------------------------------------------




--------------------------------------- Iteration      1(  11)  ---------------------------------------


    POTLOK:  cpu time    0.0578: real time    0.0674
    SETDIJ:  cpu time    0.0102: real time    0.0102
     EDDAV:  cpu time    2.8329: real time    2.8396
 BZINTS: Fermi energy: -0.678723;144.000000 electrons
         Band energy:***********;  BLOECHL correction:  0.000000
       DOS:  cpu time    0.0023: real time    0.0024
    CHARGE:  cpu time    0.1558: real time    0.1562
    MIXING:  cpu time    0.0054: real time    0.0055
    --------------------------------------------
      LOOP:  cpu time    3.0645: real time    3.0812

 eigenvalue-minimisations  :  3144
 total energy-change (2. order) : 0.7740654E-02  (-0.7583181E-02)
 number of electron     143.9999991 magnetization 
 augmentation part      -17.6388899 magnetization 

 Broyden mixing:
  rms(total) = 0.15767E-01    rms(broyden)= 0.15767E-01
  rms(prec ) = 0.31427E-01
  weight for this iteration     100.00

 eigenvalues of (default mixing * dielectric matrix)
  average eigenvalue GAMMA=   1.6350
  2.8767  2.8767  1.0788  1.0788  0.9496  0.9496

 Free energy of the ion-electron system (eV)
  ---------------------------------------------------
  alpha Z        PSCENC =       170.45750602
  Ewald energy   TEWEN  =     10986.99358953
  -Hartree energ DENC   =    -17380.34857917
  -exchange      EXHF   =         0.00000000
  -V(xc)+E(xc)   XCENC  =        48.75128528
  PAW double counting   =      3823.74315973    -3537.50014801
  entropy T*S    EENTRO =         0.00000000
  eigenvalues    EBANDS =     -1467.50654068
  atomic energy  EATOM  =      7250.85976021
  Solvation  Ediel_sol  =         0.00000000
  ---------------------------------------------------
  free energy    TOTEN  =      -104.54996709 eV

  energy without entropy =     -104.54996709  energy(sigma->0) =     -104.54996709


--------------------------------------------------------------------------------------------------------




--------------------------------------- Iteration      1(  12)  ---------------------------------------


    POTLOK:  cpu time    0.0561: real time    0.0673
    SETDIJ:  cpu time    0.0083: real time    0.0083
     EDDAV:  cpu time    2.8751: real time    2.8820
 BZINTS: Fermi energy: -0.615310;144.000000 electrons
         Band energy:***********;  BLOECHL correction:  0.000000
       DOS:  cpu time    0.0024: real time    0.0024
    CHARGE:  cpu time    0.1465: real time    0.1468
    MIXING:  cpu time    0.0060: real time    0.0060
    --------------------------------------------
      LOOP:  cpu time    3.0944: real time    3.1128

 eigenvalue-minimisations  :  3216
 total energy-change (2. order) :-0.4673034E-02  (-0.1507925E-02)
 number of electron     143.9999991 magnetization 
 augmentation part      -17.6333354 magnetization 

 Broyden mixing:
  rms(total) = 0.12348E-01    rms(broyden)= 0.12348E-01
  rms(prec ) = 0.21006E-01
  weight for this iteration     100.00

 eigenvalues of (default mixing * dielectric matrix)
  average eigenvalue GAMMA=   1.7770
  3.8016  2.5371  2.0447  1.1263  1.1263  0.9016  0.9016

 Free energy of the ion-electron system (eV)
  ---------------------------------------------------
  alpha Z        PSCENC =       170.45750602
  Ewald energy   TEWEN  =     10986.99358953
  -Hartree energ DENC   =    -17392.20779900
  -exchange      EXHF   =         0.00000000
  -V(xc)+E(xc)   XCENC  =        48.81104013
  PAW double counting   =      3821.62996851    -3535.25074599
  entropy T*S    EENTRO =         0.00000000
  eigenvalues    EBANDS =     -1455.84795953
  atomic energy  EATOM  =      7250.85976021
  Solvation  Ediel_sol  =         0.00000000
  ---------------------------------------------------
  free energy    TOTEN  =      -104.55464012 eV

  energy without entropy =     -104.55464012  energy(sigma->0) =     -104.55464012


--------------------------------------------------------------------------------------------------------




--------------------------------------- Iteration      1(  13)  ---------------------------------------


    POTLOK:  cpu time    0.0574: real time    0.0676
    SETDIJ:  cpu time    0.0096: real time    0.0096
     EDDAV:  cpu time    2.9167: real time    2.9236
 BZINTS: Fermi energy: -0.532526;144.000000 electrons
         Band energy:***********;  BLOECHL correction:  0.000000
       DOS:  cpu time    0.0022: real time    0.0022
    CHARGE:  cpu time    0.1500: real time    0.1504
    MIXING:  cpu time    0.0067: real time    0.0067
    --------------------------------------------
      LOOP:  cpu time    3.1426: real time    3.1601

 eigenvalue-minimisations  :  3264
 total energy-change (2. order) :-0.8807753E-02  (-0.1044192E-02)
 number of electron     143.9999991 magnetization 
 augmentation part      -17.6350821 magnetization 

 Broyden mixing:
  rms(total) = 0.66376E-02    rms(broyden)= 0.66376E-02
  rms(prec ) = 0.11680E-01
  weight for this iteration     100.00

 eigenvalues of (default mixing * dielectric matrix)
  average eigenvalue GAMMA=   1.8383
  4.2254  2.9491  2.4402  1.2125  1.2125  0.8992  0.8838  0.8838

 Free energy of the ion-electron system (eV)
  ---------------------------------------------------
  alpha Z        PSCENC =       170.45750602
  Ewald energy   TEWEN  =     10986.99358953
  -Hartree energ DENC   =    -17402.66045989
  -exchange      EXHF   =         0.00000000
  -V(xc)+E(xc)   XCENC  =        48.87154868
  PAW double counting   =      3819.89208694    -3533.63724217
  entropy T*S    EENTRO =         0.00000000
  eigenvalues    EBANDS =     -1445.34023719
  atomic energy  EATOM  =      7250.85976021
  Solvation  Ediel_sol  =         0.00000000
  ---------------------------------------------------
  free energy    TOTEN  =      -104.56344787 eV

  energy without entropy =     -104.56344787  energy(sigma->0) =     -104.56344787


--------------------------------------------------------------------------------------------------------




--------------------------------------- Iteration      1(  14)  ---------------------------------------


    POTLOK:  cpu time    0.0587: real time    0.0686
    SETDIJ:  cpu time    0.0101: real time    0.0102
     EDDAV:  cpu time    2.7607: real time    2.7672
 BZINTS: Fermi energy: -0.515515;144.000000 electrons
         Band energy:***********;  BLOECHL correction:  0.000000
       DOS:  cpu time    0.0020: real time    0.0020
    CHARGE:  cpu time    0.1531: real time    0.1535
    MIXING:  cpu time    0.0096: real time    0.0097
    --------------------------------------------
      LOOP:  cpu time    2.9943: real time    3.0111

 eigenvalue-minimisations  :  3048
 total energy-change (2. order) :-0.4635159E-02  (-0.2770552E-03)
 number of electron     143.9999991 magnetization 
 augmentation part      -17.6360579 magnetization 

 Broyden mixing:
  rms(total) = 0.55330E-02    rms(broyden)= 0.55330E-02
  rms(prec ) = 0.88171E-02
  weight for this iteration     100.00

 eigenvalues of (default mixing * dielectric matrix)
  average eigenvalue GAMMA=   1.8593
  4.6611  3.1136  2.2374  1.4060  1.4060  0.9105  0.9105  1.0444  1.0444

 Free energy of the ion-electron system (eV)
  ---------------------------------------------------
  alpha Z        PSCENC =       170.45750602
  Ewald energy   TEWEN  =     10986.99358953
  -Hartree energ DENC   =    -17405.94350896
  -exchange      EXHF   =         0.00000000
  -V(xc)+E(xc)   XCENC  =        48.86908645
  PAW double counting   =      3818.96582391    -3532.71875607
  entropy T*S    EENTRO =         0.00000000
  eigenvalues    EBANDS =     -1442.05158412
  atomic energy  EATOM  =      7250.85976021
  Solvation  Ediel_sol  =         0.00000000
  ---------------------------------------------------
  free energy    TOTEN  =      -104.56808303 eV

  energy without entropy =     -104.56808303  energy(sigma->0) =     -104.56808303


--------------------------------------------------------------------------------------------------------




--------------------------------------- Iteration      1(  15)  ---------------------------------------


    POTLOK:  cpu time    0.0590: real time    0.0695
    SETDIJ:  cpu time    0.0120: real time    0.0120
     EDDAV:  cpu time    2.7696: real time    2.7761
 BZINTS: Fermi energy: -0.504116;144.000000 electrons
         Band energy:***********;  BLOECHL correction:  0.000000
       DOS:  cpu time    0.0023: real time    0.0024
    CHARGE:  cpu time    0.1498: real time    0.1502
    MIXING:  cpu time    0.0090: real time    0.0091
    --------------------------------------------
      LOOP:  cpu time    3.0018: real time    3.0192

 eigenvalue-minimisations  :  3072
 total energy-change (2. order) :-0.1464809E-02  (-0.1775436E-03)
 number of electron     143.9999991 magnetization 
 augmentation part      -17.6380439 magnetization 

 Broyden mixing:
  rms(total) = 0.22098E-02    rms(broyden)= 0.22098E-02
  rms(prec ) = 0.43116E-02
  weight for this iteration     100.00

 eigenvalues of (default mixing * dielectric matrix)
  average eigenvalue GAMMA=   1.9576
  5.4147  3.5955  2.4250  1.7157  0.9055  0.9055  1.2469  1.2469  0.9956  1.1245

 Free energy of the ion-electron system (eV)
  ---------------------------------------------------
  alpha Z        PSCENC =       170.45750602
  Ewald energy   TEWEN  =     10986.99358953
  -Hartree energ DENC   =    -17407.63259016
  -exchange      EXHF   =         0.00000000
  -V(xc)+E(xc)   XCENC  =        48.86254129
  PAW double counting   =      3819.43678711    -3533.15578916
  entropy T*S    EENTRO =         0.00000000
  eigenvalues    EBANDS =     -1440.39135267
  atomic energy  EATOM  =      7250.85976021
  Solvation  Ediel_sol  =         0.00000000
  ---------------------------------------------------
  free energy    TOTEN  =      -104.56954784 eV

  energy without entropy =     -104.56954784  energy(sigma->0) =     -104.56954784


--------------------------------------------------------------------------------------------------------




--------------------------------------- Iteration      1(  16)  ---------------------------------------


    POTLOK:  cpu time    0.0594: real time    0.0700
    SETDIJ:  cpu time    0.0093: real time    0.0093
     EDDAV:  cpu time    2.8113: real time    2.8180
 BZINTS: Fermi energy: -0.494374;144.000000 electrons
         Band energy:***********;  BLOECHL correction:  0.000000
       DOS:  cpu time    0.0021: real time    0.0021
    CHARGE:  cpu time    0.1516: real time    0.1519
    MIXING:  cpu time    0.0081: real time    0.0082
    --------------------------------------------
      LOOP:  cpu time    3.0418: real time    3.0595

 eigenvalue-minimisations  :  3120
 total energy-change (2. order) :-0.9188169E-03  (-0.6770026E-04)
 number of electron     143.9999991 magnetization 
 augmentation part      -17.6378178 magnetization 

 Broyden mixing:
  rms(total) = 0.15365E-02    rms(broyden)= 0.15365E-02
  rms(prec ) = 0.28352E-02
  weight for this iteration     100.00

 eigenvalues of (default mixing * dielectric matrix)
  average eigenvalue GAMMA=   2.0057
  5.6327  4.1026  2.5334  1.8784  0.9091  0.9091  1.5194  1.2781  1.2781  1.0110
  1.0110

 Free energy of the ion-electron system (eV)
  ---------------------------------------------------
  alpha Z        PSCENC =       170.45750602
  Ewald energy   TEWEN  =     10986.99358953
  -Hartree energ DENC   =    -17409.06503843
  -exchange      EXHF   =         0.00000000
  -V(xc)+E(xc)   XCENC  =        48.85888910
  PAW double counting   =      3819.63377264    -3533.35731903
  entropy T*S    EENTRO =         0.00000000
  eigenvalues    EBANDS =     -1438.95162670
  atomic energy  EATOM  =      7250.85976021
  Solvation  Ediel_sol  =         0.00000000
  ---------------------------------------------------
  free energy    TOTEN  =      -104.57046666 eV

  energy without entropy =     -104.57046666  energy(sigma->0) =     -104.57046666


--------------------------------------------------------------------------------------------------------




--------------------------------------- Iteration      1(  17)  ---------------------------------------


    POTLOK:  cpu time    0.0564: real time    0.0679
    SETDIJ:  cpu time    0.0103: real time    0.0103
     EDDAV:  cpu time    2.7867: real time    2.7933
 BZINTS: Fermi energy: -0.487031;144.000000 electrons
         Band energy:***********;  BLOECHL correction:  0.000000
       DOS:  cpu time    0.0020: real time    0.0020
    CHARGE:  cpu time    0.1557: real time    0.1560
    MIXING:  cpu time    0.0095: real time    0.0095
    --------------------------------------------
      LOOP:  cpu time    3.0206: real time    3.0390

 eigenvalue-minimisations  :  3112
 total energy-change (2. order) :-0.4376801E-03  (-0.3346961E-04)
 number of electron     143.9999991 magnetization 
 augmentation part      -17.6377503 magnetization 

 Broyden mixing:
  rms(total) = 0.11083E-02    rms(broyden)= 0.11083E-02
  rms(prec ) = 0.19748E-02
  weight for this iteration     100.00

 eigenvalues of (default mixing * dielectric matrix)
  average eigenvalue GAMMA=   2.0630
  6.1307  4.3171  2.8205  2.2833  1.6479  0.9071  0.9071  1.2652  1.2652  1.1247
  1.1247  0.9628

 Free energy of the ion-electron system (eV)
  ---------------------------------------------------
  alpha Z        PSCENC =       170.45750602
  Ewald energy   TEWEN  =     10986.99358953
  -Hartree energ DENC   =    -17410.02940142
  -exchange      EXHF   =         0.00000000
  -V(xc)+E(xc)   XCENC  =        48.86074262
  PAW double counting   =      3819.71009913    -3533.43167063
  entropy T*S    EENTRO =         0.00000000
  eigenvalues    EBANDS =     -1437.99152979
  atomic energy  EATOM  =      7250.85976021
  Solvation  Ediel_sol  =         0.00000000
  ---------------------------------------------------
  free energy    TOTEN  =      -104.57090434 eV

  energy without entropy =     -104.57090434  energy(sigma->0) =     -104.57090434


--------------------------------------------------------------------------------------------------------




--------------------------------------- Iteration      1(  18)  ---------------------------------------


    POTLOK:  cpu time    0.0562: real time    0.0675
    SETDIJ:  cpu time    0.0146: real time    0.0146
     EDDAV:  cpu time    2.6426: real time    2.6489
 BZINTS: Fermi energy: -0.483315;144.000000 electrons
         Band energy:***********;  BLOECHL correction:  0.000000
       DOS:  cpu time    0.0020: real time    0.0020
    CHARGE:  cpu time    0.1542: real time    0.1545
    MIXING:  cpu time    0.0073: real time    0.0073
    --------------------------------------------
      LOOP:  cpu time    2.8768: real time    2.8948

 eigenvalue-minimisations  :  2992
 total energy-change (2. order) :-0.1152456E-02  (-0.2115644E-04)
 number of electron     143.9999991 magnetization 
 augmentation part      -17.6375628 magnetization 

 Broyden mixing:
  rms(total) = 0.58381E-03    rms(broyden)= 0.58381E-03
  rms(prec ) = 0.98812E-03
  weight for this iteration     100.00

 eigenvalues of (default mixing * dielectric matrix)
  average eigenvalue GAMMA=   2.1390
  6.3703  5.1477  2.9950  2.5332  1.9082  0.9067  0.9067  1.3729  1.3729  1.1796
  1.1796  0.9674  0.9674

 Free energy of the ion-electron system (eV)
  ---------------------------------------------------
  alpha Z        PSCENC =       170.45750602
  Ewald energy   TEWEN  =     10986.99358953
  -Hartree energ DENC   =    -17410.80278977
  -exchange      EXHF   =         0.00000000
  -V(xc)+E(xc)   XCENC  =        48.86258483
  PAW double counting   =      3819.59801617    -3533.31674222
  entropy T*S    EENTRO =         0.00000000
  eigenvalues    EBANDS =     -1437.22398156
  atomic energy  EATOM  =      7250.85976021
  Solvation  Ediel_sol  =         0.00000000
  ---------------------------------------------------
  free energy    TOTEN  =      -104.57205679 eV

  energy without entropy =     -104.57205679  energy(sigma->0) =     -104.57205679


--------------------------------------------------------------------------------------------------------




--------------------------------------- Iteration      1(  19)  ---------------------------------------


    POTLOK:  cpu time    0.0569: real time    0.0680
    SETDIJ:  cpu time    0.0113: real time    0.0113
     EDDAV:  cpu time    2.4006: real time    2.4063
 BZINTS: Fermi energy: -0.483985;144.000000 electrons
         Band energy:***********;  BLOECHL correction:  0.000000
       DOS:  cpu time    0.0020: real time    0.0020
    CHARGE:  cpu time    0.1515: real time    0.1519
    MIXING:  cpu time    0.0082: real time    0.0082
    --------------------------------------------
      LOOP:  cpu time    2.6305: real time    2.6477

 eigenvalue-minimisations  :  2672
 total energy-change (2. order) :-0.7040572E-03  (-0.9763757E-05)
 number of electron     143.9999991 magnetization 
 augmentation part      -17.6376898 magnetization 

 Broyden mixing:
  rms(total) = 0.49011E-03    rms(broyden)= 0.49011E-03
  rms(prec ) = 0.70150E-03
  weight for this iteration     100.00

 eigenvalues of (default mixing * dielectric matrix)
  average eigenvalue GAMMA=   2.2732
  7.1848  5.7589  3.3953  2.7368  2.3556  1.5895  1.5895  0.9067  0.9067  1.2056
  1.2056  1.0120  1.0120  0.9665

 Free energy of the ion-electron system (eV)
  ---------------------------------------------------
  alpha Z        PSCENC =       170.45750602
  Ewald energy   TEWEN  =     10986.99358953
  -Hartree energ DENC   =    -17410.95630142
  -exchange      EXHF   =         0.00000000
  -V(xc)+E(xc)   XCENC  =        48.86120746
  PAW double counting   =      3819.55541672    -3533.27428075
  entropy T*S    EENTRO =         0.00000000
  eigenvalues    EBANDS =     -1437.06965862
  atomic energy  EATOM  =      7250.85976021
  Solvation  Ediel_sol  =         0.00000000
  ---------------------------------------------------
  free energy    TOTEN  =      -104.57276085 eV

  energy without entropy =     -104.57276085  energy(sigma->0) =     -104.57276085


--------------------------------------------------------------------------------------------------------




--------------------------------------- Iteration      1(  20)  ---------------------------------------


    POTLOK:  cpu time    0.0550: real time    0.0651
    SETDIJ:  cpu time    0.0092: real time    0.0092
     EDDAV:  cpu time    2.4287: real time    2.4345
 BZINTS: Fermi energy: -0.484901;144.000000 electrons
         Band energy:***********;  BLOECHL correction:  0.000000
       DOS:  cpu time    0.0021: real time    0.0021
    CHARGE:  cpu time    0.1507: real time    0.1510
    MIXING:  cpu time    0.0084: real time    0.0085
    --------------------------------------------
      LOOP:  cpu time    2.6541: real time    2.6704

 eigenvalue-minimisations  :  2696
 total energy-change (2. order) :-0.4342816E-03  (-0.7823960E-05)
 number of electron     143.9999991 magnetization 
 augmentation part      -17.6377918 magnetization 

 Broyden mixing:
  rms(total) = 0.16657E-03    rms(broyden)= 0.16657E-03
  rms(prec ) = 0.23116E-03
  weight for this iteration     100.00

 eigenvalues of (default mixing * dielectric matrix)
  average eigenvalue GAMMA=   2.3194
  7.9215  6.2237  3.5561  2.9824  2.2934  1.7139  1.7139  0.9068  0.9068  1.2213
  1.2213  1.1106  1.1106  0.9544  0.9544

 Free energy of the ion-electron system (eV)
  ---------------------------------------------------
  alpha Z        PSCENC =       170.45750602
  Ewald energy   TEWEN  =     10986.99358953
  -Hartree energ DENC   =    -17411.03837352
  -exchange      EXHF   =         0.00000000
  -V(xc)+E(xc)   XCENC  =        48.86062200
  PAW double counting   =      3819.56799952    -3533.28713791
  entropy T*S    EENTRO =         0.00000000
  eigenvalues    EBANDS =     -1436.98716097
  atomic energy  EATOM  =      7250.85976021
  Solvation  Ediel_sol  =         0.00000000
  ---------------------------------------------------
  free energy    TOTEN  =      -104.57319513 eV

  energy without entropy =     -104.57319513  energy(sigma->0) =     -104.57319513


--------------------------------------------------------------------------------------------------------




--------------------------------------- Iteration      1(  21)  ---------------------------------------


    POTLOK:  cpu time    0.0549: real time    0.0663
    SETDIJ:  cpu time    0.0129: real time    0.0129
     EDDAV:  cpu time    2.3484: real time    2.3539
 BZINTS: Fermi energy: -0.486363;144.000000 electrons
         Band energy:***********;  BLOECHL correction:  0.000000
       DOS:  cpu time    0.0019: real time    0.0019
    CHARGE:  cpu time    0.1438: real time    0.1441
    MIXING:  cpu time    0.0072: real time    0.0072
    --------------------------------------------
      LOOP:  cpu time    2.5691: real time    2.5864

 eigenvalue-minimisations  :  2608
 total energy-change (2. order) :-0.1109971E-03  (-0.1672210E-05)
 number of electron     143.9999991 magnetization 
 augmentation part      -17.6377509 magnetization 

 Broyden mixing:
  rms(total) = 0.93619E-04    rms(broyden)= 0.93619E-04
  rms(prec ) = 0.11779E-03
  weight for this iteration     100.00

 eigenvalues of (default mixing * dielectric matrix)
  average eigenvalue GAMMA=   2.3882
  8.8959  6.5494  3.6506  3.2541  2.3483  1.8904  1.8904  0.9067  0.9067  1.2332
  1.2332  1.3336  1.1924  0.9980  0.9643  0.9643

 Free energy of the ion-electron system (eV)
  ---------------------------------------------------
  alpha Z        PSCENC =       170.45750602
  Ewald energy   TEWEN  =     10986.99358953
  -Hartree energ DENC   =    -17411.01898847
  -exchange      EXHF   =         0.00000000
  -V(xc)+E(xc)   XCENC  =        48.86024389
  PAW double counting   =      3819.57065661    -3533.28954829
  entropy T*S    EENTRO =         0.00000000
  eigenvalues    EBANDS =     -1437.00652563
  atomic energy  EATOM  =      7250.85976021
  Solvation  Ediel_sol  =         0.00000000
  ---------------------------------------------------
  free energy    TOTEN  =      -104.57330613 eV

  energy without entropy =     -104.57330613  energy(sigma->0) =     -104.57330613


--------------------------------------------------------------------------------------------------------




--------------------------------------- Iteration      1(  22)  ---------------------------------------


    POTLOK:  cpu time    0.0576: real time    0.0688
    SETDIJ:  cpu time    0.0070: real time    0.0070
     EDDAV:  cpu time    2.1505: real time    2.1556
 BZINTS: Fermi energy: -0.487647;144.000000 electrons
         Band energy:***********;  BLOECHL correction:  0.000000
       DOS:  cpu time    0.0020: real time    0.0020
    CHARGE:  cpu time    0.1484: real time    0.1487
    MIXING:  cpu time    0.0070: real time    0.0070
    --------------------------------------------
      LOOP:  cpu time    2.3724: real time    2.3891

 eigenvalue-minimisations  :  2280
 total energy-change (2. order) :-0.3691941E-04  (-0.3800989E-06)
 number of electron     143.9999991 magnetization 
 augmentation part      -17.6377481 magnetization 

 Broyden mixing:
  rms(total) = 0.48977E-04    rms(broyden)= 0.48976E-04
  rms(prec ) = 0.63742E-04
  weight for this iteration     100.00

 eigenvalues of (default mixing * dielectric matrix)
  average eigenvalue GAMMA=   2.3725
  9.0023  6.7770  3.8447  3.2920  2.5372  1.9037  1.9037  0.9068  0.9068  1.4140
  1.2407  1.2407  1.2223  1.2223  0.9636  0.9636  0.9917

 Free energy of the ion-electron system (eV)
  ---------------------------------------------------
  alpha Z        PSCENC =       170.45750602
  Ewald energy   TEWEN  =     10986.99358953
  -Hartree energ DENC   =    -17410.98939615
  -exchange      EXHF   =         0.00000000
  -V(xc)+E(xc)   XCENC  =        48.85978076
  PAW double counting   =      3819.56193631    -3533.28092974
  entropy T*S    EENTRO =         0.00000000
  eigenvalues    EBANDS =     -1437.03558998
  atomic energy  EATOM  =      7250.85976021
  Solvation  Ediel_sol  =         0.00000000
  ---------------------------------------------------
  free energy    TOTEN  =      -104.57334305 eV

  energy without entropy =     -104.57334305  energy(sigma->0) =     -104.57334305


--------------------------------------------------------------------------------------------------------




--------------------------------------- Iteration      1(  23)  ---------------------------------------


    POTLOK:  cpu time    0.0576: real time    0.0684
    SETDIJ:  cpu time    0.0073: real time    0.0073
     EDDAV:  cpu time    2.0246: real time    2.0294
 BZINTS: Fermi energy: -0.488469;144.000000 electrons
         Band energy:***********;  BLOECHL correction:  0.000000
       DOS:  cpu time    0.0022: real time    0.0022
    CHARGE:  cpu time    0.1449: real time    0.1453
    MIXING:  cpu time    0.0094: real time    0.0095
    --------------------------------------------
      LOOP:  cpu time    2.2461: real time    2.2621

 eigenvalue-minimisations  :  2080
 total energy-change (2. order) :-0.1013279E-04  (-0.8023918E-07)
 number of electron     143.9999991 magnetization 
 augmentation part      -17.6377465 magnetization 

 Broyden mixing:
  rms(total) = 0.30006E-04    rms(broyden)= 0.30006E-04
  rms(prec ) = 0.39895E-04
  weight for this iteration     100.00

 eigenvalues of (default mixing * dielectric matrix)
  average eigenvalue GAMMA=   2.3653
  9.0127  6.9083  3.6589  3.6589  2.6123  2.2197  1.8627  1.8627  0.9068  0.9068
  1.2996  1.2996  1.2286  1.2286  1.0330  0.9694  0.9694  0.9364

 Free energy of the ion-electron system (eV)
  ---------------------------------------------------
  alpha Z        PSCENC =       170.45750602
  Ewald energy   TEWEN  =     10986.99358953
  -Hartree energ DENC   =    -17410.99792591
  -exchange      EXHF   =         0.00000000
  -V(xc)+E(xc)   XCENC  =        48.85990342
  PAW double counting   =      3819.56123469    -3533.28029282
  entropy T*S    EENTRO =         0.00000000
  eigenvalues    EBANDS =     -1437.02712832
  atomic energy  EATOM  =      7250.85976021
  Solvation  Ediel_sol  =         0.00000000
  ---------------------------------------------------
  free energy    TOTEN  =      -104.57335318 eV

  energy without entropy =     -104.57335318  energy(sigma->0) =     -104.57335318


--------------------------------------------------------------------------------------------------------




--------------------------------------- Iteration      1(  24)  ---------------------------------------


    POTLOK:  cpu time    0.0567: real time    0.0667
    SETDIJ:  cpu time    0.0094: real time    0.0094
     EDDAV:  cpu time    1.9041: real time    1.9086
 BZINTS: Fermi energy: -0.489296;144.000000 electrons
         Band energy:***********;  BLOECHL correction:  0.000000
       DOS:  cpu time    0.0020: real time    0.0020
    CHARGE:  cpu time    0.1464: real time    0.1468
    MIXING:  cpu time    0.0074: real time    0.0074
    --------------------------------------------
      LOOP:  cpu time    2.1260: real time    2.1409

 eigenvalue-minimisations  :  1880
 total energy-change (2. order) :-0.2121136E-05  (-0.2290858E-07)
 number of electron     143.9999991 magnetization 
 augmentation part      -17.6377470 magnetization 

 Broyden mixing:
  rms(total) = 0.14323E-04    rms(broyden)= 0.14323E-04
  rms(prec ) = 0.20593E-04
  weight for this iteration     100.00

 eigenvalues of (default mixing * dielectric matrix)
  average eigenvalue GAMMA=   2.3713
  9.0634  6.9618  3.8919  3.8919  2.6878  2.6878  1.9203  1.9203  0.9068  0.9068
  1.3340  1.3340  1.2273  1.2273  1.2335  0.9899  0.9899  0.9399  0.9399

 Free energy of the ion-electron system (eV)
  ---------------------------------------------------
  alpha Z        PSCENC =       170.45750602
  Ewald energy   TEWEN  =     10986.99358953
  -Hartree energ DENC   =    -17410.99087543
  -exchange      EXHF   =         0.00000000
  -V(xc)+E(xc)   XCENC  =        48.85982500
  PAW double counting   =      3819.56057379    -3533.27964018
  entropy T*S    EENTRO =         0.00000000
  eigenvalues    EBANDS =     -1437.03409424
  atomic energy  EATOM  =      7250.85976021
  Solvation  Ediel_sol  =         0.00000000
  ---------------------------------------------------
  free energy    TOTEN  =      -104.57335530 eV

  energy without entropy =     -104.57335530  energy(sigma->0) =     -104.57335530


--------------------------------------------------------------------------------------------------------




--------------------------------------- Iteration      1(  25)  ---------------------------------------


    POTLOK:  cpu time    0.0562: real time    0.0665
    SETDIJ:  cpu time    0.0101: real time    0.0101
     EDDAV:  cpu time    1.9390: real time    1.9436
 BZINTS: Fermi energy: -0.490020;144.000000 electrons
         Band energy:***********;  BLOECHL correction:  0.000000
       DOS:  cpu time    0.0020: real time    0.0020
    --------------------------------------------
      LOOP:  cpu time    2.0072: real time    2.0222

 eigenvalue-minimisations  :  1904
 total energy-change (2. order) :-0.6960308E-06  (-0.1489296E-07)
 number of electron     143.9999991 magnetization 
 augmentation part      -17.6377470 magnetization 

 Free energy of the ion-electron system (eV)
  ---------------------------------------------------
  alpha Z        PSCENC =       170.45750602
  Ewald energy   TEWEN  =     10986.99358953
  -Hartree energ DENC   =    -17410.98944189
  -exchange      EXHF   =         0.00000000
  -V(xc)+E(xc)   XCENC  =        48.85978118
  PAW double counting   =      3819.55877900    -3533.27782410
  entropy T*S    EENTRO =         0.00000000
  eigenvalues    EBANDS =     -1437.03550594
  atomic energy  EATOM  =      7250.85976021
  Solvation  Ediel_sol  =         0.00000000
  ---------------------------------------------------
  free energy    TOTEN  =      -104.57335600 eV

[...]
     26     -13.7782      2.00000
     27     -13.4187      2.00000
     28     -13.4117      2.00000
     29     -13.3613      2.00000
     30     -13.3539      2.00000
     31     -13.3389      2.00000
     32     -13.3362      2.00000
     33     -10.9369      2.00000
     34     -10.9291      2.00000
     35     -10.6580      2.00000
     36     -10.6457      2.00000
     37      -6.3288      2.00000
     38      -6.3187      2.00000
     39      -6.1024      2.00000
     40      -6.0830      2.00000
     41      -6.0199      2.00000
     42      -6.0133      2.00000
     43      -5.8226      2.00000
     44      -5.8084      2.00000
     45      -5.7765      2.00000
     46      -5.7402      2.00000
     47      -5.7193      2.00000
     48      -5.6125      2.00000
     49      -2.6919      2.00000
     50      -2.6090      2.00000
     51      -2.4838      2.00000
     52      -2.4463      2.00000
     53      -2.0959      2.00000
     54      -2.0392      2.00000
     55      -2.0309      2.00000
     56      -1.9870      2.00000
     57      -1.8823      2.00000
     58      -1.8559      2.00000
     59      -1.7175      2.00000
     60      -1.6502      2.00000
     61      -1.5932      2.00000
     62      -1.5095      2.00000
     63      -1.3963      2.00000
     64      -1.3698      2.00000
     65      -1.2310      2.00000
     66      -1.1720      2.00000
     67      -1.1081      2.00000
     68      -0.9687      2.00000
     69      -0.8887      2.00000
     70      -0.8470      2.00000
     71      -0.7708      2.00000
     72      -0.7292      2.00000
     73       0.4569      0.00000
     74       0.4869      0.00000
     75       0.6125      0.00000
     76       0.6544      0.00000
     77       0.7362      0.00000
     78       0.7996      0.00000
     79       0.9588      0.00000
     80       0.9875      0.00000
     81       1.0483      0.00000
     82       1.1170      0.00000
     83       1.2810      0.00000
     84       1.3695      0.00000
     85       1.4293      0.00000
     86       1.5320      0.00000
     87       1.6490      0.00000
     88       1.7455      0.00000

 k-point    15 :       0.0000    0.5000    0.4000
  band No.  band energies     occupation 
      1     -29.4760      2.00000
      2     -29.4760      2.00000
      3     -28.6318      2.00000
      4     -28.6318      2.00000
      5     -28.5153      2.00000
      6     -28.5152      2.00000
      7     -28.0769      2.00000
      8     -28.0769      2.00000
      9     -14.8214      2.00000
     10     -14.8214      2.00000
     11     -14.7536      2.00000
     12     -14.7536      2.00000
     13     -14.6775      2.00000
     14     -14.6775      2.00000
     15     -13.9808      2.00000
     16     -13.9808      2.00000
     17     -13.9522      2.00000
     18     -13.9522      2.00000
     19     -13.9222      2.00000
     20     -13.9222      2.00000
     21     -13.8682      2.00000
     22     -13.8682      2.00000
     23     -13.7868      2.00000
     24     -13.7868      2.00000
     25     -13.7788      2.00000
     26     -13.7788      2.00000
     27     -13.4146      2.00000
     28     -13.4146      2.00000
     29     -13.3585      2.00000
     30     -13.3585      2.00000
     31     -13.3364      2.00000
     32     -13.3364      2.00000
     33     -10.9273      2.00000
     34     -10.9273      2.00000
     35     -10.6425      2.00000
     36     -10.6425      2.00000
     37      -6.3528      2.00000
     38      -6.3528      2.00000
     39      -6.0774      2.00000
     40      -6.0773      2.00000
     41      -6.0118      2.00000
     42      -6.0117      2.00000
     43      -5.7933      2.00000
     44      -5.7933      2.00000
     45      -5.7662      2.00000
     46      -5.7661      2.00000
     47      -5.6579      2.00000
     48      -5.6578      2.00000
     49      -2.5989      2.00000
     50      -2.5989      2.00000
     51      -2.4850      2.00000
     52      -2.4850      2.00000
     53      -2.0630      2.00000
     54      -2.0630      2.00000
     55      -2.0138      2.00000
     56      -2.0137      2.00000
     57      -1.8873      2.00000
     58      -1.8873      2.00000
     59      -1.6225      2.00000
     60      -1.6225      2.00000
     61      -1.4805      2.00000
     62      -1.4805      2.00000
     63      -1.4258      2.00000
     64      -1.4258      2.00000
     65      -1.2137      2.00000
     66      -1.2137      2.00000
     67      -1.0461      2.00000
     68      -1.0461      2.00000
     69      -0.8775      2.00000
     70      -0.8774      2.00000
     71      -0.7568      2.00000
     72      -0.7567      2.00000
     73       0.3841      0.00000
     74       0.3841      0.00000
     75       0.6061      0.00000
     76       0.6061      0.00000
     77       0.7879      0.00000
     78       0.7879      0.00000
     79       0.9054      0.00000
     80       0.9054      0.00000
     81       1.0053      0.00000
     82       1.0053      0.00000
     83       1.3433      0.00000
     84       1.3433      0.00000
     85       1.5199      0.00000
     86       1.5199      0.00000
     87       1.6092      0.00000
     88       1.6092      0.00000


--------------------------------------------------------------------------------------------------------


 soft charge-density along one line, spin component           1
         0         1         2         3         4         5         6         7         8         9
 total charge-density along one line
 
 pseudopotential strength for first ion, spin component:           1
  5.071  -5.588  -0.000  -0.008  -0.038  -0.000  -0.003  -0.015
 -5.588  -2.740   0.000   0.002   0.007  -0.000  -0.001  -0.006
 -0.000   0.000  -6.783  -0.000  -0.000   1.854  -0.000  -0.000
 -0.008   0.002  -0.000  -6.778  -0.002  -0.000   1.867  -0.004
 -0.038   0.007  -0.000  -0.002  -6.778  -0.000  -0.004   1.866
 -0.000  -0.000   1.854  -0.000  -0.000   7.310  -0.000  -0.000
 -0.003  -0.001  -0.000   1.867  -0.004  -0.000   7.311  -0.000
 -0.015  -0.006  -0.000  -0.004   1.866  -0.000  -0.000   7.311
 -0.000   0.000  -0.013  -0.000  -0.000  -0.009  -0.000  -0.000
 -0.000   0.000  -0.001  -0.000  -0.000  -0.000  -0.000  -0.000
  0.002  -0.001   0.000  -0.004   0.007   0.000  -0.003   0.005
 -0.002   0.001  -0.000  -0.013  -0.002  -0.000  -0.008  -0.002
  0.003  -0.001   0.000  -0.001  -0.012   0.000  -0.001  -0.008
  0.000   0.000   0.001   0.000   0.000   0.000   0.000   0.000
  0.000   0.000   0.000   0.000   0.000  -0.000   0.000   0.000
 -0.000  -0.000  -0.000   0.000  -0.000  -0.000   0.000  -0.000
  0.000   0.000   0.000   0.001   0.000   0.000   0.000   0.000
 -0.000  -0.000  -0.000   0.000   0.001  -0.000   0.000   0.000
 total augmentation occupancy for first ion, spin component:           1
  2.102  -0.257   0.000   0.012   0.055   0.000  -0.005  -0.020  -0.000   0.000   0.019  -0.011   0.036   0.000   0.000  -0.010
 -0.257   0.640   0.000  -0.032  -0.145   0.000   0.012   0.033  -0.000   0.000  -0.032   0.013  -0.069   0.000   0.000   0.043
  0.000   0.000   2.013   0.000   0.000  -0.012   0.000   0.000  -0.085   0.022   0.000  -0.000   0.000   0.079  -0.041   0.000
  0.012  -0.032   0.000   1.999   0.003   0.000  -0.002  -0.002  -0.000   0.000  -0.044  -0.069  -0.014   0.000   0.000   0.043
  0.055  -0.145   0.000   0.003   1.995  -0.000  -0.002  -0.000   0.000   0.000   0.035  -0.006  -0.052   0.000   0.000  -0.032
  0.000   0.000  -0.012   0.000   0.000   0.008   0.000   0.000   0.023  -0.009   0.000   0.000   0.000  -0.030   0.013   0.000
 -0.005   0.012   0.000  -0.002  -0.002   0.000   0.005   0.001   0.000  -0.000   0.016   0.016   0.005   0.000   0.000  -0.022
 -0.020   0.033  -0.000  -0.002  -0.000   0.000   0.001   0.004  -0.000   0.000  -0.006  -0.000   0.008   0.000   0.000   0.008
  0.000   0.000  -0.085   0.000   0.000   0.023   0.000   0.000   0.151  -0.013  -0.000   0.000  -0.000  -0.189   0.018   0.000
  0.000   0.000   0.022   0.000   0.000  -0.009   0.000   0.000  -0.013   0.068   0.000   0.000   0.000   0.017  -0.084   0.000
  0.019  -0.032   0.000  -0.044   0.035   0.000   0.016  -0.006   0.000   0.000   0.120   0.053   0.022   0.000   0.000  -0.149
 -0.011   0.013   0.000  -0.069  -0.006   0.000   0.016  -0.000   0.000   0.000   0.053   0.087   0.007   0.000   0.000  -0.072
  0.036  -0.069   0.000  -0.014  -0.052   0.000   0.005   0.008  -0.000  -0.000   0.022   0.007   0.096   0.000   0.000  -0.029
  0.000   0.000   0.079   0.000   0.000  -0.030   0.000   0.000  -0.189   0.017   0.000  -0.000  -0.000   0.267  -0.031   0.000
  0.000   0.000  -0.041   0.000   0.000   0.013  -0.000   0.000   0.018  -0.084   0.000   0.000   0.000  -0.031   0.114   0.000
 -0.010   0.043   0.000   0.043  -0.032   0.000  -0.022   0.008   0.000  -0.000  -0.149  -0.072  -0.029   0.000   0.000   0.206
  0.008  -0.031  -0.000   0.064  -0.000   0.000  -0.023  -0.001  -0.000   0.000  -0.070  -0.110  -0.011   0.000   0.000   0.107
 -0.028   0.084   0.000   0.021   0.050  -0.000  -0.008  -0.011   0.000   0.000  -0.030  -0.012  -0.127   0.000   0.000   0.047


------------------------ aborting loop because EDIFF is reached ----------------------------------------


    CHARGE:  cpu time    0.1496: real time    0.1500
    FORLOC:  cpu time    0.0096: real time    0.0096
    FORNL :  cpu time    0.5373: real time    0.5386
    STRESS:  cpu time    1.5945: real time    1.5984
    FORCOR:  cpu time    0.0651: real time    0.0652
    FORHAR:  cpu time    0.0222: real time    0.0222
    MIXING:  cpu time    0.0194: real time    0.0195
    OFIELD:  cpu time    0.0000: real time    0.0000

 ---------------------------------------------------------------------------------------------

         DFTD3 V3.0 Rev 1        
 IVDW         = 11
 DF pbe       
 parameters
 VDW_S6       =    1.0000
 VDW_S8       =    0.7220
 VDW_SR       =    1.2170
 rs18     =    1.0000
 alpha6   =   14.0000
 alpha8   =   16.0000
 k1-k3    =   16.0000    1.3333   -4.0000
 VDW_RADIUS   =   50.2022 A
 VDW_CNRADIUS =   21.1671 A
 Edisp (eV)   -2.27841

 E6    (eV) :    -0.8487
 E8    (eV) :    -1.4297
 % E8        : 62.75
    FORVDW:  cpu time    0.0364: real time    0.0582

  FORCE on cell =-STRESS in cart. coord.  units (eV):
  Direction    XX          YY          ZZ          XY          YZ          ZX
  --------------------------------------------------------------------------------------
  Alpha Z   170.45751   170.45751   170.45751
  Ewald  -18711.15922 15119.52453 14578.61520    -0.00003     0.00000   143.59891
  Hartree-15665.80690 16750.84240 16325.95316     0.00000    -0.00000   112.20098
  E(xc)    -461.56663  -459.47045  -459.95635    -0.00000    -0.00000     0.12698
  Local   32964.03297-33305.70194-32332.18876     0.00001    -0.00000  -254.50065
  n-local   338.56362   338.17210   340.14565     0.06038    -0.20602    -1.00518
  augment  -169.06356  -169.51962  -169.55091    -0.00000    -0.00000     0.21192
  Kinetic  1523.83838  1544.32675  1536.02513    -0.06383    -0.80496    -0.53206
  Fock        0.00000     0.00000     0.00000     0.00000     0.00000     0.00000
  vdW        -1.07648    -2.50783    -2.48883     0.00000    -0.00000     0.03498
  -------------------------------------------------------------------------------------
  Total     -11.78032   -13.87657   -12.98822     0.00000     0.00000     0.13589
  in kB      -9.99666   -11.77552   -11.02167     0.00000     0.00000     0.11532
  external pressure =      -10.93 kB  Pullay stress =        0.00 kB


 VOLUME and BASIS-vectors are now :
 -----------------------------------------------------------------------------
  energy-cutoff  :      500.00
  volume of cell :     1888.05
      direct lattice vectors                 reciprocal lattice vectors
    24.009468079  0.000000000  0.000000000     0.041650236  0.000000000  0.000000000
     0.000000000  6.777849674  0.000000000     0.000000000  0.147539419  0.000000000
     0.000000000  0.000000000 11.602143288     0.000000000  0.000000000  0.086190971

  length of vectors
    24.009468079  6.777849674 11.602143288     0.041650236  0.147539419  0.086190971


 FORCES acting on ions
    electron-ion (+dipol)            ewald-force                    non-local-force                 convergence-correction
 -----------------------------------------------------------------------------------------------
   0.761E+03 0.102E-04 0.445E+02   -.756E+03 0.990E-05 -.437E+02   -.431E+01 -.210E-18 -.800E+00   -.104E-03 -.949E-09 0.235E-04
   -.761E+03 -.629E-04 -.445E+02   0.756E+03 -.128E-04 0.437E+02   0.431E+01 -.190E-18 0.800E+00   0.104E-03 0.108E-08 -.235E-04
   0.886E+02 -.615E-04 -.409E+02   -.884E+02 -.174E-04 0.396E+02   0.227E+00 -.228E-18 0.137E+01   0.117E-03 0.161E-08 -.102E-03
   -.886E+02 0.106E-04 0.409E+02   0.884E+02 0.125E-04 -.396E+02   -.227E+00 0.222E-18 -.137E+01   -.117E-03 -.145E-08 0.102E-03
   0.610E+03 -.612E-04 -.477E+02   -.607E+03 -.163E-04 0.479E+02   -.177E+01 0.214E-17 -.259E+00   0.355E-04 0.132E-08 -.112E-03
   -.610E+03 0.901E-05 0.477E+02   0.607E+03 0.141E-04 -.479E+02   0.177E+01 0.192E-17 0.259E+00   -.355E-04 -.120E-08 0.112E-03
   0.348E+03 0.111E-04 -.146E+02   -.348E+03 0.128E-04 0.139E+02   -.326E+00 0.441E-17 0.772E+00   0.779E-04 -.140E-08 0.408E-04
   -.348E+03 -.624E-04 0.146E+02   0.348E+03 -.130E-04 -.139E+02   0.326E+00 0.496E-17 -.772E+00   -.779E-04 0.142E-08 -.408E-04
   0.269E+03 0.365E+02 -.466E+02   -.269E+03 -.380E+02 0.474E+02   -.134E-01 0.149E+01 -.843E+00   0.522E-04 0.648E-04 -.588E-04
   -.269E+03 -.365E+02 0.466E+02   0.269E+03 0.380E+02 -.474E+02   0.134E-01 -.149E+01 0.843E+00   -.522E-04 -.648E-04 0.588E-04
   0.114E+03 -.337E+02 0.246E+01   -.114E+03 0.348E+02 -.137E+01   -.232E-02 -.110E+01 -.109E+01   -.119E-04 -.644E-04 -.101E-04
   -.114E+03 0.337E+02 -.246E+01   0.114E+03 -.348E+02 0.137E+01   0.232E-02 0.110E+01 0.109E+01   0.119E-04 0.644E-04 0.101E-04
   -.269E+03 0.365E+02 0.466E+02   0.269E+03 -.380E+02 -.474E+02   0.134E-01 0.149E+01 0.843E+00   -.522E-04 0.648E-04 0.588E-04
   0.269E+03 -.365E+02 -.466E+02   -.269E+03 0.380E+02 0.474E+02   -.134E-01 -.149E+01 -.843E+00   0.522E-04 -.648E-04 -.588E-04
   -.114E+03 -.337E+02 -.246E+01   0.114E+03 0.348E+02 0.137E+01   0.232E-02 -.110E+01 0.109E+01   0.119E-04 -.644E-04 0.101E-04
   0.114E+03 0.337E+02 0.246E+01   -.114E+03 -.348E+02 -.137E+01   -.232E-02 0.110E+01 -.109E+01   -.119E-04 0.644E-04 -.101E-04
   0.323E+03 -.414E-05 0.461E+02   -.324E+03 -.607E-05 -.467E+02   0.140E+01 0.125E-17 0.630E+00   0.489E-04 0.402E-09 0.385E-04
   -.323E+03 0.616E-05 -.461E+02   0.324E+03 0.630E-05 0.467E+02   -.140E+01 0.102E-17 -.630E+00   -.489E-04 -.430E-09 -.385E-04
   0.330E+02 0.837E-05 -.101E+02   -.312E+02 0.736E-05 0.944E+01   -.157E+01 -.506E-18 0.703E+00   -.402E-04 -.592E-09 -.197E-04
   -.330E+02 -.281E-05 0.101E+02   0.312E+02 -.702E-05 -.944E+01   0.157E+01 -.615E-18 -.703E+00   0.402E-04 0.551E-09 0.197E-04
   0.234E+03 0.431E-05 0.154E+02   -.234E+03 0.801E-05 -.164E+02   -.490E-01 0.830E-18 0.107E+01   0.434E-04 -.517E-09 0.351E-04
   -.234E+03 -.543E-05 -.154E+02   0.234E+03 -.806E-05 0.164E+02   0.490E-01 -.187E-18 -.107E+01   -.434E-04 0.479E-09 -.351E-04
   0.149E+03 -.608E-05 0.577E+02   -.149E+03 -.729E-05 -.594E+02   -.577E+00 0.229E-17 0.173E+01   0.242E-05 0.521E-09 0.102E-03
   -.149E+03 0.371E-05 -.577E+02   0.149E+03 0.718E-05 0.594E+02   0.577E+00 -.259E-17 -.173E+01   -.242E-05 -.532E-09 -.102E-03
 -----------------------------------------------------------------------------------------------
   0.668E-04 -.214E-03 0.783E-04   0.284E-12 0.260E-13 0.213E-13   -.222E-15 0.224E-15 0.000E+00   0.206E-07 0.243E-09 -.614E-08
 
 
 POSITION                                       TOTAL-FORCE (eV/Angst)
 -----------------------------------------------------------------------------------
      0.13670      1.69446      8.14905         0.814699      0.000000      0.000302
      9.37277      5.08339      3.45310        -0.814699     -0.000000     -0.000302
      4.36803      5.08339      2.14126         0.391551      0.000000     -0.000265
      5.14143      1.69446      9.46088        -0.391551     -0.000000      0.000265
      1.43529      5.08339     10.60216         0.619283     -0.000000      0.000300
      8.07418      1.69446      0.99998        -0.619283      0.000000     -0.000300
      3.06944      1.69446      4.56515         0.450250     -0.000000     -0.000761
      6.44002      5.08339      7.03699        -0.450250      0.000000      0.000761
      1.75027      0.49438      1.62902        -0.100035     -0.000613      0.000190
      7.75920      6.28347      9.97313         0.100035      0.000613     -0.000190
      2.75446      6.29545      7.65154         0.272379     -0.000109      0.000106
      6.75500      0.48240      3.95060        -0.272379      0.000109     -0.000106
      7.75920      3.88331      9.97313         0.100035     -0.000613     -0.000190
      1.75027      2.89454      1.62902        -0.100035      0.000613      0.000190
      6.75500      2.90652      3.95060        -0.272379     -0.000109     -0.000106
      2.75446      3.87133      7.65154         0.272379      0.000109      0.000106
      0.74693      5.08339      6.96020        -0.220547      0.000000     -0.000442
      8.76254      1.69446      4.64194         0.220547     -0.000000      0.000442
      3.75780      1.69446      0.90671         0.272106     -0.000000      0.000597
      5.75166      5.08339     10.69543        -0.272106      0.000000     -0.000597
      1.78112      1.69446     11.12065        -0.133816     -0.000000     -0.000628
      7.72835      5.08339      0.48149         0.133816      0.000000      0.000628
      2.72362      5.08339      5.53684        -0.177101     -0.000000      0.000923
      6.78585      1.69446      6.06530         0.177101      0.000000     -0.000923
 -----------------------------------------------------------------------------------
    total drift:                                0.000067     -0.000214      0.000078


--------------------------------------------------------------------------------------------------------



  FREE ENERGIE OF THE ION-ELECTRON SYSTEM (eV)
  ---------------------------------------------------
  free  energy   TOTEN  =      -106.85176683 eV

  energy  without entropy=     -106.85176683  energy(sigma->0) =     -106.85176683
 


--------------------------------------------------------------------------------------------------------


    POTLOK:  cpu time    0.0744: real time    0.0746


--------------------------------------------------------------------------------------------------------


 writing wavefunctions
     LOOP+:  cpu time   80.2570: real time   82.1524
    4ORBIT:  cpu time    0.0000: real time    0.0000
 BZINTS: Fermi energy: -0.490020;144.000000 electrons
         Band energy:***********;  BLOECHL correction:  0.000000

 total amount of memory used by VASP MPI-rank0    79354. kBytes
=======================================================================

   base      :      30000. kBytes
   nonlr-proj:       2648. kBytes
   fftplans  :       5898. kBytes
   grid      :       8824. kBytes
   one-center:         93. kBytes
   wavefun   :      31891. kBytes
 
  
  
 General timing and accounting informations for this job:
 ========================================================
  
                  Total CPU time used (sec):       87.910
                            User time (sec):       82.953
                          System time (sec):        4.958
                         Elapsed time (sec):       93.043
  
                   Maximum memory used (kb):      174448.
                   Average memory used (kb):           0.
  
                          Minor page faults:        66258
                          Major page faults:          227
                 Voluntary context switches:        14016
