 vasp.5.4.4.18Apr17-6-g9f103f2a35 (build Nov 21 2017 15:30:27) complex          
  
 executed on             LinuxIFC date 2020.11.10  14:08:23
 running on   64 total cores
 distrk:  each k-point on   32 cores,    2 groups
 distr:  one band on NCORES_PER_BAND=   4 cores,    8 groups


--------------------------------------------------------------------------------------------------------


 INCAR:
 POTCAR:   PAW_PBE Ba_sv 06Sep2000                
 POTCAR:   PAW_PBE Si 05Jan2001                   

 ----------------------------------------------------------------------------- 
|                                                                             |
|           W    W    AA    RRRRR   N    N  II  N    N   GGGG   !!!           |
|           W    W   A  A   R    R  NN   N  II  NN   N  G    G  !!!           |
|           W    W  A    A  R    R  N N  N  II  N N  N  G       !!!           |
|           W WW W  AAAAAA  RRRRR   N  N N  II  N  N N  G  GGG   !            |
|           WW  WW  A    A  R   R   N   NN  II  N   NN  G    G                |
|           W    W  A    A  R    R  N    N  II  N    N   GGGG   !!!           |
|                                                                             |
|      You have enabled k-point parallelism (KPAR>1).                         |
|      This developmental code was originally  written by Paul Kent at ORNL,  |
|      and carefully double checked in Vienna.                                |
|      GW as well as linear response parallelism added by Martijn Marsman     |
|      and Georg Kresse.                                                      |
|      Carefully verify results versus KPAR=1.                                |
|      Report problems to Paul Kent and Vienna.                               |
|                                                                             |
 ----------------------------------------------------------------------------- 


 ----------------------------------------------------------------------------- 
|                                                                             |
|  ADVICE TO THIS USER RUNNING 'VASP/VAMP'   (HEAR YOUR MASTER'S VOICE ...):  |
|                                                                             |
|      You have switched on vdW-DFT.                                          |
|      This routine was written and supplied by Jiri Klimes.                  |
|      We recommed that you carefully read and cite the following             |
|      publication                                                            |
|      J. Klimes, D.R. Bowler, A. Michelides                                  |
|        J. Phys.: Cond Matt. 22 022201 (2010)                                |
|      J. Klimes, D.R. Bowler, A. Michelides                                  |
|        Phys. Rev. B. 83, 195131 (2011)                                      |
|      and references therein.                                                |
|                                                                             |
 ----------------------------------------------------------------------------- 

 POTCAR:   PAW_PBE Ba_sv 06Sep2000                
   VRHFIN =Ba: 5s5p6s                                                           
   LEXCH  = PE                                                                  
   EATOM  =   700.2255 eV,   51.4651 Ry                                         
                                                                                
   TITEL  = PAW_PBE Ba_sv 06Sep2000                                             
   LULTRA =        F    use ultrasoft PP ?                                      
   IUNSCR =        1    unscreen: 0-lin 1-nonlin 2-no                           
   RPACOR =    2.400    partial core radius                                     
   POMASS =  137.327; ZVAL   =   10.000    mass and valenz                      
   RCORE  =    2.800    outmost cutoff radius                                   
   RWIGS  =    3.740; RWIGS  =    1.979    wigner-seitz radius (au A)           
   ENMAX  =  187.210; ENMIN  =  140.408 eV                                      
   RCLOC  =    2.516    cutoff for local pot                                    
   LCOR   =        T    correct aug charges                                     
   LPAW   =        T    paw PP                                                  
   EAUG   =  351.165                                                            
   DEXC   =     .000                                                            
   RMAX   =    3.370    core radius for proj-oper                               
   RAUG   =    1.300    factor for augmentation sphere                          
   RDEP   =    2.976    radius for radial grids                                 
   QCUT   =   -3.709; QGAM   =    7.419    optimization parameters              
                                                                                
   Description                                                                  
     l     E      TYP  RCUT    TYP  RCUT                                        
     0   .000     23  2.800                                                     
     0   .000     23  2.800                                                     
     1   .000     23  2.700                                                     
     1  2.000     23  2.700                                                     
     2   .000     23  2.700                                                     
     2   .000     23  2.700                                                     
  local pseudopotential read in
  partial core-charges read in
  atomic valenz-charges read in
  non local Contribution for L=           0  read in
    real space projection operators read in
  non local Contribution for L=           0  read in
    real space projection operators read in
  non local Contribution for L=           1  read in
    real space projection operators read in
  non local Contribution for L=           1  read in
    real space projection operators read in
  non local Contribution for L=           2  read in
    real space projection operators read in
  non local Contribution for L=           2  read in
    real space projection operators read in
    PAW grid and wavefunctions read in
 
   number of l-projection  operators is LMAX  =           6
   number of lm-projection operators is LMMAX =          18
 
 POTCAR:   PAW_PBE Si 05Jan2001                   
   VRHFIN =Si: s2p2                                                             
   LEXCH  = PE                                                                  
   EATOM  =   103.0669 eV,    7.5752 Ry                                         
                                                                                
   TITEL  = PAW_PBE Si 05Jan2001                                                
   LULTRA =        F    use ultrasoft PP ?                                      
   IUNSCR =        1    unscreen: 0-lin 1-nonlin 2-no                           
   RPACOR =    1.500    partial core radius                                     
   POMASS =   28.085; ZVAL   =    4.000    mass and valenz                      
   RCORE  =    1.900    outmost cutoff radius                                   
   RWIGS  =    2.480; RWIGS  =    1.312    wigner-seitz radius (au A)           
   ENMAX  =  245.345; ENMIN  =  184.009 eV                                      
   ICORE  =        2    local potential                                         
   LCOR   =        T    correct aug charges                                     
   LPAW   =        T    paw PP                                                  
   EAUG   =  322.069                                                            
   DEXC   =    -.007                                                            
   RMAX   =    2.944    core radius for proj-oper                               
   RAUG   =    1.300    factor for augmentation sphere                          
   RDEP   =    1.993    radius for radial grids                                 
   QCUT   =   -4.246; QGAM   =    8.493    optimization parameters              
                                                                                
   Description                                                                  
     l     E      TYP  RCUT    TYP  RCUT                                        
     0   .000     23  1.900                                                     
     0   .000     23  1.900                                                     
     1   .000     23  1.900                                                     
     1   .000     23  1.900                                                     
     2   .000      7  1.900                                                     
  local pseudopotential read in
  partial core-charges read in
  atomic valenz-charges read in
  non local Contribution for L=           0  read in
    real space projection operators read in
  non local Contribution for L=           0  read in
    real space projection operators read in
  non local Contribution for L=           1  read in
    real space projection operators read in
  non local Contribution for L=           1  read in
    real space projection operators read in
    PAW grid and wavefunctions read in
 
   number of l-projection  operators is LMAX  =           4
   number of lm-projection operators is LMMAX =           8
 
 Optimization of the real space projectors (new method)

 maximal supplied QI-value         = 13.42
 optimisation between [QCUT,QGAM] = [ 11.40, 22.81] = [ 36.42,145.68] Ry 
 Optimized for a Real-space Cutoff    1.56 Angstroem

   l    n(q)    QCUT    max X(q) W(low)/X(q) W(high)/X(q)  e(spline) 
   0     11    11.404     7.198    0.14E-04    0.26E-04    0.99E-07
   0     11    11.404    15.603    0.29E-04    0.72E-04    0.44E-06
   1     10    11.404     3.746    0.20E-04    0.24E-04    0.43E-07
   1     10    11.404     4.362    0.22E-03    0.97E-04    0.22E-06
   2     10    11.404     5.782    0.83E-04    0.62E-05    0.27E-06
   2     10    11.404    65.505    0.42E-03    0.31E-04    0.12E-05
 Optimization of the real space projectors (new method)

 maximal supplied QI-value         = 19.84
 optimisation between [QCUT,QGAM] = [ 11.31, 22.82] = [ 35.82,145.81] Ry 
 Optimized for a Real-space Cutoff    1.16 Angstroem

   l    n(q)    QCUT    max X(q) W(low)/X(q) W(high)/X(q)  e(spline) 
   0      8    11.310     8.708    0.14E-04    0.11E-04    0.43E-08
   0      8    11.310   106.241    0.27E-03    0.30E-03    0.38E-07
   1      7    11.310     5.901    0.82E-05    0.48E-04    0.19E-07
   1      7    11.310    73.241    0.27E-03    0.27E-03    0.74E-07

 ----------------------------------------------------------------------------- 
|                                                                             |
|  ADVICE TO THIS USER RUNNING 'VASP/VAMP'   (HEAR YOUR MASTER'S VOICE ...):  |
|                                                                             |
|      You enforced a specific xc-type in the INCAR file,                     |
|      a different type was found on the POTCAR file                          |
|          I HOPE YOU KNOW, WHAT YOU ARE  DOING                               |
|                                                                             |
 ----------------------------------------------------------------------------- 

 PAW_PBE Ba_sv 06Sep2000                :
 energy of atom  1       EATOM= -700.2255
 kinetic energy error for atom=    0.0005 (will be added to EATOM!!)
 PAW_PBE Si 05Jan2001                   :
 energy of atom  2       EATOM= -103.0669
 kinetic energy error for atom=    0.0006 (will be added to EATOM!!)
 
 
 POSCAR: ba8 si16                                
  positions in direct lattice
  velocities in cartesian coordinates
 exchange correlation table for  LEXCH =       43
   RHO(1)=    0.500       N(1)  =     2000
   RHO(2)=  100.500       N(2)  =     4000
 


--------------------------------------------------------------------------------------------------------


 ion  position               nearest neighbor table
   1  0.015  0.250  0.692-  24 3.37  18 3.37  13 3.40  10 3.40  16 3.42  11 3.42  21 3.53  17 3.61
                            17 3.61   5 4.37   5 4.37   7 4.37   4 4.65   4 4.65
   2  0.985  0.750  0.308-  23 3.37  17 3.37   9 3.40  14 3.40  12 3.42  15 3.42  22 3.53  18 3.61
                            18 3.61   6 4.37   6 4.37   8 4.37   3 4.65   3 4.65
   3  0.485  0.750  0.192-  22 3.37  20 3.37  12 3.40  15 3.40   9 3.42  14 3.42  23 3.53  19 3.61
                            19 3.61   7 4.37   7 4.37   5 4.37   2 4.65   2 4.65
   4  0.515  0.250  0.808-  21 3.37  19 3.37  16 3.40  11 3.40  13 3.42  10 3.42  24 3.53  20 3.61
                            20 3.61   8 4.37   8 4.37   6 4.37   1 4.65   1 4.65
   5  0.161  0.750  0.907-  10 3.43  13 3.43  21 3.44  21 3.44  11 3.48  16 3.48  22 3.51   9 3.52
                            14 3.52  17 3.70  20 3.75   1 4.37   1 4.37   3 4.37
   6  0.839  0.250  0.093-  14 3.43   9 3.43  22 3.44  22 3.44  15 3.48  12 3.48  21 3.51  13 3.52
                            10 3.52  18 3.70  19 3.75   2 4.37   2 4.37   4 4.37
   7  0.339  0.250  0.407-  15 3.43  12 3.43  23 3.44  23 3.44  14 3.48   9 3.48  24 3.51  16 3.52
                            11 3.52  19 3.70  18 3.75   3 4.37   3 4.37   1 4.37
   8  0.661  0.750  0.593-  11 3.43  16 3.43  24 3.44  24 3.44  10 3.48  13 3.48  23 3.51  12 3.52
                            15 3.52  20 3.70  17 3.75   4 4.37   4 4.37   2 4.37
   9  0.193  0.071  0.146-  14 2.41  21 2.41  19 2.43   2 3.40   3 3.42   6 3.43   7 3.48   5 3.52

  10  0.807  0.929  0.854-  13 2.41  22 2.41  20 2.43   1 3.40   4 3.42   5 3.43   8 3.48   6 3.52

  11  0.307  0.929  0.646-  16 2.41  23 2.41  17 2.43   4 3.40   1 3.42   8 3.43   5 3.48   7 3.52

  12  0.693  0.071  0.354-  15 2.41  24 2.41  18 2.43   3 3.40   2 3.42   7 3.43   6 3.48   8 3.52

  13  0.807  0.571  0.854-  10 2.41  22 2.41  20 2.43   1 3.40   4 3.42   5 3.43   8 3.48   6 3.52

  14  0.193  0.429  0.146-   9 2.41  21 2.41  19 2.43   2 3.40   3 3.42   6 3.43   7 3.48   5 3.52

  15  0.693  0.429  0.354-  12 2.41  24 2.41  18 2.43   3 3.40   2 3.42   7 3.43   6 3.48   8 3.52

  16  0.307  0.571  0.646-  11 2.41  23 2.41  17 2.43   4 3.40   1 3.42   8 3.43   5 3.48   7 3.52

  17  0.081  0.750  0.591-  11 2.43  16 2.43  23 2.45   2 3.37   1 3.61   1 3.61   5 3.70   8 3.75

  18  0.919  0.250  0.409-  15 2.43  12 2.43  24 2.45   1 3.37   2 3.61   2 3.61   6 3.70   7 3.75

  19  0.419  0.250  0.091-  14 2.43   9 2.43  21 2.45   4 3.37   3 3.61   3 3.61   7 3.70   6 3.75

  20  0.581  0.750  0.909-  10 2.43  13 2.43  22 2.45   3 3.37   4 3.61   4 3.61   8 3.70   5 3.75

  21  0.196  0.250  0.965-  14 2.41   9 2.41  19 2.45   4 3.37   5 3.44   5 3.44   6 3.51   1 3.53

  22  0.804  0.750  0.035-  10 2.41  13 2.41  20 2.45   3 3.37   6 3.44   6 3.44   5 3.51   2 3.53

  23  0.304  0.750  0.465-  11 2.41  16 2.41  17 2.45   2 3.37   7 3.44   7 3.44   8 3.51   3 3.53

  24  0.696  0.250  0.535-  15 2.41  12 2.41  18 2.45   1 3.37   8 3.44   8 3.44   7 3.51   4 3.53

 
  LATTYP: Found a simple orthorhombic cell.
 ALAT       =     6.7268619782
 B/A-ratio  =     1.3242817429
 C/A-ratio  =     1.7103982072
  
  Lattice vectors:
  
 A1 = (   0.0000000000,  -6.7268619782,   0.0000000000)
 A2 = (  -8.9082605047,   0.0000000000,   0.0000000000)
 A3 = (   0.0000000000,   0.0000000000, -11.5056126680)


Analysis of symmetry for initial positions (statically):
=====================================================================
 Subroutine PRICEL returns:
 Original cell was already a primitive cell.
 

 Routine SETGRP: Setting up the symmetry group for a 
 simple orthorhombic supercell.


 Subroutine GETGRP returns: Found  8 space group operations
 (whereof  2 operations were pure point group operations)
 out of a pool of  8 trial point group operations.


The static configuration has the point symmetry S_2 .
 The point group associated with its full space group is D_2h.


Analysis of symmetry for dynamics (positions and initial velocities):
=====================================================================
 Subroutine PRICEL returns:
 Original cell was already a primitive cell.
 

 Routine SETGRP: Setting up the symmetry group for a 
 simple orthorhombic supercell.


 Subroutine GETGRP returns: Found  8 space group operations
 (whereof  2 operations were pure point group operations)
 out of a pool of  8 trial point group operations.


The dynamic configuration has the point symmetry S_2 .
 The point group associated with its full space group is D_2h.


 Subroutine INISYM returns: Found  8 space group operations
 (whereof  2 operations are pure point group operations),
 and found     1 'primitive' translations

 
 
 KPOINTS: k-density: 8.0                          

Automatic generation of k-mesh.
Space group operators:
 irot       det(A)        alpha          n_x          n_y          n_z        tau_x        tau_y        tau_z
    1     1.000000     0.000000     1.000000     0.000000     0.000000     0.000000     0.000000     0.000000
    2    -1.000000     0.000000     1.000000     0.000000     0.000000     0.000000     0.000000     0.000000
    3     1.000000   180.000000     0.000000     0.000000     1.000000    -0.500000     0.000000    -0.500000
    4    -1.000000   180.000000     0.000000     0.000000     1.000000    -0.500000     0.000000    -0.500000
    5     1.000000   180.000000     1.000000     0.000000     0.000000    -0.500000    -0.500000    -0.500000
    6    -1.000000   180.000000     1.000000     0.000000     0.000000    -0.500000    -0.500000    -0.500000
    7     1.000000   180.000000     0.000000     1.000000     0.000000    -0.000000    -0.500000    -0.000000
    8    -1.000000   180.000000     0.000000     1.000000     0.000000     0.000000    -0.500000     0.000000
 
 Subroutine IBZKPT returns following result:
 ===========================================
 
 Found     15 irreducible k-points:
 
 Following reciprocal coordinates:
            Coordinates               Weight
  0.000000  0.000000  0.000000      1.000000
  0.000000  0.125000  0.000000      2.000000
  0.000000  0.250000  0.000000      2.000000
  0.000000  0.375000  0.000000      2.000000
  0.000000  0.500000  0.000000      1.000000
  0.000000  0.000000  0.200000      2.000000
  0.000000  0.125000  0.200000      4.000000
  0.000000  0.250000  0.200000      4.000000
  0.000000  0.375000  0.200000      4.000000
  0.000000  0.500000  0.200000      2.000000
  0.000000  0.000000  0.400000      2.000000
  0.000000  0.125000  0.400000      4.000000
  0.000000  0.250000  0.400000      4.000000
  0.000000  0.375000  0.400000      4.000000
  0.000000  0.500000  0.400000      2.000000
 
 Following cartesian coordinates:
            Coordinates               Weight
  0.000000  0.000000  0.000000      1.000000
  0.000000  0.018582  0.000000      2.000000
  0.000000  0.037164  0.000000      2.000000
  0.000000  0.055747  0.000000      2.000000
  0.000000  0.074329  0.000000      1.000000
  0.000000  0.000000  0.017383      2.000000
  0.000000  0.018582  0.017383      4.000000
  0.000000  0.037164  0.017383      4.000000
  0.000000  0.055747  0.017383      4.000000
  0.000000  0.074329  0.017383      2.000000
  0.000000  0.000000  0.034766      2.000000
  0.000000  0.018582  0.034766      4.000000
  0.000000  0.037164  0.034766      4.000000
  0.000000  0.055747  0.034766      4.000000
  0.000000  0.074329  0.034766      2.000000
 
 TETIRR: Found    108 inequivalent tetrahedra from      240


--------------------------------------------------------------------------------------------------------




 Dimension of arrays:
   k-points           NKPTS =     15   k-points in BZ     NKDIM =     15   number of bands    NBANDS=     88
   number of dos      NEDOS =   2801   number of ions     NIONS =     24
   non local maximal  LDIM  =      6   non local SUM 2l+1 LMDIM =     18
   total plane-waves  NPLWV = 128000
   max r-space proj   IRMAX =   3026   max aug-charges    IRDMAX=  11819
   dimension x,y,z NGX =    50 NGY =   40 NGZ =   64
   dimension x,y,z NGXF=   100 NGYF=   80 NGZF=  128
   support grid    NGXF=   100 NGYF=   80 NGZF=  128
   ions per type =               8  16
   NGX,Y,Z   is equivalent  to a cutoff of   9.33,  9.89,  9.25 a.u.
   NGXF,Y,Z  is equivalent  to a cutoff of  18.66, 19.77, 18.49 a.u.

 SYSTEM =  unknown system                          
 POSCAR =  ba8 si16                                

 Startparameter for this run:
   NWRITE =      2    write-flag & timer
   PREC   = normal    normal or accurate (medium, high low for compatibility)
   ISTART =      0    job   : 0-new  1-cont  2-samecut
   ICHARG =     11    charge: 1-file 2-atom 10-const
   ISPIN  =      1    spin polarized calculation?
   LNONCOLLINEAR =      F non collinear calculations
   LSORBIT =      F    spin-orbit coupling
   INIWAV =      1    electr: 0-lowe 1-rand  2-diag
   LASPH  =      T    aspherical Exc in radial PAW
   METAGGA=      F    non-selfconsistent MetaGGA calc.

 Electronic Relaxation 1
   ENCUT  =  500.0 eV  36.75 Ry    6.06 a.u.  16.24 12.26 20.98*2*pi/ulx,y,z
   ENINI  =  500.0     initial cutoff
   ENAUG  =  351.2 eV  augmentation charge cutoff
   NELM   =    100;   NELMIN=  2; NELMDL= -5     # of ELM steps 
   EDIFF  = 0.1E-05   stopping-criterion for ELM
   LREAL  =      T    real-space projection
   NLSPLINE    = F    spline interpolate recip. space projectors
   LCOMPAT=      F    compatible to vasp.4.4
   GGA_COMPAT  = T    GGA compatible to vasp.4.4-vasp.4.6
   LMAXPAW     = -100 max onsite density
   LMAXMIX     =    2 max onsite mixed and CHGCAR
   VOSKOWN=      0    Vosko Wilk Nusair interpolation
   ROPT   =   -0.00050  -0.00050
 Ionic relaxation
   EDIFFG = -.1E-01   stopping-criterion for IOM
   NSW    =      0    number of steps for IOM
   NBLOCK =      1;   KBLOCK =      1    inner block; outer block 
   IBRION =     -1    ionic relax: 0-MD 1-quasi-New 2-CG
   NFREE  =      0    steps in history (QN), initial steepest desc. (CG)
   ISIF   =      2    stress and relaxation
   IWAVPR =     10    prediction:  0-non 1-charg 2-wave 3-comb
   ISYM   =      2    0-nonsym 1-usesym 2-fastsym
   LCORR  =      T    Harris-Foulkes like correction to forces

   POTIM  = 0.3000    time-step for ionic-motion
   TEIN   =    0.0    initial temperature
   TEBEG  =    0.0;   TEEND  =   0.0 temperature during run
   SMASS  =  -3.00    Nose mass-parameter (am)
   estimated Nose-frequenzy (Omega)   =  0.10E-29 period in steps =****** mass=  -0.181E-26a.u.
   SCALEE = 1.0000    scale energy and forces
   NPACO  =    256;   APACO  = 16.0  distance and # of slots for P.C.
   PSTRESS=    0.0 pullay stress

  Mass of Ions in am
   POMASS = 137.33 28.09
  Ionic Valenz
   ZVAL   =  10.00  4.00
  Atomic Wigner-Seitz radii
   RWIGS  =  -1.00 -1.00
  virtual crystal weights 
   VCA    =   1.00  1.00
   NELECT =     144.0000    total number of electrons
   NUPDOWN=      -1.0000    fix difference up-down

 DOS related values:
   EMIN   = -10.00;   EMAX   = 18.00  energy-range for DOS
   EFERMI =   0.00
   ISMEAR =    -5;   SIGMA  =   0.01  broadening in eV -4-tet -1-fermi 0-gaus

 Electronic relaxation 2 (details)
   IALGO  =     38    algorithm
   LDIAG  =      T    sub-space diagonalisation (order eigenvalues)
   LSUBROT=      F    optimize rotation matrix (better conditioning)
   TURBO    =      0    0=normal 1=particle mesh
   IRESTART =      0    0=no restart 2=restart with 2 vectors
   NREBOOT  =      0    no. of reboots
   NMIN     =      0    reboot dimension
   EREF     =   0.00    reference energy to select bands
   IMIX   =      4    mixing-type and parameters
     AMIX     =   0.40;   BMIX     =  1.00
     AMIX_MAG =   1.60;   BMIX_MAG =  1.00
     AMIN     =   0.10
     WC   =   100.;   INIMIX=   1;  MIXPRE=   1;  MAXMIX= -45

 Intra band minimization:
   WEIMIN = 0.0000     energy-eigenvalue tresh-hold
   EBREAK =  0.28E-08  absolut break condition
   DEPER  =   0.30     relativ break condition  

   TIME   =   0.40     timestep for ELM

  volume/ion in A,a.u.               =      28.73       193.87
  Fermi-wavevector in a.u.,A,eV,Ry     =   0.971309  1.835507 12.836288  0.943441
  Thomas-Fermi vector in A             =   2.101515
 
 Write flags
   LWAVE        =      T    write WAVECAR
   LDOWNSAMPLE  =      F    k-point downsampling of WAVECAR
   LCHARG       =      T    write CHGCAR
   LVTOT        =      F    write LOCPOT, total local potential
   LVHAR        =      F    write LOCPOT, Hartree potential only
   LELF         =      F    write electronic localiz. function (ELF)
   LORBIT       =     11    0 simple, 1 ext, 2 COOP (PROOUT), +10 PAW based schemes


 Dipole corrections
   LMONO  =      F    monopole corrections only (constant potential shift)
   LDIPOL =      F    correct potential (dipole corrections)
   IDIPOL =      0    1-x, 2-y, 3-z, 4-all directions 
   EPSILON=  1.0000000 bulk dielectric constant

 Exchange correlation treatment:
   GGA     =    MK    GGA type
   LEXCH   =    43    internal setting for exchange type
   VOSKOWN=      0    Vosko Wilk Nusair interpolation
   LHFCALC =     F    Hartree Fock is set to
   LHFONE  =     F    Hartree Fock one center treatment
   AEXX    =    0.0000 exact exchange contribution

 vdW DFT:
   LUSE_VDW   =     T    switch on vdW DFT
   Zab_VDW    =******    correlation parameter
   PARAM1     =0.1234
   PARAM2     =0.7114
   PARAM3     =0.0000
   -- rVV10 --
   BPARAM     = 6.3000
   CPARAM     = 0.0093

 Linear response parameters
   LEPSILON=     F    determine dielectric tensor
   LRPA    =     F    only Hartree local field effects (RPA)
   LNABLA  =     F    use nabla operator in PAW spheres
   LVEL    =     F    velocity operator in full k-point grid
   LINTERFAST=   F  fast interpolation
   KINTER  =     0    interpolate to denser k-point grid
   CSHIFT  =0.1000    complex shift for real part using Kramers Kronig
   OMEGAMAX=  -1.0    maximum frequency
   DEG_THRESHOLD= 0.2000000E-02 threshold for treating states as degnerate
   RTIME   =   -0.100 relaxation time in fs
  (WPLASMAI=    0.000 imaginary part of plasma frequency in eV, 0.658/RTIME)
   DFIELD  = 0.0000000 0.0000000 0.0000000 field for delta impulse in time
 
 Orbital magnetization related:
   ORBITALMAG=     F  switch on orbital magnetization
   LCHIMAG   =     F  perturbation theory with respect to B field
   DQ        =  0.001000  dq finite difference perturbation B field
   LLRAUG    =     F  two centre corrections for induced B field



--------------------------------------------------------------------------------------------------------


 Static calculation
 charge density and potential remain constant during run
 non-spin polarized calculation
 Variant of blocked Davidson
 Davidson routine will perform the subspace rotation
 perform sub-space diagonalisation
    after iterative eigenvector-optimisation
 no mixing
 using additional bands           16
 real space projection scheme for non local part
 use partial core corrections
 calculate Harris-corrections to forces 
   (improved forces if not selfconsistent)
 use gradient corrections 
 WARNING: stress and forces are not correct
  (second derivative of E(xc) not defined)
 use of overlap-Matrix (Vanderbilt PP)
 Fermi weights with tetrahedron method with Bloechl corrections


--------------------------------------------------------------------------------------------------------


  energy-cutoff  :      500.00
  volume of cell :      689.47
      direct lattice vectors                 reciprocal lattice vectors
     8.908260505  0.000000000  0.000000000     0.112255361  0.000000000  0.000000000
     0.000000000  6.726861978  0.000000000     0.000000000  0.148657725  0.000000000
     0.000000000  0.000000000 11.505612668     0.000000000  0.000000000  0.086914103

  length of vectors
     8.908260505  6.726861978 11.505612668     0.112255361  0.148657725  0.086914103


 
 k-points in units of 2pi/SCALE and weight: k-density: 8.0                          
   0.00000000  0.00000000  0.00000000       0.025
   0.00000000  0.01858222  0.00000000       0.050
   0.00000000  0.03716443  0.00000000       0.050
   0.00000000  0.05574665  0.00000000       0.050
   0.00000000  0.07432886  0.00000000       0.025
   0.00000000  0.00000000  0.01738282       0.050
   0.00000000  0.01858222  0.01738282       0.100
   0.00000000  0.03716443  0.01738282       0.100
   0.00000000  0.05574665  0.01738282       0.100
   0.00000000  0.07432886  0.01738282       0.050
   0.00000000  0.00000000  0.03476564       0.050
   0.00000000  0.01858222  0.03476564       0.100
   0.00000000  0.03716443  0.03476564       0.100
   0.00000000  0.05574665  0.03476564       0.100
   0.00000000  0.07432886  0.03476564       0.050
 
 k-points in reciprocal lattice and weights: k-density: 8.0                          
   0.00000000  0.00000000  0.00000000       0.025
   0.00000000  0.12500000  0.00000000       0.050
   0.00000000  0.25000000  0.00000000       0.050
   0.00000000  0.37500000  0.00000000       0.050
   0.00000000  0.50000000  0.00000000       0.025
   0.00000000  0.00000000  0.20000000       0.050
   0.00000000  0.12500000  0.20000000       0.100
   0.00000000  0.25000000  0.20000000       0.100
   0.00000000  0.37500000  0.20000000       0.100
   0.00000000  0.50000000  0.20000000       0.050
   0.00000000  0.00000000  0.40000000       0.050
   0.00000000  0.12500000  0.40000000       0.100
   0.00000000  0.25000000  0.40000000       0.100
   0.00000000  0.37500000  0.40000000       0.100
   0.00000000  0.50000000  0.40000000       0.050
 
 position of ions in fractional coordinates (direct lattice) 
   0.01536406  0.25000000  0.69213186
   0.98463594  0.75000002  0.30786814
   0.48463594  0.75000002  0.19213180
   0.51536406  0.25000000  0.80786818
   0.16070224  0.75000002  0.90650282
   0.83929776  0.25000000  0.09349716
   0.33929776  0.25000000  0.40650290
   0.66070224  0.75000002  0.59349714
   0.19345800  0.07100390  0.14637424
   0.80654200  0.92899609  0.85362574
   0.30654200  0.92899609  0.64637426
   0.69345800  0.07100390  0.35362574
   0.80654200  0.57100391  0.85362574
   0.19345800  0.42899609  0.14637424
   0.69345800  0.42899609  0.35362574
   0.30654200  0.57100391  0.64637426
   0.08126801  0.75000002  0.59096745
   0.91873197  0.25000000  0.40903255
   0.41873200  0.25000000  0.09096738
   0.58126803  0.75000002  0.90903260
   0.19639773  0.25000000  0.96492478
   0.80360225  0.75000002  0.03507524
   0.30360225  0.75000002  0.46492469
   0.69639775  0.25000000  0.53507522
 
 position of ions in cartesian coordinates  (Angst):
   0.13686706  1.68171550  7.96340108
   8.77139347  5.04514660  3.54221158
   4.31726322  5.04514660  2.21059404
   4.59099728  1.68171550  9.29501839
   1.43157740  5.04514660 10.42987033
   7.47668311  1.68171550  1.07574210
   3.02255286  1.68171550  4.67706494
   5.88570765  5.04514660  6.82854820
   1.72337424  0.47763344  1.68412533
   7.18488627  6.24922848  9.82148710
   2.73075602  6.24922848  7.43693190
   6.17750449  0.47763344  4.06868076
   7.18488627  3.84106449  9.82148710
   1.72337424  2.88579749  1.68412533
   6.17750449  2.88579749  4.06868076
   2.73075602  3.84106449  7.43693190
   0.72395658  5.04514660  6.79944253
   8.18430375  1.68171550  4.70617014
   3.73017373  1.68171550  1.04663549
   5.17808701  5.04514660 10.45897694
   1.74956216  1.68171550 11.10205074
   7.15869822  5.04514660  0.40356211
   2.70456797  5.04514660  5.34924346
   6.20369253  1.68171550  6.15636826
 


--------------------------------------------------------------------------------------------------------


 k-point  1 :   0.0000 0.0000 0.0000  plane waves:   17581
 k-point  2 :   0.0000 0.1250 0.0000  plane waves:   17509
 k-point  3 :   0.0000 0.2500 0.0000  plane waves:   17487
 k-point  4 :   0.0000 0.3750 0.0000  plane waves:   17476
 k-point  5 :   0.0000 0.5000 0.0000  plane waves:   17492
 k-point  6 :   0.0000 0.0000 0.2000  plane waves:   17520
 k-point  7 :   0.0000 0.1250 0.2000  plane waves:   17523
 k-point  8 :   0.0000 0.2500 0.2000  plane waves:   17507
 k-point  9 :   0.0000 0.3750 0.2000  plane waves:   17509
 k-point 10 :   0.0000 0.5000 0.2000  plane waves:   17518
 k-point 11 :   0.0000 0.0000 0.4000  plane waves:   17508
 k-point 12 :   0.0000 0.1250 0.4000  plane waves:   17519
 k-point 13 :   0.0000 0.2500 0.4000  plane waves:   17477
 k-point 14 :   0.0000 0.3750 0.4000  plane waves:   17501
 k-point 15 :   0.0000 0.5000 0.4000  plane waves:   17510

 maximum and minimum number of plane-waves per node :      4419     4351

 maximum number of plane-waves:     17581
 maximum index in each direction: 
   IXMAX=   16   IYMAX=   12   IZMAX=   20
   IXMIN=  -16   IYMIN=  -12   IZMIN=  -21


 real space projection operators:
  total allocation   :       4446.19 KBytes
  max/ min on nodes  :       1156.73       1066.36


 parallel 3D FFT for wavefunctions:
    minimum data exchange during FFTs selected (reduces bandwidth)
 parallel 3D FFT for charge:
    minimum data exchange during FFTs selected (reduces bandwidth)


 total amount of memory used by VASP MPI-rank0    50509. kBytes
=======================================================================

   base      :      30000. kBytes
   nonlr-proj:       2650. kBytes
   fftplans  :       2345. kBytes
   grid      :       3658. kBytes
   one-center:         93. kBytes
   wavefun   :      11763. kBytes
 
     INWAV:  cpu time    0.0000: real time    0.0000
 initial charge density was supplied:
 number of electron     144.0000001 magnetization 
 keeping initial charge density in first step


--------------------------------------------------------------------------------------------------------


 Maximum index for non-local projection operator          860
 Maximum index for augmentation-charges         1209 (set IRDMAX)


--------------------------------------------------------------------------------------------------------


 First call to EWALD:  gamma=   0.201
 Maximum number of real-space cells 3x 3x 2
 Maximum number of reciprocal cells 3x 2x 3

    FEWALD:  cpu time    0.0401: real time    0.0402


--------------------------------------- Iteration      1(   1)  ---------------------------------------


vdW kernel read from vdw_kernel.bindat
  0.0000  0.2424  0.5071  0.7962  1.1119  1.4567  1.8333  2.2446  2.6937  3.1842
  3.7199  4.3049  4.9438  5.6415  6.4036  7.2358  8.1446  9.1372 10.2212 11.4050
 12.6979 14.1099 15.6519 17.3360 19.1751 21.1837 23.3773 25.7729 28.3892 31.2465
 34.3669 37.7748 41.4965 45.5611 50.0000
 
    POTLOK:  cpu time    1.2231: real time    1.3183
    SETDIJ:  cpu time    0.1383: real time    0.1388
     EDDAV:  cpu time    1.0794: real time    1.0966
 BZINTS: Fermi energy: 11.743698;144.000000 electrons
         Band energy: 122.548042;  BLOECHL correction: -0.071619
       DOS:  cpu time    0.0136: real time    0.0137
    --------------------------------------------
      LOOP:  cpu time    2.4545: real time    2.5675

 eigenvalue-minimisations  :  2640
 total energy-change (2. order) : 0.8596632E+03  (-0.5728975E+04)
 number of electron     144.0000001 magnetization 
 augmentation part      144.0000001 magnetization 

 Free energy of the ion-electron system (eV)
  ---------------------------------------------------
  alpha Z        PSCENC =       466.78151634
  Ewald energy   TEWEN  =     -6442.96156159
  -Hartree energ DENC   =      -899.32484706
  -exchange      EXHF   =         0.00000000
  -V(xc)+E(xc)   XCENC  =        49.11024097
  PAW double counting   =      3865.12538590    -3570.76707164
  entropy T*S    EENTRO =         0.00000000
  eigenvalues    EBANDS =       122.54804216
  atomic energy  EATOM  =      7269.15145414
  Solvation  Ediel_sol  =         0.00000000
  ---------------------------------------------------
  free energy    TOTEN  =       859.66315923 eV

  energy without entropy =      859.66315923  energy(sigma->0) =      859.66315923


--------------------------------------------------------------------------------------------------------




--------------------------------------- Iteration      1(   2)  ---------------------------------------


     EDDAV:  cpu time    1.2891: real time    1.2939
 BZINTS: Fermi energy:  4.894757;144.000000 electrons
         Band energy:-752.912850;  BLOECHL correction: -0.013352
       DOS:  cpu time    0.0118: real time    0.0119
    --------------------------------------------
      LOOP:  cpu time    1.3009: real time    1.3057

 eigenvalue-minimisations  :  3576
 total energy-change (2. order) :-0.8754609E+03  (-0.8499644E+03)
 number of electron     144.0000001 magnetization 
 augmentation part      144.0000001 magnetization 

 Free energy of the ion-electron system (eV)
  ---------------------------------------------------
  alpha Z        PSCENC =       466.78151634
  Ewald energy   TEWEN  =     -6442.96156159
  -Hartree energ DENC   =      -899.32484706
  -exchange      EXHF   =         0.00000000
  -V(xc)+E(xc)   XCENC  =        49.11024097
  PAW double counting   =      3865.12538590    -3570.76707164
  entropy T*S    EENTRO =         0.00000000
  eigenvalues    EBANDS =      -752.91284972
  atomic energy  EATOM  =      7269.15145414
  Solvation  Ediel_sol  =         0.00000000
  ---------------------------------------------------
  free energy    TOTEN  =       -15.79773265 eV

  energy without entropy =      -15.79773265  energy(sigma->0) =      -15.79773265


--------------------------------------------------------------------------------------------------------




--------------------------------------- Iteration      1(   3)  ---------------------------------------


     EDDAV:  cpu time    1.1802: real time    1.1852
 BZINTS: Fermi energy:  3.641250;144.000000 electrons
         Band energy:-833.186724;  BLOECHL correction:  0.000000
       DOS:  cpu time    0.0052: real time    0.0052
    --------------------------------------------
      LOOP:  cpu time    1.1854: real time    1.1904

 eigenvalue-minimisations  :  3232
 total energy-change (2. order) :-0.8027387E+02  (-0.7898641E+02)
 number of electron     144.0000001 magnetization 
 augmentation part      144.0000001 magnetization 

 Free energy of the ion-electron system (eV)
  ---------------------------------------------------
  alpha Z        PSCENC =       466.78151634
  Ewald energy   TEWEN  =     -6442.96156159
  -Hartree energ DENC   =      -899.32484706
  -exchange      EXHF   =         0.00000000
  -V(xc)+E(xc)   XCENC  =        49.11024097
  PAW double counting   =      3865.12538590    -3570.76707164
  entropy T*S    EENTRO =         0.00000000
  eigenvalues    EBANDS =      -833.18672397
  atomic energy  EATOM  =      7269.15145414
  Solvation  Ediel_sol  =         0.00000000
  ---------------------------------------------------
  free energy    TOTEN  =       -96.07160690 eV

  energy without entropy =      -96.07160690  energy(sigma->0) =      -96.07160690


--------------------------------------------------------------------------------------------------------




--------------------------------------- Iteration      1(   4)  ---------------------------------------


     EDDAV:  cpu time    1.3571: real time    1.3618
 BZINTS: Fermi energy:  3.562500;144.000000 electrons
         Band energy:-835.831689;  BLOECHL correction:  0.000000
       DOS:  cpu time    0.0048: real time    0.0048
    --------------------------------------------
      LOOP:  cpu time    1.3619: real time    1.3666

 eigenvalue-minimisations  :  3928
 total energy-change (2. order) :-0.2644965E+01  (-0.2636733E+01)
 number of electron     144.0000001 magnetization 
 augmentation part      144.0000001 magnetization 

 Free energy of the ion-electron system (eV)
  ---------------------------------------------------
  alpha Z        PSCENC =       466.78151634
  Ewald energy   TEWEN  =     -6442.96156159
  -Hartree energ DENC   =      -899.32484706
  -exchange      EXHF   =         0.00000000
  -V(xc)+E(xc)   XCENC  =        49.11024097
  PAW double counting   =      3865.12538590    -3570.76707164
  entropy T*S    EENTRO =         0.00000000
  eigenvalues    EBANDS =      -835.83168899
  atomic energy  EATOM  =      7269.15145414
  Solvation  Ediel_sol  =         0.00000000
  ---------------------------------------------------
  free energy    TOTEN  =       -98.71657192 eV

  energy without entropy =      -98.71657192  energy(sigma->0) =      -98.71657192


--------------------------------------------------------------------------------------------------------




--------------------------------------- Iteration      1(   5)  ---------------------------------------


     EDDAV:  cpu time    1.1789: real time    1.1831
 BZINTS: Fermi energy:  3.562500;144.000000 electrons
         Band energy:-835.898252;  BLOECHL correction:  0.000000
       DOS:  cpu time    0.0051: real time    0.0051
    --------------------------------------------
      LOOP:  cpu time    1.1840: real time    1.1882

 eigenvalue-minimisations  :  3368
 total energy-change (2. order) :-0.6656270E-01  (-0.6652091E-01)
 number of electron     144.0000001 magnetization 
 augmentation part      144.0000001 magnetization 

 Free energy of the ion-electron system (eV)
  ---------------------------------------------------
  alpha Z        PSCENC =       466.78151634
  Ewald energy   TEWEN  =     -6442.96156159
  -Hartree energ DENC   =      -899.32484706
  -exchange      EXHF   =         0.00000000
  -V(xc)+E(xc)   XCENC  =        49.11024097
  PAW double counting   =      3865.12538590    -3570.76707164
  entropy T*S    EENTRO =         0.00000000
  eigenvalues    EBANDS =      -835.89825169
  atomic energy  EATOM  =      7269.15145414
  Solvation  Ediel_sol  =         0.00000000
  ---------------------------------------------------
  free energy    TOTEN  =       -98.78313462 eV

  energy without entropy =      -98.78313462  energy(sigma->0) =      -98.78313462


--------------------------------------------------------------------------------------------------------




--------------------------------------- Iteration      1(   6)  ---------------------------------------


     EDDAV:  cpu time    1.3094: real time    1.3146
 BZINTS: Fermi energy:  3.562500;144.000000 electrons
         Band energy:-835.899703;  BLOECHL correction:  0.000000
       DOS:  cpu time    0.0049: real time    0.0049
    --------------------------------------------
      LOOP:  cpu time    1.3142: real time    1.3195

 eigenvalue-minimisations  :  3944
 total energy-change (2. order) :-0.1451625E-02  (-0.1451302E-02)
 number of electron     144.0000001 magnetization 
 augmentation part      144.0000001 magnetization 

 Free energy of the ion-electron system (eV)
  ---------------------------------------------------
  alpha Z        PSCENC =       466.78151634
  Ewald energy   TEWEN  =     -6442.96156159
  -Hartree energ DENC   =      -899.32484706
  -exchange      EXHF   =         0.00000000
  -V(xc)+E(xc)   XCENC  =        49.11024097
  PAW double counting   =      3865.12538590    -3570.76707164
  entropy T*S    EENTRO =         0.00000000
  eigenvalues    EBANDS =      -835.89970331
  atomic energy  EATOM  =      7269.15145414
  Solvation  Ediel_sol  =         0.00000000
  ---------------------------------------------------
  free energy    TOTEN  =       -98.78458624 eV

  energy without entropy =      -98.78458624  energy(sigma->0) =      -98.78458624


--------------------------------------------------------------------------------------------------------




--------------------------------------- Iteration      1(   7)  ---------------------------------------


     EDDAV:  cpu time    1.2524: real time    1.2574
 BZINTS: Fermi energy:  3.562500;144.000000 electrons
         Band energy:-835.899745;  BLOECHL correction:  0.000000
       DOS:  cpu time    0.0049: real time    0.0049
    --------------------------------------------
      LOOP:  cpu time    1.2573: real time    1.2623

 eigenvalue-minimisations  :  3432
 total energy-change (2. order) :-0.4193754E-04  (-0.4193265E-04)
 number of electron     144.0000001 magnetization 
 augmentation part      144.0000001 magnetization 

 Free energy of the ion-electron system (eV)
  ---------------------------------------------------
  alpha Z        PSCENC =       466.78151634
  Ewald energy   TEWEN  =     -6442.96156159
  -Hartree energ DENC   =      -899.32484706
  -exchange      EXHF   =         0.00000000
  -V(xc)+E(xc)   XCENC  =        49.11024097
  PAW double counting   =      3865.12538590    -3570.76707164
  entropy T*S    EENTRO =         0.00000000
  eigenvalues    EBANDS =      -835.89974525
  atomic energy  EATOM  =      7269.15145414
  Solvation  Ediel_sol  =         0.00000000
  ---------------------------------------------------
  free energy    TOTEN  =       -98.78462818 eV

  energy without entropy =      -98.78462818  energy(sigma->0) =      -98.78462818


--------------------------------------------------------------------------------------------------------




--------------------------------------- Iteration      1(   8)  ---------------------------------------


     EDDAV:  cpu time    1.1088: real time    1.1134
 BZINTS: Fermi energy:  3.562500;144.000000 electrons
         Band energy:-835.899746;  BLOECHL correction:  0.000000
       DOS:  cpu time    0.0048: real time    0.0048
    --------------------------------------------
      LOOP:  cpu time    1.1136: real time    1.1182

 eigenvalue-minimisations  :  2832
 total energy-change (2. order) :-0.7127674E-06  (-0.7127795E-06)
 number of electron     144.0000001 magnetization 
 augmentation part      144.0000001 magnetization 

 Free energy of the ion-electron system (eV)
  ---------------------------------------------------
  alpha Z        PSCENC =       466.78151634
  Ewald energy   TEWEN  =     -6442.96156159
  -Hartree energ DENC   =      -899.32484706
  -exchange      EXHF   =         0.00000000
  -V(xc)+E(xc)   XCENC  =        49.11024097
  PAW double counting   =      3865.12538590    -3570.76707164
  entropy T*S    EENTRO =         0.00000000
  eigenvalues    EBANDS =      -835.89974596
  atomic energy  EATOM  =      7269.15145414
  Solvation  Ediel_sol  =         0.00000000
  ---------------------------------------------------
  free energy    TOTEN  =       -98.78462889 eV

  energy without entropy =      -98.78462889  energy(sigma->0) =      -98.78462889


--------------------------------------------------------------------------------------------------------




 average (electrostatic) potential at core
  the test charge radii are     1.2192  0.9892
  (the norm of the test charge is              1.0000)
       1 -35.9697       2 -35.9697       3 -35.9697       4 -35.9697       5 -36.0793
       6 -36.0793       7 -36.0793       8 -36.0793       9 -85.1089      10 -85.1089
      11 -85.1089      12 -85.1089      13 -85.1089      14 -85.1089      15 -85.1089
      16 -85.1089      17 -85.1782      18 -85.1782      19 -85.1782      20 -85.1782
      21 -85.0671      22 -85.0671      23 -85.0671      24 -85.0671
 
 
 
 E-fermi :   3.5625     XC(G=0):  -8.9674     alpha+bet :-10.5295


 k-point     1 :       0.0000    0.0000    0.0000
  band No.  band energies     occupation 
      1     -23.9643      2.00000
      2     -23.9587      2.00000
      3     -23.9551      2.00000
      4     -23.9549      2.00000
      5     -23.8790      2.00000
      6     -23.8759      2.00000
      7     -23.8709      2.00000
      8     -23.8688      2.00000
      9      -9.5413      2.00000
     10      -9.5198      2.00000
     11      -9.4772      2.00000
     12      -9.4702      2.00000
     13      -9.4258      2.00000
     14      -9.3824      2.00000
     15      -9.3788      2.00000
     16      -9.3610      2.00000
     17      -9.3566      2.00000
     18      -9.3289      2.00000
     19      -9.3211      2.00000
     20      -9.3174      2.00000
     21      -9.2729      2.00000
     22      -9.2377      2.00000
     23      -9.2031      2.00000
     24      -9.2021      2.00000
     25      -9.1975      2.00000
     26      -9.1726      2.00000
     27      -9.1598      2.00000
     28      -9.1590      2.00000
     29      -9.1427      2.00000
     30      -9.1413      2.00000
     31      -9.1291      2.00000
     32      -9.1180      2.00000
     33      -7.2112      2.00000
     34      -6.9486      2.00000
     35      -6.9081      2.00000
     36      -6.8846      2.00000
     37      -2.5857      2.00000
     38      -2.5214      2.00000
     39      -2.2573      2.00000
     40      -2.2387      2.00000
     41      -2.1496      2.00000
     42      -2.1307      2.00000
     43      -2.1299      2.00000
     44      -2.0877      2.00000
     45      -2.0291      2.00000
     46      -1.9786      2.00000
     47      -1.9292      2.00000
     48      -1.7579      2.00000
     49       0.0089      2.00000
     50       1.0378      2.00000
     51       1.2279      2.00000
     52       1.2682      2.00000
     53       1.3226      2.00000
     54       1.5398      2.00000
     55       1.7711      2.00000
     56       1.8350      2.00000
     57       1.8420      2.00000
     58       1.8990      2.00000
     59       1.9123      2.00000
     60       2.1401      2.00000
     61       2.1528      2.00000
     62       2.1585      2.00000
     63       2.3048      2.00000
     64       2.4232      2.00000
     65       2.4838      2.00000
     66       2.5540      2.00000
     67       2.5763      2.00000
     68       2.6077      2.00000
     69       2.9493      2.00000
     70       3.1807      2.00000
     71       3.2325      2.00000
     72       3.3562      2.00000
     73       4.5416      0.00000
     74       4.5437      0.00000
     75       4.8823      0.00000
     76       5.0623      0.00000
     77       5.0721      0.00000
     78       5.4311      0.00000
     79       5.6256      0.00000
     80       5.8183      0.00000
     81       5.8555      0.00000
     82       6.0922      0.00000
     83       6.1392      0.00000
     84       6.1455      0.00000
     85       6.1622      0.00000
     86       6.2506      0.00000
     87       6.2802      0.00000
     88       6.6182      0.00000

 k-point     2 :       0.0000    0.1250    0.0000
  band No.  band energies     occupation 
      1     -23.9636      2.00000
      2     -23.9585      2.00000
      3     -23.9551      2.00000
      4     -23.9550      2.00000
      5     -23.8792      2.00000
      6     -23.8763      2.00000
      7     -23.8709      2.00000
      8     -23.8690      2.00000
      9      -9.5342      2.00000
     10      -9.5233      2.00000
     11      -9.5097      2.00000
     12      -9.4317      2.00000
     13      -9.4258      2.00000
     14      -9.4174      2.00000
     15      -9.3986      2.00000
     16      -9.3885      2.00000
     17      -9.3717      2.00000
     18      -9.3255      2.00000
     19      -9.3047      2.00000
     20      -9.2844      2.00000
     21      -9.2556      2.00000
     22      -9.2489      2.00000
     23      -9.2036      2.00000
     24      -9.2036      2.00000
     25      -9.1886      2.00000
     26      -9.1843      2.00000
     27      -9.1541      2.00000
     28      -9.1500      2.00000
     29      -9.1498      2.00000
     30      -9.1424      2.00000
     31      -9.1301      2.00000
     32      -9.1165      2.00000
     33      -7.1781      2.00000
     34      -6.9412      2.00000
     35      -6.9070      2.00000
     36      -6.8858      2.00000
     37      -2.5493      2.00000
     38      -2.4909      2.00000
     39      -2.2458      2.00000
     40      -2.2190      2.00000
     41      -2.2172      2.00000
     42      -2.1188      2.00000
     43      -2.1161      2.00000
     44      -2.0766      2.00000
     45      -2.0360      2.00000
     46      -2.0065      2.00000
     47      -1.9751      2.00000
     48      -1.7610      2.00000
     49       0.1608      2.00000
     50       1.0841      2.00000
     51       1.2528      2.00000
     52       1.3027      2.00000
     53       1.3309      2.00000
     54       1.5241      2.00000
     55       1.5354      2.00000
     56       1.8478      2.00000
     57       1.8565      2.00000
     58       1.9556      2.00000
     59       2.0473      2.00000
     60       2.1017      2.00000
     61       2.1686      2.00000
     62       2.1790      2.00000
     63       2.3092      2.00000
     64       2.4012      2.00000
     65       2.4576      2.00000
     66       2.4692      2.00000
     67       2.5857      2.00000
     68       2.6729      2.00000
     69       2.9305      2.00000
     70       2.9350      2.00000
     71       3.3664      2.00000
     72       3.4273      2.00000
     73       4.4119      0.00000
     74       4.5210      0.00000
     75       4.9388      0.00000
     76       5.1293      0.00000
     77       5.1778      0.00000
     78       5.3855      0.00000
     79       5.5344      0.00000
     80       5.7417      0.00000
     81       5.8110      0.00000
     82       5.8815      0.00000
     83       6.0199      0.00000
     84       6.2053      0.00000
     85       6.2209      0.00000
     86       6.2441      0.00000
     87       6.2671      0.00000
     88       6.4175      0.00000

 k-point     3 :       0.0000    0.2500    0.0000
  band No.  band energies     occupation 
      1     -23.9618      2.00000
      2     -23.9578      2.00000
      3     -23.9552      2.00000
      4     -23.9552      2.00000
      5     -23.8797      2.00000
      6     -23.8774      2.00000
      7     -23.8708      2.00000
      8     -23.8693      2.00000
      9      -9.5320      2.00000
     10      -9.5286      2.00000
     11      -9.5189      2.00000
     12      -9.4555      2.00000
     13      -9.4485      2.00000
     14      -9.4285      2.00000
     15      -9.4245      2.00000
     16      -9.3988      2.00000
     17      -9.3905      2.00000
     18      -9.3056      2.00000
     19      -9.3013      2.00000
     20      -9.2737      2.00000
     21      -9.2679      2.00000
     22      -9.2254      2.00000
     23      -9.2150      2.00000
     24      -9.2055      2.00000
     25      -9.1883      2.00000
     26      -9.1720      2.00000
     27      -9.1606      2.00000
     28      -9.1413      2.00000
     29      -9.1394      2.00000
     30      -9.1362      2.00000
     31      -9.1321      2.00000
     32      -9.1137      2.00000
     33      -7.0968      2.00000
     34      -6.9257      2.00000
     35      -6.9041      2.00000
     36      -6.8891      2.00000
     37      -2.4671      2.00000
     38      -2.4107      2.00000
     39      -2.3066      2.00000
     40      -2.2431      2.00000
     41      -2.2146      2.00000
     42      -2.1546      2.00000
     43      -2.1528      2.00000
     44      -2.0920      2.00000
     45      -2.0515      2.00000
     46      -1.9686      2.00000
     47      -1.9502      2.00000
     48      -1.7910      2.00000
     49       0.5008      2.00000
     50       1.1412      2.00000
     51       1.2849      2.00000
     52       1.3166      2.00000
     53       1.3963      2.00000
     54       1.4024      2.00000
     55       1.5070      2.00000
     56       1.7994      2.00000
     57       1.8620      2.00000
     58       1.9768      2.00000
     59       2.0187      2.00000
     60       2.1607      2.00000
     61       2.1619      2.00000
     62       2.2114      2.00000
     63       2.2234      2.00000
     64       2.3009      2.00000
     65       2.5486      2.00000
     66       2.5520      2.00000
     67       2.6063      2.00000
     68       2.6418      2.00000
     69       2.7064      2.00000
     70       2.9311      2.00000
     71       3.3483      2.00000
     72       3.5578      2.00000
     73       4.3369      0.00000
     74       4.4558      0.00000
     75       5.0162      0.00000
     76       5.0614      0.00000
     77       5.1312      0.00000
     78       5.2980      0.00000
     79       5.3289      0.00000
     80       5.5457      0.00000
     81       5.7220      0.00000
     82       5.7560      0.00000
     83       5.9953      0.00000
     84       6.0016      0.00000
     85       6.0724      0.00000
     86       6.1286      0.00000
     87       6.2080      0.00000
     88       6.3487      0.00000

 k-point     4 :       0.0000    0.3750    0.0000
  band No.  band energies     occupation 
      1     -23.9595      2.00000
      2     -23.9570      2.00000
      3     -23.9559      2.00000
      4     -23.9556      2.00000
      5     -23.8800      2.00000
      6     -23.8787      2.00000
      7     -23.8706      2.00000
      8     -23.8698      2.00000
      9      -9.5388      2.00000
     10      -9.5239      2.00000
     11      -9.5185      2.00000
     12      -9.4817      2.00000
     13      -9.4796      2.00000
     14      -9.4572      2.00000
     15      -9.4274      2.00000
     16      -9.3971      2.00000
     17      -9.3901      2.00000
     18      -9.3217      2.00000
     19      -9.3064      2.00000
     20      -9.2749      2.00000
     21      -9.2607      2.00000
     22      -9.2309      2.00000
     23      -9.2198      2.00000
     24      -9.2093      2.00000
     25      -9.1655      2.00000
     26      -9.1605      2.00000
     27      -9.1562      2.00000
     28      -9.1467      2.00000
     29      -9.1325      2.00000
     30      -9.1272      2.00000
     31      -9.1202      2.00000
     32      -9.1157      2.00000
     33      -7.0068      2.00000
     34      -6.9194      2.00000
     35      -6.9007      2.00000
     36      -6.8932      2.00000
     37      -2.4522      2.00000
     38      -2.4495      2.00000
     39      -2.3145      2.00000
     40      -2.2059      2.00000
     41      -2.1977      2.00000
     42      -2.1960      2.00000
     43      -2.1093      2.00000
     44      -2.0942      2.00000
     45      -2.0082      2.00000
     46      -1.9516      2.00000
     47      -1.9193      2.00000
     48      -1.8447      2.00000
     49       0.8234      2.00000
     50       1.1204      2.00000
     51       1.2001      2.00000
     52       1.3576      2.00000
     53       1.4776      2.00000
     54       1.4910      2.00000
     55       1.5192      2.00000
     56       1.6980      2.00000
     57       1.7497      2.00000
     58       1.8674      2.00000
     59       2.0712      2.00000
     60       2.1082      2.00000
     61       2.1421      2.00000
     62       2.1810      2.00000
     63       2.2072      2.00000
     64       2.4059      2.00000
     65       2.5540      2.00000
     66       2.5742      2.00000
     67       2.6180      2.00000
     68       2.7101      2.00000
     69       2.7911      2.00000
     70       2.8701      2.00000
     71       3.3252      2.00000
     72       3.5536      2.00000
     73       4.3374      0.00000
     74       4.5248      0.00000
     75       4.6250      0.00000
     76       4.7664      0.00000
     77       5.0187      0.00000
     78       5.2407      0.00000
     79       5.2875      0.00000
     80       5.4620      0.00000
     81       5.6610      0.00000
     82       5.7555      0.00000
     83       5.8089      0.00000
     84       5.9343      0.00000
     85       5.9551      0.00000
     86       6.1286      0.00000
     87       6.1493      0.00000
     88       6.2736      0.00000

 k-point     5 :       0.0000    0.5000    0.0000
  band No.  band energies     occupation 
      1     -23.9574      2.00000
      2     -23.9574      2.00000
      3     -23.9562      2.00000
      4     -23.9562      2.00000
      5     -23.8797      2.00000
      6     -23.8797      2.00000
      7     -23.8703      2.00000
      8     -23.8703      2.00000
      9      -9.5346      2.00000
     10      -9.5346      2.00000
     11      -9.4961      2.00000
     12      -9.4961      2.00000
     13      -9.4875      2.00000
     14      -9.4875      2.00000
     15      -9.4156      2.00000
     16      -9.4156      2.00000
     17      -9.3607      2.00000
     18      -9.3607      2.00000
     19      -9.2904      2.00000
     20      -9.2904      2.00000
     21      -9.2441      2.00000
     22      -9.2441      2.00000
     23      -9.2134      2.00000
     24      -9.2134      2.00000
     25      -9.1586      2.00000
     26      -9.1586      2.00000
     27      -9.1501      2.00000
     28      -9.1501      2.00000
     29      -9.1233      2.00000
     30      -9.1233      2.00000
     31      -9.1187      2.00000
     32      -9.1187      2.00000
     33      -6.9432      2.00000
     34      -6.9432      2.00000
     35      -6.8972      2.00000
     36      -6.8971      2.00000
     37      -2.4938      2.00000
     38      -2.4938      2.00000
     39      -2.2365      2.00000
     40      -2.2365      2.00000
     41      -2.1375      2.00000
     42      -2.1375      2.00000
     43      -2.1303      2.00000
     44      -2.1303      2.00000
     45      -1.9500      2.00000
     46      -1.9500      2.00000
     47      -1.9055      2.00000
     48      -1.9055      2.00000
     49       1.0183      2.00000
     50       1.0183      2.00000
     51       1.2600      2.00000
     52       1.2600      2.00000
     53       1.5202      2.00000
     54       1.5202      2.00000
     55       1.6241      2.00000
     56       1.6241      2.00000
     57       1.7266      2.00000
     58       1.7266      2.00000
     59       2.1205      2.00000
     60       2.1205      2.00000
     61       2.1280      2.00000
     62       2.1280      2.00000
     63       2.3149      2.00000
     64       2.3149      2.00000
     65       2.5491      2.00000
     66       2.5491      2.00000
     67       2.7934      2.00000
     68       2.7934      2.00000
     69       2.7979      2.00000
     70       2.7979      2.00000
     71       3.4203      2.00000
     72       3.4203      2.00000
     73       4.3387      0.00000
     74       4.3387      0.00000
     75       4.7936      0.00000
     76       4.7936      0.00000
     77       4.8552      0.00000
     78       4.8552      0.00000
     79       5.3381      0.00000
     80       5.3381      0.00000
     81       5.7606      0.00000
     82       5.7608      0.00000
     83       5.8731      0.00000
     84       5.8747      0.00000
     85       6.0419      0.00000
     86       6.0461      0.00000
     87       6.1226      0.00000
     88       6.1631      0.00000

 k-point     6 :       0.0000    0.0000    0.2000
  band No.  band energies     occupation 
      1     -23.9638      2.00000
      2     -23.9593      2.00000
      3     -23.9550      2.00000
      4     -23.9549      2.00000
      5     -23.8787      2.00000
      6     -23.8762      2.00000
      7     -23.8707      2.00000
      8     -23.8690      2.00000
      9      -9.5470      2.00000
     10      -9.5266      2.00000
     11      -9.4711      2.00000
     12      -9.4485      2.00000
     13      -9.4219      2.00000
     14      -9.3987      2.00000
     15      -9.3814      2.00000
     16      -9.3698      2.00000
     17      -9.3430      2.00000
     18      -9.3210      2.00000
     19      -9.3208      2.00000
     20      -9.3185      2.00000
     21      -9.2649      2.00000
     22      -9.2369      2.00000
     23      -9.2105      2.00000
     24      -9.1986      2.00000
     25      -9.1932      2.00000
     26      -9.1882      2.00000
     27      -9.1691      2.00000
     28      -9.1628      2.00000
     29      -9.1403      2.00000
     30      -9.1376      2.00000
     31      -9.1304      2.00000
     32      -9.1202      2.00000
     33      -7.1813      2.00000
     34      -6.9627      2.00000
     35      -6.9086      2.00000
     36      -6.8961      2.00000
     37      -2.5510      2.00000
     38      -2.4926      2.00000
     39      -2.2499      2.00000
     40      -2.2476      2.00000
     41      -2.1842      2.00000
     42      -2.1606      2.00000
     43      -2.1531      2.00000
     44      -2.1493      2.00000
     45      -2.0194      2.00000
     46      -1.9386      2.00000
     47      -1.9222      2.00000
     48      -1.7543      2.00000
     49       0.1312      2.00000
     50       1.0482      2.00000
     51       1.0759      2.00000
     52       1.3511      2.00000
     53       1.3917      2.00000
     54       1.5365      2.00000
     55       1.7579      2.00000
     56       1.8444      2.00000
     57       1.8513      2.00000
     58       1.8545      2.00000
     59       1.9092      2.00000
     60       2.0277      2.00000
     61       2.1088      2.00000
     62       2.1566      2.00000
     63       2.3269      2.00000
     64       2.4270      2.00000
     65       2.4765      2.00000
     66       2.5385      2.00000
     67       2.5453      2.00000
     68       2.5636      2.00000
     69       2.9727      2.00000
     70       3.1581      2.00000
     71       3.2734      2.00000
     72       3.3990      2.00000
     73       4.5192      0.00000
     74       4.6002      0.00000
     75       4.8632      0.00000
     76       5.1607      0.00000
     77       5.1726      0.00000
     78       5.4555      0.00000
     79       5.7214      0.00000
     80       5.7720      0.00000
     81       5.8556      0.00000
     82       5.9458      0.00000
     83       6.0397      0.00000
     84       6.1266      0.00000
     85       6.1623      0.00000
     86       6.3525      0.00000
     87       6.5226      0.00000
     88       6.5954      0.00000

 k-point     7 :       0.0000    0.1250    0.2000
  band No.  band energies     occupation 
      1     -23.9632      2.00000
      2     -23.9591      2.00000
      3     -23.9550      2.00000
      4     -23.9550      2.00000
      5     -23.8790      2.00000
      6     -23.8766      2.00000
      7     -23.8707      2.00000
      8     -23.8691      2.00000
      9      -9.5469      2.00000
     10      -9.5305      2.00000
     11      -9.4833      2.00000
     12      -9.4286      2.00000
     13      -9.4265      2.00000
     14      -9.4136      2.00000
     15      -9.3924      2.00000
     16      -9.3864      2.00000
     17      -9.3791      2.00000
     18      -9.3429      2.00000
     19      -9.2906      2.00000
     20      -9.2777      2.00000
     21      -9.2557      2.00000
     22      -9.2476      2.00000
     23      -9.2131      2.00000
     24      -9.1981      2.00000
     25      -9.1957      2.00000
     26      -9.1850      2.00000
     27      -9.1700      2.00000
     28      -9.1539      2.00000
     29      -9.1458      2.00000
     30      -9.1337      2.00000
     31      -9.1318      2.00000
     32      -9.1174      2.00000
     33      -7.1511      2.00000
     34      -6.9535      2.00000
     35      -6.9075      2.00000
     36      -6.8966      2.00000
     37      -2.5259      2.00000
     38      -2.4632      2.00000
     39      -2.2455      2.00000
     40      -2.2250      2.00000
     41      -2.2133      2.00000
     42      -2.1934      2.00000
     43      -2.1593      2.00000
     44      -2.0828      2.00000
     45      -2.0484      2.00000
     46      -1.9930      2.00000
     47      -1.9193      2.00000
     48      -1.7610      2.00000
     49       0.2672      2.00000
     50       1.0760      2.00000
     51       1.1447      2.00000
     52       1.3535      2.00000
     53       1.4042      2.00000
     54       1.5327      2.00000
     55       1.5597      2.00000
     56       1.7980      2.00000
     57       1.8514      2.00000
     58       1.9122      2.00000
     59       1.9694      2.00000
     60       1.9792      2.00000
     61       2.1909      2.00000
     62       2.2078      2.00000
     63       2.3245      2.00000
     64       2.4031      2.00000
     65       2.4605      2.00000
     66       2.4948      2.00000
     67       2.5755      2.00000
     68       2.6381      2.00000
     69       2.9214      2.00000
     70       2.9685      2.00000
     71       3.3852      2.00000
     72       3.4082      2.00000
     73       4.4978      0.00000
     74       4.5230      0.00000
     75       4.8915      0.00000
     76       5.1682      0.00000
     77       5.2633      0.00000
     78       5.4118      0.00000
     79       5.6334      0.00000
     80       5.6474      0.00000
     81       5.8861      0.00000
     82       5.9030      0.00000
     83       5.9643      0.00000
     84       5.9922      0.00000
     85       6.1509      0.00000
     86       6.3182      0.00000
     87       6.4926      0.00000
     88       6.5186      0.00000

 k-point     8 :       0.0000    0.2500    0.2000
  band No.  band energies     occupation 
      1     -23.9615      2.00000
      2     -23.9583      2.00000
      3     -23.9552      2.00000
      4     -23.9552      2.00000
      5     -23.8795      2.00000
      6     -23.8776      2.00000
      7     -23.8707      2.00000
      8     -23.8695      2.00000
      9      -9.5465      2.00000
     10      -9.5398      2.00000
     11      -9.4903      2.00000
     12      -9.4500      2.00000
     13      -9.4395      2.00000
     14      -9.4304      2.00000
     15      -9.4167      2.00000
     16      -9.4085      2.00000
     17      -9.3880      2.00000
     18      -9.3172      2.00000
     19      -9.3003      2.00000
     20      -9.2782      2.00000
     21      -9.2674      2.00000
     22      -9.2253      2.00000
     23      -9.2119      2.00000
     24      -9.2071      2.00000
     25      -9.1868      2.00000
     26      -9.1721      2.00000
     27      -9.1693      2.00000
     28      -9.1460      2.00000
     29      -9.1436      2.00000
     30      -9.1289      2.00000
     31      -9.1288      2.00000
     32      -9.1138      2.00000
     33      -7.0768      2.00000
     34      -6.9326      2.00000
     35      -6.9048      2.00000
     36      -6.8985      2.00000
     37      -2.4881      2.00000
     38      -2.3780      2.00000
     39      -2.3489      2.00000
     40      -2.2067      2.00000
     41      -2.2067      2.00000
     42      -2.1660      2.00000
     43      -2.1540      2.00000
     44      -2.1283      2.00000
     45      -2.0408      2.00000
     46      -1.9742      2.00000
     47      -1.9200      2.00000
     48      -1.7928      2.00000
     49       0.5710      2.00000
     50       1.1083      2.00000
     51       1.3036      2.00000
     52       1.3175      2.00000
     53       1.3631      2.00000
     54       1.4151      2.00000
     55       1.5748      2.00000
     56       1.7611      2.00000
     57       1.7673      2.00000
     58       1.8743      2.00000
     59       2.0132      2.00000
     60       2.0651      2.00000
     61       2.1867      2.00000
     62       2.2520      2.00000
     63       2.3045      2.00000
     64       2.3538      2.00000
     65       2.5266      2.00000
     66       2.5674      2.00000
     67       2.6123      2.00000
     68       2.6453      2.00000
     69       2.7794      2.00000
     70       2.8903      2.00000
     71       3.3265      2.00000
     72       3.5015      2.00000
     73       4.3736      0.00000
     74       4.4877      0.00000
     75       4.9113      0.00000
     76       5.0687      0.00000
     77       5.2044      0.00000
     78       5.2740      0.00000
     79       5.2870      0.00000
     80       5.6746      0.00000
     81       5.7105      0.00000
     82       5.7687      0.00000
     83       5.8603      0.00000
     84       5.9918      0.00000
     85       5.9939      0.00000
     86       6.2100      0.00000
     87       6.3072      0.00000
     88       6.3218      0.00000

 k-point     9 :       0.0000    0.3750    0.2000
  band No.  band energies     occupation 
      1     -23.9593      2.00000
      2     -23.9573      2.00000
      3     -23.9558      2.00000
      4     -23.9556      2.00000
      5     -23.8799      2.00000
      6     -23.8788      2.00000
      7     -23.8706      2.00000
      8     -23.8699      2.00000
      9      -9.5466      2.00000
     10      -9.5404      2.00000
     11      -9.5066      2.00000
     12      -9.4744      2.00000
     13      -9.4638      2.00000
     14      -9.4530      2.00000
     15      -9.4242      2.00000
     16      -9.4104      2.00000
     17      -9.3745      2.00000
     18      -9.3140      2.00000
     19      -9.3117      2.00000
     20      -9.3024      2.00000
     21      -9.2634      2.00000
     22      -9.2345      2.00000
     23      -9.2073      2.00000
     24      -9.2063      2.00000
     25      -9.1726      2.00000
     26      -9.1688      2.00000
     27      -9.1530      2.00000
     28      -9.1467      2.00000
     29      -9.1337      2.00000
     30      -9.1215      2.00000
     31      -9.1200      2.00000
     32      -9.1145      2.00000
     33      -6.9948      2.00000
     34      -6.9190      2.00000
     35      -6.9021      2.00000
     36      -6.9012      2.00000
     37      -2.5047      2.00000
     38      -2.4845      2.00000
     39      -2.2725      2.00000
     40      -2.2122      2.00000
     41      -2.1827      2.00000
     42      -2.1354      2.00000
     43      -2.1298      2.00000
     44      -2.0748      2.00000
     45      -2.0145      2.00000
     46      -1.9507      2.00000
     47      -1.9247      2.00000
     48      -1.8463      2.00000
     49       0.8567      2.00000
     50       1.1084      2.00000
     51       1.2364      2.00000
     52       1.3094      2.00000
     53       1.3670      2.00000
     54       1.3816      2.00000
     55       1.6218      2.00000
     56       1.6319      2.00000
     57       1.8075      2.00000
     58       1.9097      2.00000
     59       2.0609      2.00000
     60       2.1057      2.00000
     61       2.1367      2.00000
     62       2.2414      2.00000
     63       2.3018      2.00000
     64       2.3768      2.00000
     65       2.5643      2.00000
     66       2.5821      2.00000
     67       2.5975      2.00000
     68       2.7734      2.00000
     69       2.7992      2.00000
     70       2.8418      2.00000
     71       3.2825      2.00000
     72       3.4836      2.00000
     73       4.3648      0.00000
     74       4.4240      0.00000
     75       4.6139      0.00000
     76       4.8494      0.00000
     77       4.8766      0.00000
     78       5.2151      0.00000
     79       5.2818      0.00000
     80       5.4563      0.00000
     81       5.5250      0.00000
     82       5.7502      0.00000
     83       5.9023      0.00000
     84       5.9443      0.00000
     85       5.9894      0.00000
     86       6.1380      0.00000
     87       6.1810      0.00000
     88       6.3355      0.00000

 k-point    10 :       0.0000    0.5000    0.2000
  band No.  band energies     occupation 
      1     -23.9573      2.00000
      2     -23.9573      2.00000
      3     -23.9563      2.00000
      4     -23.9563      2.00000
      5     -23.8797      2.00000
      6     -23.8797      2.00000
      7     -23.8703      2.00000
      8     -23.8703      2.00000
      9      -9.5435      2.00000
     10      -9.5435      2.00000
     11      -9.4974      2.00000
     12      -9.4974      2.00000
     13      -9.4711      2.00000
     14      -9.4711      2.00000
     15      -9.4180      2.00000
     16      -9.4180      2.00000
     17      -9.3461      2.00000
     18      -9.3461      2.00000
     19      -9.3098      2.00000
     20      -9.3098      2.00000
     21      -9.2474      2.00000
     22      -9.2474      2.00000
     23      -9.2072      2.00000
     24      -9.2072      2.00000
     25      -9.1699      2.00000
     26      -9.1699      2.00000
     27      -9.1438      2.00000
     28      -9.1438      2.00000
     29      -9.1239      2.00000
     30      -9.1239      2.00000
     31      -9.1159      2.00000
     32      -9.1159      2.00000
     33      -6.9380      2.00000
     34      -6.9380      2.00000
     35      -6.9008      2.00000
     36      -6.9008      2.00000
     37      -2.5343      2.00000
     38      -2.5343      2.00000
     39      -2.2100      2.00000
     40      -2.2099      2.00000
     41      -2.1591      2.00000
     42      -2.1591      2.00000
     43      -2.0634      2.00000
     44      -2.0634      2.00000
     45      -1.9758      2.00000
     46      -1.9758      2.00000
     47      -1.9035      2.00000
     48      -1.9035      2.00000
     49       1.0291      2.00000
     50       1.0291      2.00000
     51       1.2846      2.00000
     52       1.2846      2.00000
     53       1.3209      2.00000
     54       1.3209      2.00000
     55       1.6055      2.00000
     56       1.6055      2.00000
     57       1.9075      2.00000
     58       1.9075      2.00000
     59       2.0640      2.00000
     60       2.0640      2.00000
     61       2.2324      2.00000
     62       2.2324      2.00000
     63       2.3076      2.00000
     64       2.3076      2.00000
     65       2.5790      2.00000
     66       2.5790      2.00000
     67       2.7563      2.00000
     68       2.7563      2.00000
     69       2.8139      2.00000
     70       2.8139      2.00000
     71       3.3623      2.00000
     72       3.3623      2.00000
     73       4.3569      0.00000
     74       4.3569      0.00000
     75       4.5866      0.00000
     76       4.5866      0.00000
     77       4.9869      0.00000
     78       4.9869      0.00000
     79       5.2676      0.00000
     80       5.2676      0.00000
     81       5.7178      0.00000
     82       5.7179      0.00000
     83       5.7891      0.00000
     84       5.7892      0.00000
     85       6.0879      0.00000
     86       6.0892      0.00000
     87       6.2441      0.00000
     88       6.3057      0.00000

 k-point    11 :       0.0000    0.0000    0.4000
  band No.  band energies     occupation 
      1     -23.9625      2.00000
      2     -23.9609      2.00000
      3     -23.9548      2.00000
      4     -23.9548      2.00000
      5     -23.8779      2.00000
      6     -23.8770      2.00000
      7     -23.8702      2.00000
      8     -23.8695      2.00000
      9      -9.5490      2.00000
     10      -9.5402      2.00000
     11      -9.4536      2.00000
     12      -9.4278      2.00000
     13      -9.4122      2.00000
     14      -9.4119      2.00000
     15      -9.3851      2.00000
     16      -9.3816      2.00000
     17      -9.3296      2.00000
     18      -9.3220      2.00000
     19      -9.3153      2.00000
     20      -9.3104      2.00000
     21      -9.2537      2.00000
     22      -9.2394      2.00000
     23      -9.2205      2.00000
     24      -9.2202      2.00000
     25      -9.1921      2.00000
     26      -9.1827      2.00000
     27      -9.1800      2.00000
     28      -9.1711      2.00000
     29      -9.1374      2.00000
     30      -9.1336      2.00000
     31      -9.1322      2.00000
     32      -9.1258      2.00000
     33      -7.1061      2.00000
     34      -7.0199      2.00000
     35      -6.9093      2.00000
     36      -6.9074      2.00000
     37      -2.4544      2.00000
     38      -2.4122      2.00000
     39      -2.3258      2.00000
     40      -2.2961      2.00000
     41      -2.2218      2.00000
     42      -2.2083      2.00000
     43      -2.1919      2.00000
     44      -2.1886      2.00000
     45      -1.9941      2.00000
[...]
     78       5.2233      0.00000
     79       5.2644      0.00000
     80       5.3342      0.00000
     81       5.5940      0.00000
     82       5.6842      0.00000
     83       5.8284      0.00000
     84       5.9642      0.00000
     85       6.1053      0.00000
     86       6.2516      0.00000
     87       6.2799      0.00000
     88       6.4324      0.00000

 k-point    15 :       0.0000    0.5000    0.4000
  band No.  band energies     occupation 
      1     -23.9571      2.00000
      2     -23.9571      2.00000
      3     -23.9565      2.00000
      4     -23.9565      2.00000
      5     -23.8797      2.00000
      6     -23.8797      2.00000
      7     -23.8703      2.00000
      8     -23.8703      2.00000
      9      -9.5568      2.00000
     10      -9.5568      2.00000
     11      -9.4776      2.00000
     12      -9.4776      2.00000
     13      -9.4674      2.00000
     14      -9.4674      2.00000
     15      -9.4183      2.00000
     16      -9.4183      2.00000
     17      -9.3466      2.00000
     18      -9.3466      2.00000
     19      -9.3025      2.00000
     20      -9.3025      2.00000
     21      -9.2675      2.00000
     22      -9.2675      2.00000
     23      -9.2068      2.00000
     24      -9.2068      2.00000
     25      -9.1748      2.00000
     26      -9.1748      2.00000
     27      -9.1402      2.00000
     28      -9.1402      2.00000
     29      -9.1243      2.00000
     30      -9.1243      2.00000
     31      -9.1123      2.00000
     32      -9.1123      2.00000
     33      -6.9255      2.00000
     34      -6.9255      2.00000
     35      -6.9109      2.00000
     36      -6.9109      2.00000
     37      -2.5873      2.00000
     38      -2.5873      2.00000
     39      -2.1599      2.00000
     40      -2.1599      2.00000
     41      -2.1369      2.00000
     42      -2.1369      2.00000
     43      -2.0499      2.00000
     44      -2.0499      2.00000
     45      -2.0155      2.00000
     46      -2.0155      2.00000
     47      -1.8839      2.00000
     48      -1.8839      2.00000
     49       1.0503      2.00000
     50       1.0503      2.00000
     51       1.1402      2.00000
     52       1.1402      2.00000
     53       1.3819      2.00000
     54       1.3819      2.00000
     55       1.5049      2.00000
     56       1.5049      2.00000
     57       2.0040      2.00000
     58       2.0040      2.00000
     59       2.0726      2.00000
     60       2.0726      2.00000
     61       2.3325      2.00000
     62       2.3325      2.00000
     63       2.3685      2.00000
     64       2.3685      2.00000
     65       2.5922      2.00000
     66       2.5922      2.00000
     67       2.6732      2.00000
     68       2.6732      2.00000
     69       2.8777      2.00000
     70       2.8777      2.00000
     71       3.2718      2.00000
     72       3.2718      2.00000
     73       4.2922      0.00000
     74       4.2922      0.00000
     75       4.4242      0.00000
     76       4.4242      0.00000
     77       5.0946      0.00000
     78       5.0946      0.00000
     79       5.3011      0.00000
     80       5.3011      0.00000
     81       5.6046      0.00000
     82       5.6046      0.00000
     83       5.6323      0.00000
     84       5.6323      0.00000
     85       6.1680      0.00000
     86       6.1692      0.00000
     87       6.3693      0.00000
     88       6.3867      0.00000


--------------------------------------------------------------------------------------------------------


 soft charge-density along one line, spin component           1
         0         1         2         3         4         5         6         7         8         9
 total charge-density along one line
 
 pseudopotential strength for first ion, spin component:           1
  2.182  -4.466  -0.000   0.003   0.001  -0.000   0.002   0.001
 -4.466  -2.808   0.000  -0.001   0.000  -0.000   0.001   0.000
 -0.000   0.000  -7.448  -0.000  -0.000   1.125  -0.000  -0.000
  0.003  -0.001  -0.000  -7.448  -0.001  -0.000   1.126  -0.002
  0.001   0.000  -0.000  -0.001  -7.448  -0.000  -0.002   1.126
 -0.000  -0.000   1.125  -0.000  -0.000   7.404  -0.000  -0.000
  0.002   0.001  -0.000   1.126  -0.002  -0.000   7.404  -0.000
  0.001   0.000  -0.000  -0.002   1.126  -0.000  -0.000   7.404
 -0.000   0.000   0.001  -0.000  -0.000   0.000  -0.000  -0.000
 -0.000   0.000   0.001  -0.000  -0.000   0.001  -0.000  -0.000
  0.000  -0.000   0.000   0.001  -0.000   0.000   0.001   0.000
 -0.001   0.000  -0.000   0.001   0.001  -0.000   0.001   0.001
  0.000  -0.000   0.000  -0.000   0.001   0.000  -0.000   0.001
  0.000   0.000  -0.000   0.000   0.000  -0.000   0.000   0.000
  0.000   0.000  -0.000   0.000   0.000  -0.000   0.000   0.000
 -0.000  -0.000  -0.000  -0.000  -0.000  -0.000  -0.000   0.000
  0.000   0.000   0.000  -0.000  -0.000   0.000  -0.000  -0.000
 -0.000  -0.000  -0.000   0.000  -0.000  -0.000   0.000  -0.000
 total augmentation occupancy for first ion, spin component:           1
  2.355  -0.912   0.000   0.000   0.000   0.000   0.000   0.000   0.000   0.000   0.000   0.000   0.000   0.000   0.000   0.000
 -0.912   2.345   0.000   0.000   0.000   0.000   0.000   0.000   0.000   0.000   0.000   0.000   0.000   0.000   0.000   0.000
  0.000   0.000   2.000   0.000   0.000   0.000   0.000   0.000   0.000   0.000   0.000   0.000   0.000   0.000   0.000   0.000
  0.000   0.000   0.000   2.000   0.000   0.000   0.000   0.000   0.000   0.000   0.000   0.000   0.000   0.000   0.000   0.000
  0.000   0.000   0.000   0.000   2.000   0.000   0.000   0.000   0.000   0.000   0.000   0.000   0.000   0.000   0.000   0.000
  0.000   0.000   0.000   0.000   0.000   0.000   0.000   0.000   0.000   0.000   0.000   0.000   0.000   0.000   0.000   0.000
  0.000   0.000   0.000   0.000   0.000   0.000   0.000   0.000   0.000   0.000   0.000   0.000   0.000   0.000   0.000   0.000
  0.000   0.000   0.000   0.000   0.000   0.000   0.000   0.000   0.000   0.000   0.000   0.000   0.000   0.000   0.000   0.000
  0.000   0.000   0.000   0.000   0.000   0.000   0.000   0.000   0.002   0.000   0.000   0.000   0.000   0.000   0.000   0.000
  0.000   0.000   0.000   0.000   0.000   0.000   0.000   0.000   0.000   0.002   0.000   0.000   0.000   0.000   0.000   0.000
  0.000   0.000   0.000   0.000   0.000   0.000   0.000   0.000   0.000   0.000   0.002   0.000   0.000   0.000   0.000   0.000
  0.000   0.000   0.000   0.000   0.000   0.000   0.000   0.000   0.000   0.000   0.000   0.002   0.000   0.000   0.000   0.000
  0.000   0.000   0.000   0.000   0.000   0.000   0.000   0.000   0.000   0.000   0.000   0.000   0.002   0.000   0.000   0.000
  0.000   0.000   0.000   0.000   0.000   0.000   0.000   0.000   0.000   0.000   0.000   0.000   0.000   0.000   0.000   0.000
  0.000   0.000   0.000   0.000   0.000   0.000   0.000   0.000   0.000   0.000   0.000   0.000   0.000   0.000   0.000   0.000
  0.000   0.000   0.000   0.000   0.000   0.000   0.000   0.000   0.000   0.000   0.000   0.000   0.000   0.000   0.000   0.000
  0.000   0.000   0.000   0.000   0.000   0.000   0.000   0.000   0.000   0.000   0.000   0.000   0.000   0.000   0.000   0.000
  0.000   0.000   0.000   0.000   0.000   0.000   0.000   0.000   0.000   0.000   0.000   0.000   0.000   0.000   0.000   0.000


------------------------ aborting loop because EDIFF is reached ----------------------------------------


 


 total charge     
 
# of ion       s       p       d       tot
------------------------------------------
    1        2.016   5.588   0.315   7.919
    2        2.016   5.588   0.315   7.919
    3        2.016   5.588   0.315   7.919
    4        2.016   5.588   0.315   7.919
    5        2.015   5.565   0.351   7.931
    6        2.015   5.565   0.351   7.931
    7        2.015   5.565   0.351   7.931
    8        2.015   5.565   0.351   7.931
    9        0.804   0.857   0.000   1.661
   10        0.804   0.857   0.000   1.661
   11        0.804   0.855   0.000   1.659
   12        0.804   0.855   0.000   1.659
   13        0.804   0.855   0.000   1.659
   14        0.804   0.855   0.000   1.659
   15        0.804   0.857   0.000   1.661
   16        0.804   0.857   0.000   1.661
   17        0.819   0.797   0.000   1.616
   18        0.819   0.797   0.000   1.616
   19        0.819   0.797   0.000   1.616
   20        0.819   0.797   0.000   1.616
   21        0.803   0.860   0.000   1.663
   22        0.803   0.860   0.000   1.663
   23        0.803   0.860   0.000   1.663
   24        0.803   0.860   0.000   1.663
--------------------------------------------------
tot         29.046  58.084   2.662  89.792
 
    CHARGE:  cpu time    0.0514: real time    0.0517
    FORLOC:  cpu time    0.0041: real time    0.0041
    FORNL :  cpu time    0.1645: real time    0.1649
    STRESS:  cpu time    0.4935: real time    0.4947
    FORCOR:  cpu time    0.8865: real time    0.8886
    FORHAR:  cpu time    0.0094: real time    0.0094
    OFIELD:  cpu time    0.0001: real time    0.0001

  FORCE on cell =-STRESS in cart. coord.  units (eV):
  Direction    XX          YY          ZZ          XY          YZ          ZX
  --------------------------------------------------------------------------------------
  Alpha Z   466.78152   466.78152   466.78152
  Ewald   -2161.39154 -2147.30166 -2134.28631    -0.00000    -0.00000    -0.00014
  Hartree   293.54472   302.01075   304.04131     0.00000    -0.00000     0.00001
  E(xc)    -466.46310  -466.71874  -466.63550    -0.00000    -0.00000    -0.00000
  Local     137.08988   118.97003   107.64817     0.00000     0.00000     0.00008
  n-local   335.10839   340.31290   339.78742     0.00000    -0.08608    -0.00001
  augment  -167.66628  -167.72005  -167.78857     0.00000     0.00000     0.00000
  Kinetic  1551.47776  1553.95394  1553.82577    -0.00003    -1.11770     0.00000
  Fock        0.00000     0.00000     0.00000     0.00000     0.00000     0.00000
  -------------------------------------------------------------------------------------
  Total     -11.51866     0.28868     3.37381     0.00000     0.00000     0.00000
  in kB     -26.76685     0.67083     7.83999     0.00000     0.00000     0.00000
  external pressure =       -6.09 kB  Pullay stress =        0.00 kB


 VOLUME and BASIS-vectors are now :
 -----------------------------------------------------------------------------
  energy-cutoff  :      500.00
  volume of cell :      689.47
      direct lattice vectors                 reciprocal lattice vectors
     8.908260505  0.000000000  0.000000000     0.112255361  0.000000000  0.000000000
     0.000000000  6.726861978  0.000000000     0.000000000  0.148657725  0.000000000
     0.000000000  0.000000000 11.505612668     0.000000000  0.000000000  0.086914103

  length of vectors
     8.908260505  6.726861978 11.505612668     0.112255361  0.148657725  0.086914103


 FORCES acting on ions
    electron-ion (+dipol)            ewald-force                    non-local-force                 convergence-correction
 -----------------------------------------------------------------------------------------------
   0.279E+01 0.804E-04 0.189E+01   -.316E+01 0.141E-04 -.196E+01   0.347E+00 -.186E-18 0.380E+00   0.455E-01 -.123E-04 -.270E+00
   -.279E+01 0.868E-05 -.189E+01   0.316E+01 -.201E-04 0.196E+01   -.347E+00 -.171E-18 -.380E+00   -.455E-01 0.426E-04 0.270E+00
   -.279E+01 0.448E-05 0.189E+01   0.316E+01 -.201E-04 -.196E+01   -.347E+00 -.152E-18 0.380E+00   -.455E-01 0.426E-04 -.270E+00
   0.279E+01 0.762E-04 -.189E+01   -.316E+01 0.141E-04 0.196E+01   0.347E+00 0.412E-19 -.380E+00   0.455E-01 -.123E-04 0.270E+00
   -.214E+02 0.745E-05 -.513E+01   0.211E+02 -.179E-04 0.561E+01   0.709E+00 0.332E-18 -.457E-01   -.166E+00 0.407E-04 -.319E+00
   0.214E+02 0.792E-04 0.513E+01   -.211E+02 0.172E-04 -.561E+01   -.709E+00 -.383E-18 0.457E-01   0.166E+00 -.150E-04 0.319E+00
   0.214E+02 0.770E-04 -.513E+01   -.211E+02 0.172E-04 0.561E+01   -.709E+00 0.185E-18 -.457E-01   0.166E+00 -.150E-04 -.318E+00
   -.214E+02 0.525E-05 0.513E+01   0.211E+02 -.179E-04 -.561E+01   0.709E+00 0.388E-18 0.457E-01   -.166E+00 0.408E-04 0.319E+00
   0.101E+02 0.307E+02 -.169E+02   -.108E+02 -.318E+02 0.176E+02   0.396E+00 0.123E+01 -.815E+00   0.202E+00 -.405E-01 0.961E-01
   -.101E+02 -.307E+02 0.169E+02   0.108E+02 0.318E+02 -.176E+02   -.396E+00 -.123E+01 0.815E+00   -.202E+00 0.405E-01 -.962E-01
   -.101E+02 -.307E+02 -.169E+02   0.108E+02 0.318E+02 0.176E+02   -.396E+00 -.123E+01 -.815E+00   -.202E+00 0.405E-01 0.962E-01
   0.101E+02 0.307E+02 0.169E+02   -.108E+02 -.318E+02 -.176E+02   0.396E+00 0.123E+01 0.815E+00   0.202E+00 -.404E-01 -.962E-01
   -.101E+02 0.307E+02 0.169E+02   0.108E+02 -.318E+02 -.176E+02   -.396E+00 0.123E+01 0.815E+00   -.202E+00 -.404E-01 -.962E-01
   0.101E+02 -.307E+02 -.169E+02   -.108E+02 0.318E+02 0.176E+02   0.396E+00 -.123E+01 -.815E+00   0.202E+00 0.405E-01 0.961E-01
   0.101E+02 -.307E+02 0.169E+02   -.108E+02 0.318E+02 -.176E+02   0.396E+00 -.123E+01 0.815E+00   0.202E+00 0.404E-01 -.962E-01
   -.101E+02 0.307E+02 -.169E+02   0.108E+02 -.318E+02 0.176E+02   -.396E+00 0.123E+01 -.815E+00   -.202E+00 -.405E-01 0.962E-01
   0.438E+02 -.121E-04 0.103E+01   -.448E+02 -.786E-05 -.142E+01   0.918E+00 0.449E-18 0.446E+00   -.430E-01 0.742E-05 -.363E-01
   -.438E+02 -.776E-06 -.103E+01   0.448E+02 0.815E-05 0.142E+01   -.918E+00 -.219E-18 -.446E+00   0.430E-01 -.713E-05 0.363E-01
   -.438E+02 0.743E-05 0.103E+01   0.448E+02 0.815E-05 -.142E+01   -.918E+00 -.853E-18 0.446E+00   0.430E-01 -.711E-05 -.364E-01
   0.438E+02 -.389E-05 -.103E+01   -.448E+02 -.786E-05 0.142E+01   0.918E+00 -.148E-18 -.446E+00   -.430E-01 0.744E-05 0.364E-01
   0.770E+01 -.430E-05 0.343E+02   -.788E+01 0.875E-05 -.362E+02   0.123E-02 0.337E-18 0.183E+01   0.212E+00 -.731E-05 0.519E-01
   -.770E+01 -.151E-04 -.343E+02   0.788E+01 -.914E-05 0.362E+02   -.123E-02 -.781E-18 -.183E+01   -.212E+00 0.793E-05 -.520E-01
   -.770E+01 -.127E-05 0.343E+02   0.788E+01 -.914E-05 -.362E+02   -.123E-02 -.953E-18 0.183E+01   -.212E+00 0.791E-05 0.519E-01
   0.770E+01 0.947E-05 -.343E+02   -.788E+01 0.875E-05 0.362E+02   0.123E-02 0.536E-18 -.183E+01   0.212E+00 -.734E-05 -.520E-01
 -----------------------------------------------------------------------------------------------
   -.273E-03 0.394E-03 0.608E-04   -.231E-13 -.441E-13 -.711E-14   -.222E-15 -.163E-17 0.222E-15   0.457E-05 0.107E-03 -.223E-05
 
 
 POSITION                                       TOTAL-FORCE (eV/Angst)
 -----------------------------------------------------------------------------------
      0.13687      1.68172      7.96340         0.021993      0.000000      0.045184
      8.77139      5.04515      3.54221        -0.021993      0.000000     -0.045184
      4.31726      5.04515      2.21059        -0.021993      0.000000      0.045184
      4.59100      1.68172      9.29502         0.021993     -0.000000     -0.045184
      1.43158      5.04515     10.42987         0.159930     -0.000000      0.118844
      7.47668      1.68172      1.07574        -0.159930     -0.000000     -0.118844
      3.02255      1.68172      4.67706        -0.159930     -0.000000      0.118844
      5.88571      5.04515      6.82855         0.159930     -0.000000     -0.118844
      1.72337      0.47763      1.68413        -0.072619      0.058801     -0.061144
      7.18489      6.24923      9.82149         0.072619     -0.058801      0.061144
      2.73076      6.24923      7.43693         0.072619     -0.058801     -0.061144
      6.17750      0.47763      4.06868        -0.072619      0.058801      0.061144
      7.18489      3.84106      9.82149         0.072619      0.058801      0.061144
      1.72337      2.88580      1.68413        -0.072619     -0.058801     -0.061144
      6.17750      2.88580      4.06868        -0.072619     -0.058801      0.061144
      2.73076      3.84106      7.43693         0.072619      0.058801     -0.061144
      0.72396      5.04515      6.79944        -0.113417     -0.000000      0.023309
      8.18430      1.68172      4.70617         0.113417      0.000000     -0.023309
      3.73017      1.68172      1.04664         0.113417     -0.000000      0.023309
      5.17809      5.04515     10.45898        -0.113417      0.000000     -0.023309
      1.74956      1.68172     11.10205         0.036073      0.000000     -0.055766
      7.15870      5.04515      0.40356        -0.036073     -0.000000      0.055766
      2.70457      5.04515      5.34924        -0.036073     -0.000000     -0.055766
      6.20369      1.68172      6.15637         0.036073      0.000000      0.055766
 -----------------------------------------------------------------------------------
    total drift:                               -0.000269      0.000500      0.000059


--------------------------------------------------------------------------------------------------------



  FREE ENERGIE OF THE ION-ELECTRON SYSTEM (eV)
  ---------------------------------------------------
  free  energy   TOTEN  =       -98.78462889 eV

  energy  without entropy=      -98.78462889  energy(sigma->0) =      -98.78462889
 


--------------------------------------------------------------------------------------------------------


    POTLOK:  cpu time    1.0405: real time    1.0430


--------------------------------------------------------------------------------------------------------


 writing wavefunctions
     LOOP+:  cpu time   16.4862: real time   17.2044
    4ORBIT:  cpu time    0.0000: real time    0.0000
 


 total charge     
 
# of ion       s       p       d       tot
------------------------------------------
    1        2.016   5.588   0.315   7.919
    2        2.016   5.588   0.315   7.919
    3        2.016   5.588   0.315   7.919
    4        2.016   5.588   0.315   7.919
    5        2.015   5.565   0.351   7.931
    6        2.015   5.565   0.351   7.931
    7        2.015   5.565   0.351   7.931
    8        2.015   5.565   0.351   7.931
    9        0.804   0.857   0.000   1.661
   10        0.804   0.857   0.000   1.661
   11        0.804   0.855   0.000   1.659
   12        0.804   0.855   0.000   1.659
   13        0.804   0.855   0.000   1.659
   14        0.804   0.855   0.000   1.659
   15        0.804   0.857   0.000   1.661
   16        0.804   0.857   0.000   1.661
   17        0.819   0.797   0.000   1.616
   18        0.819   0.797   0.000   1.616
   19        0.819   0.797   0.000   1.616
   20        0.819   0.797   0.000   1.616
   21        0.803   0.860   0.000   1.663
   22        0.803   0.860   0.000   1.663
   23        0.803   0.860   0.000   1.663
   24        0.803   0.860   0.000   1.663
--------------------------------------------------
tot         29.046  58.084   2.662  89.792
 
 BZINTS: Fermi energy:  3.562500;144.000000 electrons
         Band energy:-835.899746;  BLOECHL correction:  0.000000

 total amount of memory used by VASP MPI-rank0    50509. kBytes
=======================================================================

   base      :      30000. kBytes
   nonlr-proj:       2650. kBytes
   fftplans  :       2345. kBytes
   grid      :       3658. kBytes
   one-center:         93. kBytes
   wavefun   :      11763. kBytes
 
  
  
 General timing and accounting informations for this job:
 ========================================================
  
                  Total CPU time used (sec):       22.092
                            User time (sec):       21.186
                          System time (sec):        0.906
                         Elapsed time (sec):       25.797
  
                   Maximum memory used (kb):      230932.
                   Average memory used (kb):           0.
  
                          Minor page faults:        23805
                          Major page faults:          260
                 Voluntary context switches:        12708
