 vasp.5.4.4.18Apr17-6-g9f103f2a35 (build Nov 21 2017 15:30:27) complex          
  
 executed on             LinuxIFC date 2020.11.10  16:13:28
 running on   64 total cores
 distrk:  each k-point on   32 cores,    2 groups
 distr:  one band on NCORES_PER_BAND=   4 cores,    8 groups


--------------------------------------------------------------------------------------------------------


 INCAR:
 POTCAR:   PAW_PBE Ba_sv 06Sep2000                
 POTCAR:   PAW_PBE Si 05Jan2001                   

 ----------------------------------------------------------------------------- 
|                                                                             |
|           W    W    AA    RRRRR   N    N  II  N    N   GGGG   !!!           |
|           W    W   A  A   R    R  NN   N  II  NN   N  G    G  !!!           |
|           W    W  A    A  R    R  N N  N  II  N N  N  G       !!!           |
|           W WW W  AAAAAA  RRRRR   N  N N  II  N  N N  G  GGG   !            |
|           WW  WW  A    A  R   R   N   NN  II  N   NN  G    G                |
|           W    W  A    A  R    R  N    N  II  N    N   GGGG   !!!           |
|                                                                             |
|      You have enabled k-point parallelism (KPAR>1).                         |
|      This developmental code was originally  written by Paul Kent at ORNL,  |
|      and carefully double checked in Vienna.                                |
|      GW as well as linear response parallelism added by Martijn Marsman     |
|      and Georg Kresse.                                                      |
|      Carefully verify results versus KPAR=1.                                |
|      Report problems to Paul Kent and Vienna.                               |
|                                                                             |
 ----------------------------------------------------------------------------- 


 ----------------------------------------------------------------------------- 
|                                                                             |
|  ADVICE TO THIS USER RUNNING 'VASP/VAMP'   (HEAR YOUR MASTER'S VOICE ...):  |
|                                                                             |
|      You have switched on vdW-DFT.                                          |
|      This routine was written and supplied by Jiri Klimes.                  |
|      We recommed that you carefully read and cite the following             |
|      publication                                                            |
|      J. Klimes, D.R. Bowler, A. Michelides                                  |
|        J. Phys.: Cond Matt. 22 022201 (2010)                                |
|      J. Klimes, D.R. Bowler, A. Michelides                                  |
|        Phys. Rev. B. 83, 195131 (2011)                                      |
|      and references therein.                                                |
|                                                                             |
 ----------------------------------------------------------------------------- 

 POTCAR:   PAW_PBE Ba_sv 06Sep2000                
   VRHFIN =Ba: 5s5p6s                                                           
   LEXCH  = PE                                                                  
   EATOM  =   700.2255 eV,   51.4651 Ry                                         
                                                                                
   TITEL  = PAW_PBE Ba_sv 06Sep2000                                             
   LULTRA =        F    use ultrasoft PP ?                                      
   IUNSCR =        1    unscreen: 0-lin 1-nonlin 2-no                           
   RPACOR =    2.400    partial core radius                                     
   POMASS =  137.327; ZVAL   =   10.000    mass and valenz                      
   RCORE  =    2.800    outmost cutoff radius                                   
   RWIGS  =    3.740; RWIGS  =    1.979    wigner-seitz radius (au A)           
   ENMAX  =  187.210; ENMIN  =  140.408 eV                                      
   RCLOC  =    2.516    cutoff for local pot                                    
   LCOR   =        T    correct aug charges                                     
   LPAW   =        T    paw PP                                                  
   EAUG   =  351.165                                                            
   DEXC   =     .000                                                            
   RMAX   =    3.370    core radius for proj-oper                               
   RAUG   =    1.300    factor for augmentation sphere                          
   RDEP   =    2.976    radius for radial grids                                 
   QCUT   =   -3.709; QGAM   =    7.419    optimization parameters              
                                                                                
   Description                                                                  
     l     E      TYP  RCUT    TYP  RCUT                                        
     0   .000     23  2.800                                                     
     0   .000     23  2.800                                                     
     1   .000     23  2.700                                                     
     1  2.000     23  2.700                                                     
     2   .000     23  2.700                                                     
     2   .000     23  2.700                                                     
  local pseudopotential read in
  partial core-charges read in
  atomic valenz-charges read in
  non local Contribution for L=           0  read in
    real space projection operators read in
  non local Contribution for L=           0  read in
    real space projection operators read in
  non local Contribution for L=           1  read in
    real space projection operators read in
  non local Contribution for L=           1  read in
    real space projection operators read in
  non local Contribution for L=           2  read in
    real space projection operators read in
  non local Contribution for L=           2  read in
    real space projection operators read in
    PAW grid and wavefunctions read in
 
   number of l-projection  operators is LMAX  =           6
   number of lm-projection operators is LMMAX =          18
 
 POTCAR:   PAW_PBE Si 05Jan2001                   
   VRHFIN =Si: s2p2                                                             
   LEXCH  = PE                                                                  
   EATOM  =   103.0669 eV,    7.5752 Ry                                         
                                                                                
   TITEL  = PAW_PBE Si 05Jan2001                                                
   LULTRA =        F    use ultrasoft PP ?                                      
   IUNSCR =        1    unscreen: 0-lin 1-nonlin 2-no                           
   RPACOR =    1.500    partial core radius                                     
   POMASS =   28.085; ZVAL   =    4.000    mass and valenz                      
   RCORE  =    1.900    outmost cutoff radius                                   
   RWIGS  =    2.480; RWIGS  =    1.312    wigner-seitz radius (au A)           
   ENMAX  =  245.345; ENMIN  =  184.009 eV                                      
   ICORE  =        2    local potential                                         
   LCOR   =        T    correct aug charges                                     
   LPAW   =        T    paw PP                                                  
   EAUG   =  322.069                                                            
   DEXC   =    -.007                                                            
   RMAX   =    2.944    core radius for proj-oper                               
   RAUG   =    1.300    factor for augmentation sphere                          
   RDEP   =    1.993    radius for radial grids                                 
   QCUT   =   -4.246; QGAM   =    8.493    optimization parameters              
                                                                                
   Description                                                                  
     l     E      TYP  RCUT    TYP  RCUT                                        
     0   .000     23  1.900                                                     
     0   .000     23  1.900                                                     
     1   .000     23  1.900                                                     
     1   .000     23  1.900                                                     
     2   .000      7  1.900                                                     
  local pseudopotential read in
  partial core-charges read in
  atomic valenz-charges read in
  non local Contribution for L=           0  read in
    real space projection operators read in
  non local Contribution for L=           0  read in
    real space projection operators read in
  non local Contribution for L=           1  read in
    real space projection operators read in
  non local Contribution for L=           1  read in
    real space projection operators read in
    PAW grid and wavefunctions read in
 
   number of l-projection  operators is LMAX  =           4
   number of lm-projection operators is LMMAX =           8
 
 Optimization of the real space projectors (new method)

 maximal supplied QI-value         = 13.42
 optimisation between [QCUT,QGAM] = [ 11.40, 22.81] = [ 36.42,145.68] Ry 
 Optimized for a Real-space Cutoff    1.56 Angstroem

   l    n(q)    QCUT    max X(q) W(low)/X(q) W(high)/X(q)  e(spline) 
   0     11    11.404     7.198    0.14E-04    0.26E-04    0.99E-07
   0     11    11.404    15.603    0.29E-04    0.72E-04    0.44E-06
   1     10    11.404     3.746    0.20E-04    0.24E-04    0.43E-07
   1     10    11.404     4.362    0.22E-03    0.97E-04    0.22E-06
   2     10    11.404     5.782    0.83E-04    0.62E-05    0.27E-06
   2     10    11.404    65.505    0.42E-03    0.31E-04    0.12E-05
 Optimization of the real space projectors (new method)

 maximal supplied QI-value         = 19.84
 optimisation between [QCUT,QGAM] = [ 11.31, 22.82] = [ 35.82,145.81] Ry 
 Optimized for a Real-space Cutoff    1.16 Angstroem

   l    n(q)    QCUT    max X(q) W(low)/X(q) W(high)/X(q)  e(spline) 
   0      8    11.310     8.708    0.14E-04    0.11E-04    0.43E-08
   0      8    11.310   106.241    0.27E-03    0.30E-03    0.38E-07
   1      7    11.310     5.901    0.82E-05    0.48E-04    0.19E-07
   1      7    11.310    73.241    0.27E-03    0.27E-03    0.74E-07

 ----------------------------------------------------------------------------- 
|                                                                             |
|  ADVICE TO THIS USER RUNNING 'VASP/VAMP'   (HEAR YOUR MASTER'S VOICE ...):  |
|                                                                             |
|      You enforced a specific xc-type in the INCAR file,                     |
|      a different type was found on the POTCAR file                          |
|          I HOPE YOU KNOW, WHAT YOU ARE  DOING                               |
|                                                                             |
 ----------------------------------------------------------------------------- 

 PAW_PBE Ba_sv 06Sep2000                :
 energy of atom  1       EATOM= -700.2255
 kinetic energy error for atom=    0.0005 (will be added to EATOM!!)
 PAW_PBE Si 05Jan2001                   :
 energy of atom  2       EATOM= -103.0669
 kinetic energy error for atom=    0.0006 (will be added to EATOM!!)
 
 
 POSCAR: ba8 si16                                
  positions in direct lattice
  velocities in cartesian coordinates
 exchange correlation table for  LEXCH =       43
   RHO(1)=    0.500       N(1)  =     2000
   RHO(2)=  100.500       N(2)  =     4000
 


--------------------------------------------------------------------------------------------------------


 ion  position               nearest neighbor table
   1  0.015  0.250  0.692-  24 3.37  18 3.37  13 3.40  10 3.40  16 3.42  11 3.42  21 3.53  17 3.61
                            17 3.61   5 4.37   5 4.37   7 4.37   4 4.65   4 4.65
   2  0.985  0.750  0.308-  23 3.37  17 3.37   9 3.40  14 3.40  12 3.42  15 3.42  22 3.53  18 3.61
                            18 3.61   6 4.37   6 4.37   8 4.37   3 4.65   3 4.65
   3  0.485  0.750  0.192-  22 3.37  20 3.37  12 3.40  15 3.40   9 3.42  14 3.42  23 3.53  19 3.61
                            19 3.61   7 4.37   7 4.37   5 4.37   2 4.65   2 4.65
   4  0.515  0.250  0.808-  21 3.37  19 3.37  16 3.40  11 3.40  13 3.42  10 3.42  24 3.53  20 3.61
                            20 3.61   8 4.37   8 4.37   6 4.37   1 4.65   1 4.65
   5  0.161  0.750  0.907-  10 3.43  13 3.43  21 3.44  21 3.44  11 3.48  16 3.48  22 3.51   9 3.52
                            14 3.52  17 3.70  20 3.75   1 4.37   1 4.37   3 4.37
   6  0.839  0.250  0.093-  14 3.43   9 3.43  22 3.44  22 3.44  15 3.48  12 3.48  21 3.51  13 3.52
                            10 3.52  18 3.70  19 3.75   2 4.37   2 4.37   4 4.37
   7  0.339  0.250  0.407-  15 3.43  12 3.43  23 3.44  23 3.44  14 3.48   9 3.48  24 3.51  16 3.52
                            11 3.52  19 3.70  18 3.75   3 4.37   3 4.37   1 4.37
   8  0.661  0.750  0.593-  11 3.43  16 3.43  24 3.44  24 3.44  10 3.48  13 3.48  23 3.51  12 3.52
                            15 3.52  20 3.70  17 3.75   4 4.37   4 4.37   2 4.37
   9  0.193  0.071  0.146-  14 2.41  21 2.41  19 2.43   2 3.40   3 3.42   6 3.43   7 3.48   5 3.52

  10  0.807  0.929  0.854-  13 2.41  22 2.41  20 2.43   1 3.40   4 3.42   5 3.43   8 3.48   6 3.52

  11  0.307  0.929  0.646-  16 2.41  23 2.41  17 2.43   4 3.40   1 3.42   8 3.43   5 3.48   7 3.52

  12  0.693  0.071  0.354-  15 2.41  24 2.41  18 2.43   3 3.40   2 3.42   7 3.43   6 3.48   8 3.52

  13  0.807  0.571  0.854-  10 2.41  22 2.41  20 2.43   1 3.40   4 3.42   5 3.43   8 3.48   6 3.52

  14  0.193  0.429  0.146-   9 2.41  21 2.41  19 2.43   2 3.40   3 3.42   6 3.43   7 3.48   5 3.52

  15  0.693  0.429  0.354-  12 2.41  24 2.41  18 2.43   3 3.40   2 3.42   7 3.43   6 3.48   8 3.52

  16  0.307  0.571  0.646-  11 2.41  23 2.41  17 2.43   4 3.40   1 3.42   8 3.43   5 3.48   7 3.52

  17  0.081  0.750  0.591-  11 2.43  16 2.43  23 2.45   2 3.37   1 3.61   1 3.61   5 3.70   8 3.75

  18  0.919  0.250  0.409-  15 2.43  12 2.43  24 2.45   1 3.37   2 3.61   2 3.61   6 3.70   7 3.75

  19  0.419  0.250  0.091-  14 2.43   9 2.43  21 2.45   4 3.37   3 3.61   3 3.61   7 3.70   6 3.75

  20  0.581  0.750  0.909-  10 2.43  13 2.43  22 2.45   3 3.37   4 3.61   4 3.61   8 3.70   5 3.75

  21  0.196  0.250  0.965-  14 2.41   9 2.41  19 2.45   4 3.37   5 3.44   5 3.44   6 3.51   1 3.53

  22  0.804  0.750  0.035-  10 2.41  13 2.41  20 2.45   3 3.37   6 3.44   6 3.44   5 3.51   2 3.53

  23  0.304  0.750  0.465-  11 2.41  16 2.41  17 2.45   2 3.37   7 3.44   7 3.44   8 3.51   3 3.53

  24  0.696  0.250  0.535-  15 2.41  12 2.41  18 2.45   1 3.37   8 3.44   8 3.44   7 3.51   4 3.53

 
  LATTYP: Found a simple orthorhombic cell.
 ALAT       =     6.7268619782
 B/A-ratio  =     1.3242817429
 C/A-ratio  =     1.7103982072
  
  Lattice vectors:
  
 A1 = (   0.0000000000,  -6.7268619782,   0.0000000000)
 A2 = (  -8.9082605047,   0.0000000000,   0.0000000000)
 A3 = (   0.0000000000,   0.0000000000, -11.5056126680)


Analysis of symmetry for initial positions (statically):
=====================================================================
 Subroutine PRICEL returns:
 Original cell was already a primitive cell.
 

 Routine SETGRP: Setting up the symmetry group for a 
 simple orthorhombic supercell.


 Subroutine GETGRP returns: Found  8 space group operations
 (whereof  2 operations were pure point group operations)
 out of a pool of  8 trial point group operations.


The static configuration has the point symmetry S_2 .
 The point group associated with its full space group is D_2h.


Analysis of symmetry for dynamics (positions and initial velocities):
=====================================================================
 Subroutine PRICEL returns:
 Original cell was already a primitive cell.
 

 Routine SETGRP: Setting up the symmetry group for a 
 simple orthorhombic supercell.


 Subroutine GETGRP returns: Found  8 space group operations
 (whereof  2 operations were pure point group operations)
 out of a pool of  8 trial point group operations.


The dynamic configuration has the point symmetry S_2 .
 The point group associated with its full space group is D_2h.


 Subroutine INISYM returns: Found  8 space group operations
 (whereof  2 operations are pure point group operations),
 and found     1 'primitive' translations

 
 
 KPOINTS: k-density: 8.0                          

Automatic generation of k-mesh.
Space group operators:
 irot       det(A)        alpha          n_x          n_y          n_z        tau_x        tau_y        tau_z
    1     1.000000     0.000000     1.000000     0.000000     0.000000     0.000000     0.000000     0.000000
    2    -1.000000     0.000000     1.000000     0.000000     0.000000     0.000000     0.000000     0.000000
    3     1.000000   180.000000     0.000000     0.000000     1.000000    -0.500000     0.000000    -0.500000
    4    -1.000000   180.000000     0.000000     0.000000     1.000000    -0.500000     0.000000    -0.500000
    5     1.000000   180.000000     1.000000     0.000000     0.000000    -0.500000    -0.500000    -0.500000
    6    -1.000000   180.000000     1.000000     0.000000     0.000000    -0.500000    -0.500000    -0.500000
    7     1.000000   180.000000     0.000000     1.000000     0.000000    -0.000000    -0.500000    -0.000000
    8    -1.000000   180.000000     0.000000     1.000000     0.000000     0.000000    -0.500000     0.000000
 
 Subroutine IBZKPT returns following result:
 ===========================================
 
 Found     60 irreducible k-points:
 
 Following reciprocal coordinates:
            Coordinates               Weight
  0.000000  0.000000  0.000000      1.000000
  0.166667  0.000000  0.000000      2.000000
  0.333333  0.000000  0.000000      2.000000
  0.500000  0.000000  0.000000      1.000000
  0.000000  0.125000  0.000000      2.000000
  0.166667  0.125000  0.000000      4.000000
  0.333333  0.125000  0.000000      4.000000
  0.500000  0.125000  0.000000      2.000000
  0.000000  0.250000  0.000000      2.000000
  0.166667  0.250000  0.000000      4.000000
  0.333333  0.250000  0.000000      4.000000
  0.500000  0.250000  0.000000      2.000000
  0.000000  0.375000  0.000000      2.000000
  0.166667  0.375000  0.000000      4.000000
  0.333333  0.375000  0.000000      4.000000
  0.500000  0.375000  0.000000      2.000000
  0.000000  0.500000  0.000000      1.000000
  0.166667  0.500000  0.000000      2.000000
  0.333333  0.500000  0.000000      2.000000
  0.500000  0.500000  0.000000      1.000000
  0.000000  0.000000  0.200000      2.000000
  0.166667  0.000000  0.200000      4.000000
  0.333333  0.000000  0.200000      4.000000
  0.500000  0.000000  0.200000      2.000000
  0.000000  0.125000  0.200000      4.000000
  0.166667  0.125000  0.200000      8.000000
  0.333333  0.125000  0.200000      8.000000
  0.500000  0.125000  0.200000      4.000000
  0.000000  0.250000  0.200000      4.000000
  0.166667  0.250000  0.200000      8.000000
  0.333333  0.250000  0.200000      8.000000
  0.500000  0.250000  0.200000      4.000000
  0.000000  0.375000  0.200000      4.000000
  0.166667  0.375000  0.200000      8.000000
  0.333333  0.375000  0.200000      8.000000
  0.500000  0.375000  0.200000      4.000000
  0.000000  0.500000  0.200000      2.000000
  0.166667  0.500000  0.200000      4.000000
  0.333333  0.500000  0.200000      4.000000
  0.500000  0.500000  0.200000      2.000000
  0.000000  0.000000  0.400000      2.000000
  0.166667  0.000000  0.400000      4.000000
  0.333333  0.000000  0.400000      4.000000
  0.500000  0.000000  0.400000      2.000000
  0.000000  0.125000  0.400000      4.000000
  0.166667  0.125000  0.400000      8.000000
  0.333333  0.125000  0.400000      8.000000
  0.500000  0.125000  0.400000      4.000000
  0.000000  0.250000  0.400000      4.000000
  0.166667  0.250000  0.400000      8.000000
  0.333333  0.250000  0.400000      8.000000
  0.500000  0.250000  0.400000      4.000000
  0.000000  0.375000  0.400000      4.000000
  0.166667  0.375000  0.400000      8.000000
  0.333333  0.375000  0.400000      8.000000
  0.500000  0.375000  0.400000      4.000000
  0.000000  0.500000  0.400000      2.000000
  0.166667  0.500000  0.400000      4.000000
  0.333333  0.500000  0.400000      4.000000
  0.500000  0.500000  0.400000      2.000000
 
 Following cartesian coordinates:
            Coordinates               Weight
  0.000000  0.000000  0.000000      1.000000
  0.018709  0.000000  0.000000      2.000000
  0.037418  0.000000  0.000000      2.000000
  0.056128  0.000000  0.000000      1.000000
  0.000000  0.018582  0.000000      2.000000
  0.018709  0.018582  0.000000      4.000000
  0.037418  0.018582  0.000000      4.000000
  0.056128  0.018582  0.000000      2.000000
  0.000000  0.037164  0.000000      2.000000
  0.018709  0.037164  0.000000      4.000000
  0.037418  0.037164  0.000000      4.000000
  0.056128  0.037164  0.000000      2.000000
  0.000000  0.055747  0.000000      2.000000
  0.018709  0.055747  0.000000      4.000000
  0.037418  0.055747  0.000000      4.000000
  0.056128  0.055747  0.000000      2.000000
  0.000000  0.074329  0.000000      1.000000
  0.018709  0.074329  0.000000      2.000000
  0.037418  0.074329  0.000000      2.000000
  0.056128  0.074329  0.000000      1.000000
  0.000000  0.000000  0.017383      2.000000
  0.018709  0.000000  0.017383      4.000000
  0.037418  0.000000  0.017383      4.000000
  0.056128  0.000000  0.017383      2.000000
  0.000000  0.018582  0.017383      4.000000
  0.018709  0.018582  0.017383      8.000000
  0.037418  0.018582  0.017383      8.000000
  0.056128  0.018582  0.017383      4.000000
  0.000000  0.037164  0.017383      4.000000
  0.018709  0.037164  0.017383      8.000000
  0.037418  0.037164  0.017383      8.000000
  0.056128  0.037164  0.017383      4.000000
  0.000000  0.055747  0.017383      4.000000
  0.018709  0.055747  0.017383      8.000000
  0.037418  0.055747  0.017383      8.000000
  0.056128  0.055747  0.017383      4.000000
  0.000000  0.074329  0.017383      2.000000
  0.018709  0.074329  0.017383      4.000000
  0.037418  0.074329  0.017383      4.000000
  0.056128  0.074329  0.017383      2.000000
  0.000000  0.000000  0.034766      2.000000
  0.018709  0.000000  0.034766      4.000000
  0.037418  0.000000  0.034766      4.000000
  0.056128  0.000000  0.034766      2.000000
  0.000000  0.018582  0.034766      4.000000
  0.018709  0.018582  0.034766      8.000000
  0.037418  0.018582  0.034766      8.000000
  0.056128  0.018582  0.034766      4.000000
  0.000000  0.037164  0.034766      4.000000
  0.018709  0.037164  0.034766      8.000000
  0.037418  0.037164  0.034766      8.000000
  0.056128  0.037164  0.034766      4.000000
  0.000000  0.055747  0.034766      4.000000
  0.018709  0.055747  0.034766      8.000000
  0.037418  0.055747  0.034766      8.000000
  0.056128  0.055747  0.034766      4.000000
  0.000000  0.074329  0.034766      2.000000
  0.018709  0.074329  0.034766      4.000000
  0.037418  0.074329  0.034766      4.000000
  0.056128  0.074329  0.034766      2.000000
 
 TETIRR: Found    720 inequivalent tetrahedra from     1440


--------------------------------------------------------------------------------------------------------




 Dimension of arrays:
   k-points           NKPTS =     60   k-points in BZ     NKDIM =     60   number of bands    NBANDS=     88
   number of dos      NEDOS =   2801   number of ions     NIONS =     24
   non local maximal  LDIM  =      6   non local SUM 2l+1 LMDIM =     18
   total plane-waves  NPLWV = 128000
   max r-space proj   IRMAX =   3026   max aug-charges    IRDMAX=  11819
   dimension x,y,z NGX =    50 NGY =   40 NGZ =   64
   dimension x,y,z NGXF=   100 NGYF=   80 NGZF=  128
   support grid    NGXF=   100 NGYF=   80 NGZF=  128
   ions per type =               8  16
   NGX,Y,Z   is equivalent  to a cutoff of   9.33,  9.89,  9.25 a.u.
   NGXF,Y,Z  is equivalent  to a cutoff of  18.66, 19.77, 18.49 a.u.

 SYSTEM =  unknown system                          
 POSCAR =  ba8 si16                                

 Startparameter for this run:
   NWRITE =      2    write-flag & timer
   PREC   = normal    normal or accurate (medium, high low for compatibility)
   ISTART =      0    job   : 0-new  1-cont  2-samecut
   ICHARG =     11    charge: 1-file 2-atom 10-const
   ISPIN  =      1    spin polarized calculation?
   LNONCOLLINEAR =      F non collinear calculations
   LSORBIT =      F    spin-orbit coupling
   INIWAV =      1    electr: 0-lowe 1-rand  2-diag
   LASPH  =      T    aspherical Exc in radial PAW
   METAGGA=      F    non-selfconsistent MetaGGA calc.

 Electronic Relaxation 1
   ENCUT  =  500.0 eV  36.75 Ry    6.06 a.u.  16.24 12.26 20.98*2*pi/ulx,y,z
   ENINI  =  500.0     initial cutoff
   ENAUG  =  351.2 eV  augmentation charge cutoff
   NELM   =    100;   NELMIN=  2; NELMDL= -5     # of ELM steps 
   EDIFF  = 0.1E-05   stopping-criterion for ELM
   LREAL  =      T    real-space projection
   NLSPLINE    = F    spline interpolate recip. space projectors
   LCOMPAT=      F    compatible to vasp.4.4
   GGA_COMPAT  = T    GGA compatible to vasp.4.4-vasp.4.6
   LMAXPAW     = -100 max onsite density
   LMAXMIX     =    2 max onsite mixed and CHGCAR
   VOSKOWN=      0    Vosko Wilk Nusair interpolation
   ROPT   =   -0.00050  -0.00050
 Ionic relaxation
   EDIFFG = -.1E-01   stopping-criterion for IOM
   NSW    =      0    number of steps for IOM
   NBLOCK =      1;   KBLOCK =      1    inner block; outer block 
   IBRION =     -1    ionic relax: 0-MD 1-quasi-New 2-CG
   NFREE  =      0    steps in history (QN), initial steepest desc. (CG)
   ISIF   =      2    stress and relaxation
   IWAVPR =     10    prediction:  0-non 1-charg 2-wave 3-comb
   ISYM   =      2    0-nonsym 1-usesym 2-fastsym
   LCORR  =      T    Harris-Foulkes like correction to forces

   POTIM  = 0.3000    time-step for ionic-motion
   TEIN   =    0.0    initial temperature
   TEBEG  =    0.0;   TEEND  =   0.0 temperature during run
   SMASS  =  -3.00    Nose mass-parameter (am)
   estimated Nose-frequenzy (Omega)   =  0.10E-29 period in steps =****** mass=  -0.181E-26a.u.
   SCALEE = 1.0000    scale energy and forces
   NPACO  =    256;   APACO  = 16.0  distance and # of slots for P.C.
   PSTRESS=    0.0 pullay stress

  Mass of Ions in am
   POMASS = 137.33 28.09
  Ionic Valenz
   ZVAL   =  10.00  4.00
  Atomic Wigner-Seitz radii
   RWIGS  =  -1.00 -1.00
  virtual crystal weights 
   VCA    =   1.00  1.00
   NELECT =     144.0000    total number of electrons
   NUPDOWN=      -1.0000    fix difference up-down

 DOS related values:
   EMIN   = -10.00;   EMAX   = 18.00  energy-range for DOS
   EFERMI =   0.00
   ISMEAR =    -5;   SIGMA  =   0.01  broadening in eV -4-tet -1-fermi 0-gaus

 Electronic relaxation 2 (details)
   IALGO  =     38    algorithm
   LDIAG  =      T    sub-space diagonalisation (order eigenvalues)
   LSUBROT=      F    optimize rotation matrix (better conditioning)
   TURBO    =      0    0=normal 1=particle mesh
   IRESTART =      0    0=no restart 2=restart with 2 vectors
   NREBOOT  =      0    no. of reboots
   NMIN     =      0    reboot dimension
   EREF     =   0.00    reference energy to select bands
   IMIX   =      4    mixing-type and parameters
     AMIX     =   0.40;   BMIX     =  1.00
     AMIX_MAG =   1.60;   BMIX_MAG =  1.00
     AMIN     =   0.10
     WC   =   100.;   INIMIX=   1;  MIXPRE=   1;  MAXMIX= -45

 Intra band minimization:
   WEIMIN = 0.0000     energy-eigenvalue tresh-hold
   EBREAK =  0.28E-08  absolut break condition
   DEPER  =   0.30     relativ break condition  

   TIME   =   0.40     timestep for ELM

  volume/ion in A,a.u.               =      28.73       193.87
  Fermi-wavevector in a.u.,A,eV,Ry     =   0.971309  1.835507 12.836288  0.943441
  Thomas-Fermi vector in A             =   2.101515
 
 Write flags
   LWAVE        =      T    write WAVECAR
   LDOWNSAMPLE  =      F    k-point downsampling of WAVECAR
   LCHARG       =      T    write CHGCAR
   LVTOT        =      F    write LOCPOT, total local potential
   LVHAR        =      F    write LOCPOT, Hartree potential only
   LELF         =      F    write electronic localiz. function (ELF)
   LORBIT       =     11    0 simple, 1 ext, 2 COOP (PROOUT), +10 PAW based schemes


 Dipole corrections
   LMONO  =      F    monopole corrections only (constant potential shift)
   LDIPOL =      F    correct potential (dipole corrections)
   IDIPOL =      0    1-x, 2-y, 3-z, 4-all directions 
   EPSILON=  1.0000000 bulk dielectric constant

 Exchange correlation treatment:
   GGA     =    MK    GGA type
   LEXCH   =    43    internal setting for exchange type
   VOSKOWN=      0    Vosko Wilk Nusair interpolation
   LHFCALC =     F    Hartree Fock is set to
   LHFONE  =     F    Hartree Fock one center treatment
   AEXX    =    0.0000 exact exchange contribution

 vdW DFT:
   LUSE_VDW   =     T    switch on vdW DFT
   Zab_VDW    =******    correlation parameter
   PARAM1     =0.1234
   PARAM2     =0.7114
   PARAM3     =0.0000
   -- rVV10 --
   BPARAM     = 6.3000
   CPARAM     = 0.0093

 Linear response parameters
   LEPSILON=     F    determine dielectric tensor
   LRPA    =     F    only Hartree local field effects (RPA)
   LNABLA  =     F    use nabla operator in PAW spheres
   LVEL    =     F    velocity operator in full k-point grid
   LINTERFAST=   F  fast interpolation
   KINTER  =     0    interpolate to denser k-point grid
   CSHIFT  =0.1000    complex shift for real part using Kramers Kronig
   OMEGAMAX=  -1.0    maximum frequency
   DEG_THRESHOLD= 0.2000000E-02 threshold for treating states as degnerate
   RTIME   =   -0.100 relaxation time in fs
  (WPLASMAI=    0.000 imaginary part of plasma frequency in eV, 0.658/RTIME)
   DFIELD  = 0.0000000 0.0000000 0.0000000 field for delta impulse in time
 
 Orbital magnetization related:
   ORBITALMAG=     F  switch on orbital magnetization
   LCHIMAG   =     F  perturbation theory with respect to B field
   DQ        =  0.001000  dq finite difference perturbation B field
   LLRAUG    =     F  two centre corrections for induced B field



--------------------------------------------------------------------------------------------------------


 Static calculation
 charge density and potential remain constant during run
 non-spin polarized calculation
 Variant of blocked Davidson
 Davidson routine will perform the subspace rotation
 perform sub-space diagonalisation
    after iterative eigenvector-optimisation
 no mixing
 using additional bands           16
 real space projection scheme for non local part
 use partial core corrections
 calculate Harris-corrections to forces 
   (improved forces if not selfconsistent)
 use gradient corrections 
 WARNING: stress and forces are not correct
  (second derivative of E(xc) not defined)
 use of overlap-Matrix (Vanderbilt PP)
 Fermi weights with tetrahedron method with Bloechl corrections


--------------------------------------------------------------------------------------------------------


  energy-cutoff  :      500.00
  volume of cell :      689.47
      direct lattice vectors                 reciprocal lattice vectors
     8.908260505  0.000000000  0.000000000     0.112255361  0.000000000  0.000000000
     0.000000000  6.726861978  0.000000000     0.000000000  0.148657725  0.000000000
     0.000000000  0.000000000 11.505612668     0.000000000  0.000000000  0.086914103

  length of vectors
     8.908260505  6.726861978 11.505612668     0.112255361  0.148657725  0.086914103


 
 k-points in units of 2pi/SCALE and weight: k-density: 8.0                          
   0.00000000  0.00000000  0.00000000       0.004
   0.01870923  0.00000000  0.00000000       0.008
   0.03741845  0.00000000  0.00000000       0.008
   0.05612768  0.00000000  0.00000000       0.004
   0.00000000  0.01858222  0.00000000       0.008
   0.01870923  0.01858222  0.00000000       0.017
   0.03741845  0.01858222  0.00000000       0.017
   0.05612768  0.01858222  0.00000000       0.008
   0.00000000  0.03716443  0.00000000       0.008
   0.01870923  0.03716443  0.00000000       0.017
   0.03741845  0.03716443  0.00000000       0.017
   0.05612768  0.03716443  0.00000000       0.008
   0.00000000  0.05574665  0.00000000       0.008
   0.01870923  0.05574665  0.00000000       0.017
   0.03741845  0.05574665  0.00000000       0.017
   0.05612768  0.05574665  0.00000000       0.008
   0.00000000  0.07432886  0.00000000       0.004
   0.01870923  0.07432886  0.00000000       0.008
   0.03741845  0.07432886  0.00000000       0.008
   0.05612768  0.07432886  0.00000000       0.004
   0.00000000  0.00000000  0.01738282       0.008
   0.01870923  0.00000000  0.01738282       0.017
   0.03741845  0.00000000  0.01738282       0.017
   0.05612768  0.00000000  0.01738282       0.008
   0.00000000  0.01858222  0.01738282       0.017
   0.01870923  0.01858222  0.01738282       0.033
   0.03741845  0.01858222  0.01738282       0.033
   0.05612768  0.01858222  0.01738282       0.017
   0.00000000  0.03716443  0.01738282       0.017
   0.01870923  0.03716443  0.01738282       0.033
   0.03741845  0.03716443  0.01738282       0.033
   0.05612768  0.03716443  0.01738282       0.017
   0.00000000  0.05574665  0.01738282       0.017
   0.01870923  0.05574665  0.01738282       0.033
   0.03741845  0.05574665  0.01738282       0.033
   0.05612768  0.05574665  0.01738282       0.017
   0.00000000  0.07432886  0.01738282       0.008
   0.01870923  0.07432886  0.01738282       0.017
   0.03741845  0.07432886  0.01738282       0.017
   0.05612768  0.07432886  0.01738282       0.008
   0.00000000  0.00000000  0.03476564       0.008
   0.01870923  0.00000000  0.03476564       0.017
   0.03741845  0.00000000  0.03476564       0.017
   0.05612768  0.00000000  0.03476564       0.008
   0.00000000  0.01858222  0.03476564       0.017
   0.01870923  0.01858222  0.03476564       0.033
   0.03741845  0.01858222  0.03476564       0.033
   0.05612768  0.01858222  0.03476564       0.017
   0.00000000  0.03716443  0.03476564       0.017
   0.01870923  0.03716443  0.03476564       0.033
   0.03741845  0.03716443  0.03476564       0.033
   0.05612768  0.03716443  0.03476564       0.017
   0.00000000  0.05574665  0.03476564       0.017
   0.01870923  0.05574665  0.03476564       0.033
   0.03741845  0.05574665  0.03476564       0.033
   0.05612768  0.05574665  0.03476564       0.017
   0.00000000  0.07432886  0.03476564       0.008
   0.01870923  0.07432886  0.03476564       0.017
   0.03741845  0.07432886  0.03476564       0.017
   0.05612768  0.07432886  0.03476564       0.008
 
 k-points in reciprocal lattice and weights: k-density: 8.0                          
   0.00000000  0.00000000  0.00000000       0.004
   0.16666667  0.00000000  0.00000000       0.008
   0.33333333  0.00000000  0.00000000       0.008
   0.50000000  0.00000000  0.00000000       0.004
   0.00000000  0.12500000  0.00000000       0.008
   0.16666667  0.12500000  0.00000000       0.017
   0.33333333  0.12500000  0.00000000       0.017
   0.50000000  0.12500000  0.00000000       0.008
   0.00000000  0.25000000  0.00000000       0.008
   0.16666667  0.25000000  0.00000000       0.017
   0.33333333  0.25000000  0.00000000       0.017
   0.50000000  0.25000000  0.00000000       0.008
   0.00000000  0.37500000  0.00000000       0.008
   0.16666667  0.37500000  0.00000000       0.017
   0.33333333  0.37500000  0.00000000       0.017
   0.50000000  0.37500000  0.00000000       0.008
   0.00000000  0.50000000  0.00000000       0.004
   0.16666667  0.50000000  0.00000000       0.008
   0.33333333  0.50000000  0.00000000       0.008
   0.50000000  0.50000000  0.00000000       0.004
   0.00000000  0.00000000  0.20000000       0.008
   0.16666667  0.00000000  0.20000000       0.017
   0.33333333  0.00000000  0.20000000       0.017
   0.50000000  0.00000000  0.20000000       0.008
   0.00000000  0.12500000  0.20000000       0.017
   0.16666667  0.12500000  0.20000000       0.033
   0.33333333  0.12500000  0.20000000       0.033
   0.50000000  0.12500000  0.20000000       0.017
   0.00000000  0.25000000  0.20000000       0.017
   0.16666667  0.25000000  0.20000000       0.033
   0.33333333  0.25000000  0.20000000       0.033
   0.50000000  0.25000000  0.20000000       0.017
   0.00000000  0.37500000  0.20000000       0.017
   0.16666667  0.37500000  0.20000000       0.033
   0.33333333  0.37500000  0.20000000       0.033
   0.50000000  0.37500000  0.20000000       0.017
   0.00000000  0.50000000  0.20000000       0.008
   0.16666667  0.50000000  0.20000000       0.017
   0.33333333  0.50000000  0.20000000       0.017
   0.50000000  0.50000000  0.20000000       0.008
   0.00000000  0.00000000  0.40000000       0.008
   0.16666667  0.00000000  0.40000000       0.017
   0.33333333  0.00000000  0.40000000       0.017
   0.50000000  0.00000000  0.40000000       0.008
   0.00000000  0.12500000  0.40000000       0.017
   0.16666667  0.12500000  0.40000000       0.033
   0.33333333  0.12500000  0.40000000       0.033
   0.50000000  0.12500000  0.40000000       0.017
   0.00000000  0.25000000  0.40000000       0.017
   0.16666667  0.25000000  0.40000000       0.033
   0.33333333  0.25000000  0.40000000       0.033
   0.50000000  0.25000000  0.40000000       0.017
   0.00000000  0.37500000  0.40000000       0.017
   0.16666667  0.37500000  0.40000000       0.033
   0.33333333  0.37500000  0.40000000       0.033
   0.50000000  0.37500000  0.40000000       0.017
   0.00000000  0.50000000  0.40000000       0.008
   0.16666667  0.50000000  0.40000000       0.017
   0.33333333  0.50000000  0.40000000       0.017
   0.50000000  0.50000000  0.40000000       0.008
 
 position of ions in fractional coordinates (direct lattice) 
   0.01536406  0.25000000  0.69213186
   0.98463594  0.75000002  0.30786814
   0.48463594  0.75000002  0.19213180
   0.51536406  0.25000000  0.80786818
   0.16070224  0.75000002  0.90650282
   0.83929776  0.25000000  0.09349716
   0.33929776  0.25000000  0.40650290
   0.66070224  0.75000002  0.59349714
   0.19345800  0.07100390  0.14637424
   0.80654200  0.92899609  0.85362574
   0.30654200  0.92899609  0.64637426
   0.69345800  0.07100390  0.35362574
   0.80654200  0.57100391  0.85362574
   0.19345800  0.42899609  0.14637424
   0.69345800  0.42899609  0.35362574
   0.30654200  0.57100391  0.64637426
   0.08126801  0.75000002  0.59096745
   0.91873197  0.25000000  0.40903255
   0.41873200  0.25000000  0.09096738
   0.58126803  0.75000002  0.90903260
   0.19639773  0.25000000  0.96492478
   0.80360225  0.75000002  0.03507524
   0.30360225  0.75000002  0.46492469
   0.69639775  0.25000000  0.53507522
 
 position of ions in cartesian coordinates  (Angst):
   0.13686706  1.68171550  7.96340108
   8.77139347  5.04514660  3.54221158
   4.31726322  5.04514660  2.21059404
   4.59099728  1.68171550  9.29501839
   1.43157740  5.04514660 10.42987033
   7.47668311  1.68171550  1.07574210
   3.02255286  1.68171550  4.67706494
   5.88570765  5.04514660  6.82854820
   1.72337424  0.47763344  1.68412533
   7.18488627  6.24922848  9.82148710
   2.73075602  6.24922848  7.43693190
   6.17750449  0.47763344  4.06868076
   7.18488627  3.84106449  9.82148710
   1.72337424  2.88579749  1.68412533
   6.17750449  2.88579749  4.06868076
   2.73075602  3.84106449  7.43693190
   0.72395658  5.04514660  6.79944253
   8.18430375  1.68171550  4.70617014
   3.73017373  1.68171550  1.04663549
   5.17808701  5.04514660 10.45897694
   1.74956216  1.68171550 11.10205074
   7.15869822  5.04514660  0.40356211
   2.70456797  5.04514660  5.34924346
   6.20369253  1.68171550  6.15636826
 


--------------------------------------------------------------------------------------------------------


 k-point  1 :   0.0000 0.0000 0.0000  plane waves:   17581
 k-point  2 :   0.1667 0.0000 0.0000  plane waves:   17499
 k-point  3 :   0.3333 0.0000 0.0000  plane waves:   17506
 k-point  4 :   0.5000 0.0000 0.0000  plane waves:   17512
 k-point  5 :   0.0000 0.1250 0.0000  plane waves:   17509
 k-point  6 :   0.1667 0.1250 0.0000  plane waves:   17504
 k-point  7 :   0.3333 0.1250 0.0000  plane waves:   17494
 k-point  8 :   0.5000 0.1250 0.0000  plane waves:   17504
 k-point  9 :   0.0000 0.2500 0.0000  plane waves:   17487
 k-point 10 :   0.1667 0.2500 0.0000  plane waves:   17490
 k-point 11 :   0.3333 0.2500 0.0000  plane waves:   17479
 k-point 12 :   0.5000 0.2500 0.0000  plane waves:   17478
 k-point 13 :   0.0000 0.3750 0.0000  plane waves:   17476
 k-point 14 :   0.1667 0.3750 0.0000  plane waves:   17495
 k-point 15 :   0.3333 0.3750 0.0000  plane waves:   17485
 k-point 16 :   0.5000 0.3750 0.0000  plane waves:   17506
 k-point 17 :   0.0000 0.5000 0.0000  plane waves:   17492
 k-point 18 :   0.1667 0.5000 0.0000  plane waves:   17500
 k-point 19 :   0.3333 0.5000 0.0000  plane waves:   17484
 k-point 20 :   0.5000 0.5000 0.0000  plane waves:   17468
 k-point 21 :   0.0000 0.0000 0.2000  plane waves:   17520
 k-point 22 :   0.1667 0.0000 0.2000  plane waves:   17514
 k-point 23 :   0.3333 0.0000 0.2000  plane waves:   17506
 k-point 24 :   0.5000 0.0000 0.2000  plane waves:   17514
 k-point 25 :   0.0000 0.1250 0.2000  plane waves:   17523
 k-point 26 :   0.1667 0.1250 0.2000  plane waves:   17514
 k-point 27 :   0.3333 0.1250 0.2000  plane waves:   17503
 k-point 28 :   0.5000 0.1250 0.2000  plane waves:   17508
 k-point 29 :   0.0000 0.2500 0.2000  plane waves:   17507
 k-point 30 :   0.1667 0.2500 0.2000  plane waves:   17505
 k-point 31 :   0.3333 0.2500 0.2000  plane waves:   17487
 k-point 32 :   0.5000 0.2500 0.2000  plane waves:   17502
 k-point 33 :   0.0000 0.3750 0.2000  plane waves:   17509
 k-point 34 :   0.1667 0.3750 0.2000  plane waves:   17501
 k-point 35 :   0.3333 0.3750 0.2000  plane waves:   17494
 k-point 36 :   0.5000 0.3750 0.2000  plane waves:   17488
 k-point 37 :   0.0000 0.5000 0.2000  plane waves:   17518
 k-point 38 :   0.1667 0.5000 0.2000  plane waves:   17498
 k-point 39 :   0.3333 0.5000 0.2000  plane waves:   17510
 k-point 40 :   0.5000 0.5000 0.2000  plane waves:   17516
 k-point 41 :   0.0000 0.0000 0.4000  plane waves:   17508
 k-point 42 :   0.1667 0.0000 0.4000  plane waves:   17521
 k-point 43 :   0.3333 0.0000 0.4000  plane waves:   17505
 k-point 44 :   0.5000 0.0000 0.4000  plane waves:   17496
 k-point 45 :   0.0000 0.1250 0.4000  plane waves:   17519
 k-point 46 :   0.1667 0.1250 0.4000  plane waves:   17508
 k-point 47 :   0.3333 0.1250 0.4000  plane waves:   17512
 k-point 48 :   0.5000 0.1250 0.4000  plane waves:   17506
 k-point 49 :   0.0000 0.2500 0.4000  plane waves:   17477
 k-point 50 :   0.1667 0.2500 0.4000  plane waves:   17495
 k-point 51 :   0.3333 0.2500 0.4000  plane waves:   17517
 k-point 52 :   0.5000 0.2500 0.4000  plane waves:   17514
 k-point 53 :   0.0000 0.3750 0.4000  plane waves:   17501
 k-point 54 :   0.1667 0.3750 0.4000  plane waves:   17496
 k-point 55 :   0.3333 0.3750 0.4000  plane waves:   17523
 k-point 56 :   0.5000 0.3750 0.4000  plane waves:   17518
 k-point 57 :   0.0000 0.5000 0.4000  plane waves:   17510
 k-point 58 :   0.1667 0.5000 0.4000  plane waves:   17504
 k-point 59 :   0.3333 0.5000 0.4000  plane waves:   17526
 k-point 60 :   0.5000 0.5000 0.4000  plane waves:   17540

 maximum and minimum number of plane-waves per node :      4426     4336

 maximum number of plane-waves:     17581
 maximum index in each direction: 
   IXMAX=   16   IYMAX=   12   IZMAX=   20
   IXMIN=  -16   IYMIN=  -12   IZMIN=  -21


 real space projection operators:
  total allocation   :       4446.19 KBytes
  max/ min on nodes  :       1156.73       1066.36


 parallel 3D FFT for wavefunctions:
    minimum data exchange during FFTs selected (reduces bandwidth)
 parallel 3D FFT for charge:
    minimum data exchange during FFTs selected (reduces bandwidth)


 total amount of memory used by VASP MPI-rank0    85970. kBytes
=======================================================================

   base      :      30000. kBytes
   nonlr-proj:       2650. kBytes
   fftplans  :       2345. kBytes
   grid      :       3658. kBytes
   one-center:         93. kBytes
   wavefun   :      47224. kBytes
 
     INWAV:  cpu time    0.0001: real time    0.0002
 initial charge density was supplied:
 number of electron     144.0000001 magnetization 
 keeping initial charge density in first step


--------------------------------------------------------------------------------------------------------


 Maximum index for non-local projection operator          860
 Maximum index for augmentation-charges         1209 (set IRDMAX)


--------------------------------------------------------------------------------------------------------


 First call to EWALD:  gamma=   0.201
 Maximum number of real-space cells 3x 3x 2
 Maximum number of reciprocal cells 3x 2x 3

    FEWALD:  cpu time    0.0648: real time    0.0650


--------------------------------------- Iteration      1(   1)  ---------------------------------------


vdW kernel read from vdw_kernel.bindat
  0.0000  0.2424  0.5071  0.7962  1.1119  1.4567  1.8333  2.2446  2.6937  3.1842
  3.7199  4.3049  4.9438  5.6415  6.4036  7.2358  8.1446  9.1372 10.2212 11.4050
 12.6979 14.1099 15.6519 17.3360 19.1751 21.1837 23.3773 25.7729 28.3892 31.2465
 34.3669 37.7748 41.4965 45.5611 50.0000
 
    POTLOK:  cpu time    1.2736: real time    1.3337
    SETDIJ:  cpu time    0.0448: real time    0.0456
     EDDAV:  cpu time    5.4822: real time    5.5410
 BZINTS: Fermi energy: 11.730910;144.000000 electrons
         Band energy: 122.959746;  BLOECHL correction: -0.058424
       DOS:  cpu time    0.0983: real time    0.0990
    --------------------------------------------
      LOOP:  cpu time    6.8990: real time    7.0193

 eigenvalue-minimisations  : 10568
 total energy-change (2. order) : 0.8600749E+03  (-0.5725940E+04)
 number of electron     144.0000001 magnetization 
 augmentation part      144.0000001 magnetization 

 Free energy of the ion-electron system (eV)
  ---------------------------------------------------
  alpha Z        PSCENC =       466.78151634
  Ewald energy   TEWEN  =     -6442.96156159
  -Hartree energ DENC   =      -899.32484706
  -exchange      EXHF   =         0.00000000
  -V(xc)+E(xc)   XCENC  =        49.11024097
  PAW double counting   =      3865.12538590    -3570.76707164
  entropy T*S    EENTRO =         0.00000000
  eigenvalues    EBANDS =       122.95974638
  atomic energy  EATOM  =      7269.15145414
  Solvation  Ediel_sol  =         0.00000000
  ---------------------------------------------------
  free energy    TOTEN  =       860.07486344 eV

  energy without entropy =      860.07486344  energy(sigma->0) =      860.07486344


--------------------------------------------------------------------------------------------------------




--------------------------------------- Iteration      1(   2)  ---------------------------------------


     EDDAV:  cpu time    6.6401: real time    6.6574
 BZINTS: Fermi energy:  4.980188;144.000000 electrons
         Band energy:-751.401658;  BLOECHL correction: -0.000826
       DOS:  cpu time    0.0977: real time    0.0979
    --------------------------------------------
      LOOP:  cpu time    6.7378: real time    6.7553

 eigenvalue-minimisations  : 14296
 total energy-change (2. order) :-0.8743614E+03  (-0.8494635E+03)
 number of electron     144.0000001 magnetization 
 augmentation part      144.0000001 magnetization 

 Free energy of the ion-electron system (eV)
  ---------------------------------------------------
  alpha Z        PSCENC =       466.78151634
  Ewald energy   TEWEN  =     -6442.96156159
  -Hartree energ DENC   =      -899.32484706
  -exchange      EXHF   =         0.00000000
  -V(xc)+E(xc)   XCENC  =        49.11024097
  PAW double counting   =      3865.12538590    -3570.76707164
  entropy T*S    EENTRO =         0.00000000
  eigenvalues    EBANDS =      -751.40165795
  atomic energy  EATOM  =      7269.15145414
  Solvation  Ediel_sol  =         0.00000000
  ---------------------------------------------------
  free energy    TOTEN  =       -14.28654088 eV

  energy without entropy =      -14.28654088  energy(sigma->0) =      -14.28654088


--------------------------------------------------------------------------------------------------------




--------------------------------------- Iteration      1(   3)  ---------------------------------------


     EDDAV:  cpu time    6.4079: real time    6.4252
 BZINTS: Fermi energy:  3.590156;144.000000 electrons
         Band energy:-831.803468;  BLOECHL correction:  0.000000
       DOS:  cpu time    0.0425: real time    0.0426
    --------------------------------------------
      LOOP:  cpu time    6.4504: real time    6.4677

 eigenvalue-minimisations  : 13032
 total energy-change (2. order) :-0.8040181E+02  (-0.7912400E+02)
 number of electron     144.0000001 magnetization 
 augmentation part      144.0000001 magnetization 

 Free energy of the ion-electron system (eV)
  ---------------------------------------------------
  alpha Z        PSCENC =       466.78151634
  Ewald energy   TEWEN  =     -6442.96156159
  -Hartree energ DENC   =      -899.32484706
  -exchange      EXHF   =         0.00000000
  -V(xc)+E(xc)   XCENC  =        49.11024097
  PAW double counting   =      3865.12538590    -3570.76707164
  entropy T*S    EENTRO =         0.00000000
  eigenvalues    EBANDS =      -831.80346799
  atomic energy  EATOM  =      7269.15145414
  Solvation  Ediel_sol  =         0.00000000
  ---------------------------------------------------
  free energy    TOTEN  =       -94.68835092 eV

  energy without entropy =      -94.68835092  energy(sigma->0) =      -94.68835092


--------------------------------------------------------------------------------------------------------




--------------------------------------- Iteration      1(   4)  ---------------------------------------


     EDDAV:  cpu time    7.0030: real time    7.0214
 BZINTS: Fermi energy:  3.560156;144.000000 electrons
         Band energy:-834.487029;  BLOECHL correction:  0.000000
       DOS:  cpu time    0.0421: real time    0.0422
    --------------------------------------------
      LOOP:  cpu time    7.0451: real time    7.0636

 eigenvalue-minimisations  : 15408
 total energy-change (2. order) :-0.2683561E+01  (-0.2674572E+01)
 number of electron     144.0000001 magnetization 
 augmentation part      144.0000001 magnetization 

 Free energy of the ion-electron system (eV)
  ---------------------------------------------------
  alpha Z        PSCENC =       466.78151634
  Ewald energy   TEWEN  =     -6442.96156159
  -Hartree energ DENC   =      -899.32484706
  -exchange      EXHF   =         0.00000000
  -V(xc)+E(xc)   XCENC  =        49.11024097
  PAW double counting   =      3865.12538590    -3570.76707164
  entropy T*S    EENTRO =         0.00000000
  eigenvalues    EBANDS =      -834.48702864
  atomic energy  EATOM  =      7269.15145414
  Solvation  Ediel_sol  =         0.00000000
  ---------------------------------------------------
  free energy    TOTEN  =       -97.37191157 eV

  energy without entropy =      -97.37191157  energy(sigma->0) =      -97.37191157


--------------------------------------------------------------------------------------------------------




--------------------------------------- Iteration      1(   5)  ---------------------------------------


     EDDAV:  cpu time    6.5706: real time    6.5875
 BZINTS: Fermi energy:  3.560156;144.000000 electrons
         Band energy:-834.565262;  BLOECHL correction:  0.000000
       DOS:  cpu time    0.0423: real time    0.0424
    --------------------------------------------
      LOOP:  cpu time    6.6130: real time    6.6300

 eigenvalue-minimisations  : 13744
 total energy-change (2. order) :-0.7823323E-01  (-0.7818149E-01)
 number of electron     144.0000001 magnetization 
 augmentation part      144.0000001 magnetization 

 Free energy of the ion-electron system (eV)
  ---------------------------------------------------
  alpha Z        PSCENC =       466.78151634
  Ewald energy   TEWEN  =     -6442.96156159
  -Hartree energ DENC   =      -899.32484706
  -exchange      EXHF   =         0.00000000
  -V(xc)+E(xc)   XCENC  =        49.11024097
  PAW double counting   =      3865.12538590    -3570.76707164
  entropy T*S    EENTRO =         0.00000000
  eigenvalues    EBANDS =      -834.56526187
  atomic energy  EATOM  =      7269.15145414
  Solvation  Ediel_sol  =         0.00000000
  ---------------------------------------------------
  free energy    TOTEN  =       -97.45014480 eV

  energy without entropy =      -97.45014480  energy(sigma->0) =      -97.45014480


--------------------------------------------------------------------------------------------------------




--------------------------------------- Iteration      1(   6)  ---------------------------------------


     EDDAV:  cpu time    7.1653: real time    7.1838
 BZINTS: Fermi energy:  3.560156;144.000000 electrons
         Band energy:-834.566691;  BLOECHL correction:  0.000000
       DOS:  cpu time    0.0421: real time    0.0422
    --------------------------------------------
      LOOP:  cpu time    7.2074: real time    7.2259

 eigenvalue-minimisations  : 15440
 total energy-change (2. order) :-0.1428835E-02  (-0.1428527E-02)
 number of electron     144.0000001 magnetization 
 augmentation part      144.0000001 magnetization 

 Free energy of the ion-electron system (eV)
  ---------------------------------------------------
  alpha Z        PSCENC =       466.78151634
  Ewald energy   TEWEN  =     -6442.96156159
  -Hartree energ DENC   =      -899.32484706
  -exchange      EXHF   =         0.00000000
  -V(xc)+E(xc)   XCENC  =        49.11024097
  PAW double counting   =      3865.12538590    -3570.76707164
  entropy T*S    EENTRO =         0.00000000
  eigenvalues    EBANDS =      -834.56669070
  atomic energy  EATOM  =      7269.15145414
  Solvation  Ediel_sol  =         0.00000000
  ---------------------------------------------------
  free energy    TOTEN  =       -97.45157363 eV

  energy without entropy =      -97.45157363  energy(sigma->0) =      -97.45157363


--------------------------------------------------------------------------------------------------------




--------------------------------------- Iteration      1(   7)  ---------------------------------------


     EDDAV:  cpu time    6.5687: real time    6.5854
 BZINTS: Fermi energy:  3.560156;144.000000 electrons
         Band energy:-834.566736;  BLOECHL correction:  0.000000
       DOS:  cpu time    0.0421: real time    0.0422
    --------------------------------------------
      LOOP:  cpu time    6.6109: real time    6.6276

 eigenvalue-minimisations  : 13920
 total energy-change (2. order) :-0.4481838E-04  (-0.4481357E-04)
 number of electron     144.0000001 magnetization 
 augmentation part      144.0000001 magnetization 

 Free energy of the ion-electron system (eV)
  ---------------------------------------------------
  alpha Z        PSCENC =       466.78151634
  Ewald energy   TEWEN  =     -6442.96156159
  -Hartree energ DENC   =      -899.32484706
  -exchange      EXHF   =         0.00000000
  -V(xc)+E(xc)   XCENC  =        49.11024097
  PAW double counting   =      3865.12538590    -3570.76707164
  entropy T*S    EENTRO =         0.00000000
  eigenvalues    EBANDS =      -834.56673552
  atomic energy  EATOM  =      7269.15145414
  Solvation  Ediel_sol  =         0.00000000
  ---------------------------------------------------
  free energy    TOTEN  =       -97.45161845 eV

  energy without entropy =      -97.45161845  energy(sigma->0) =      -97.45161845


--------------------------------------------------------------------------------------------------------




--------------------------------------- Iteration      1(   8)  ---------------------------------------


     EDDAV:  cpu time    5.5748: real time    5.5894
 BZINTS: Fermi energy:  3.560156;144.000000 electrons
         Band energy:-834.566736;  BLOECHL correction:  0.000000
       DOS:  cpu time    0.0423: real time    0.0424
    --------------------------------------------
      LOOP:  cpu time    5.6170: real time    5.6318

 eigenvalue-minimisations  : 10760
 total energy-change (2. order) :-0.7706976E-06  (-0.7706514E-06)
 number of electron     144.0000001 magnetization 
 augmentation part      144.0000001 magnetization 

 Free energy of the ion-electron system (eV)
  ---------------------------------------------------
  alpha Z        PSCENC =       466.78151634
  Ewald energy   TEWEN  =     -6442.96156159
  -Hartree energ DENC   =      -899.32484706
  -exchange      EXHF   =         0.00000000
  -V(xc)+E(xc)   XCENC  =        49.11024097
  PAW double counting   =      3865.12538590    -3570.76707164
  entropy T*S    EENTRO =         0.00000000
  eigenvalues    EBANDS =      -834.56673629
  atomic energy  EATOM  =      7269.15145414
  Solvation  Ediel_sol  =         0.00000000
  ---------------------------------------------------
  free energy    TOTEN  =       -97.45161922 eV

  energy without entropy =      -97.45161922  energy(sigma->0) =      -97.45161922


--------------------------------------------------------------------------------------------------------




 average (electrostatic) potential at core
  the test charge radii are     1.2192  0.9892
  (the norm of the test charge is              1.0000)
       1 -35.9697       2 -35.9697       3 -35.9697       4 -35.9697       5 -36.0793
       6 -36.0793       7 -36.0793       8 -36.0793       9 -85.1089      10 -85.1089
      11 -85.1089      12 -85.1089      13 -85.1089      14 -85.1089      15 -85.1089
      16 -85.1089      17 -85.1782      18 -85.1782      19 -85.1782      20 -85.1782
      21 -85.0671      22 -85.0671      23 -85.0671      24 -85.0671
 
 
 
 E-fermi :   3.5602     XC(G=0):  -8.9674     alpha+bet :-10.5295


 k-point     1 :       0.0000    0.0000    0.0000
  band No.  band energies     occupation 
      1     -23.9643      2.00000
      2     -23.9587      2.00000
      3     -23.9551      2.00000
      4     -23.9549      2.00000
      5     -23.8790      2.00000
      6     -23.8759      2.00000
      7     -23.8709      2.00000
      8     -23.8688      2.00000
      9      -9.5413      2.00000
     10      -9.5198      2.00000
     11      -9.4772      2.00000
     12      -9.4702      2.00000
     13      -9.4258      2.00000
     14      -9.3824      2.00000
     15      -9.3788      2.00000
     16      -9.3610      2.00000
     17      -9.3566      2.00000
     18      -9.3289      2.00000
     19      -9.3211      2.00000
     20      -9.3174      2.00000
     21      -9.2729      2.00000
     22      -9.2377      2.00000
     23      -9.2031      2.00000
     24      -9.2021      2.00000
     25      -9.1975      2.00000
     26      -9.1726      2.00000
     27      -9.1598      2.00000
     28      -9.1590      2.00000
     29      -9.1427      2.00000
     30      -9.1413      2.00000
     31      -9.1291      2.00000
     32      -9.1180      2.00000
     33      -7.2112      2.00000
     34      -6.9486      2.00000
     35      -6.9081      2.00000
     36      -6.8846      2.00000
     37      -2.5857      2.00000
     38      -2.5214      2.00000
     39      -2.2573      2.00000
     40      -2.2387      2.00000
     41      -2.1496      2.00000
     42      -2.1307      2.00000
     43      -2.1299      2.00000
     44      -2.0877      2.00000
     45      -2.0291      2.00000
     46      -1.9786      2.00000
     47      -1.9292      2.00000
     48      -1.7579      2.00000
     49       0.0089      2.00000
     50       1.0378      2.00000
     51       1.2279      2.00000
     52       1.2682      2.00000
     53       1.3226      2.00000
     54       1.5398      2.00000
     55       1.7711      2.00000
     56       1.8350      2.00000
     57       1.8420      2.00000
     58       1.8990      2.00000
     59       1.9123      2.00000
     60       2.1401      2.00000
     61       2.1528      2.00000
     62       2.1585      2.00000
     63       2.3048      2.00000
     64       2.4232      2.00000
     65       2.4838      2.00000
     66       2.5540      2.00000
     67       2.5763      2.00000
     68       2.6077      2.00000
     69       2.9493      2.00000
     70       3.1807      2.00000
     71       3.2325      2.00000
     72       3.3562      2.00000
     73       4.5416      0.00000
     74       4.5437      0.00000
     75       4.8823      0.00000
     76       5.0623      0.00000
     77       5.0721      0.00000
     78       5.4311      0.00000
     79       5.6256      0.00000
     80       5.8183      0.00000
     81       5.8555      0.00000
     82       6.0922      0.00000
     83       6.1392      0.00000
     84       6.1455      0.00000
     85       6.1622      0.00000
     86       6.2506      0.00000
     87       6.2802      0.00000
     88       6.6182      0.00000

 k-point     2 :       0.1667    0.0000    0.0000
  band No.  band energies     occupation 
      1     -23.9638      2.00000
      2     -23.9589      2.00000
      3     -23.9552      2.00000
      4     -23.9551      2.00000
      5     -23.8784      2.00000
      6     -23.8755      2.00000
      7     -23.8714      2.00000
      8     -23.8694      2.00000
      9      -9.5490      2.00000
     10      -9.4947      2.00000
     11      -9.4943      2.00000
     12      -9.4699      2.00000
     13      -9.4048      2.00000
     14      -9.3753      2.00000
     15      -9.3733      2.00000
     16      -9.3644      2.00000
     17      -9.3623      2.00000
     18      -9.3292      2.00000
     19      -9.3279      2.00000
     20      -9.3247      2.00000
     21      -9.2863      2.00000
     22      -9.2226      2.00000
     23      -9.2089      2.00000
     24      -9.2011      2.00000
     25      -9.1936      2.00000
     26      -9.1718      2.00000
     27      -9.1596      2.00000
     28      -9.1553      2.00000
     29      -9.1524      2.00000
     30      -9.1481      2.00000
     31      -9.1318      2.00000
     32      -9.1270      2.00000
     33      -7.1805      2.00000
     34      -6.9380      2.00000
     35      -6.9185      2.00000
     36      -6.8823      2.00000
     37      -2.5830      2.00000
     38      -2.5223      2.00000
     39      -2.2866      2.00000
     40      -2.2437      2.00000
     41      -2.2387      2.00000
     42      -2.1342      2.00000
     43      -2.0924      2.00000
     44      -2.0464      2.00000
     45      -2.0290      2.00000
     46      -2.0018      2.00000
     47      -1.9434      2.00000
     48      -1.8707      2.00000
     49       0.1237      2.00000
     50       1.1247      2.00000
     51       1.1766      2.00000
     52       1.2453      2.00000
     53       1.2747      2.00000
     54       1.6649      2.00000
     55       1.7398      2.00000
     56       1.8531      2.00000
     57       1.9388      2.00000
     58       1.9513      2.00000
     59       2.0153      2.00000
     60       2.0687      2.00000
     61       2.2306      2.00000
     62       2.2532      2.00000
     63       2.2941      2.00000
     64       2.4726      2.00000
     65       2.4929      2.00000
     66       2.5090      2.00000
     67       2.5826      2.00000
     68       2.6353      2.00000
     69       2.9337      2.00000
     70       3.1579      2.00000
     71       3.2347      2.00000
     72       3.2978      2.00000
     73       4.5076      0.00000
     74       4.5616      0.00000
     75       4.8487      0.00000
     76       5.0302      0.00000
     77       5.0779      0.00000
     78       5.4328      0.00000
     79       5.4728      0.00000
     80       5.5778      0.00000
     81       5.6526      0.00000
     82       5.9236      0.00000
     83       5.9818      0.00000
     84       6.2258      0.00000
     85       6.3731      0.00000
     86       6.5747      0.00000
     87       6.5926      0.00000
     88       6.6259      0.00000

 k-point     3 :       0.3333    0.0000    0.0000
  band No.  band energies     occupation 
      1     -23.9625      2.00000
      2     -23.9596      2.00000
      3     -23.9554      2.00000
      4     -23.9553      2.00000
      5     -23.8769      2.00000
      6     -23.8743      2.00000
      7     -23.8728      2.00000
      8     -23.8708      2.00000
      9      -9.5531      2.00000
     10      -9.5264      2.00000
     11      -9.4494      2.00000
     12      -9.4391      2.00000
     13      -9.3878      2.00000
     14      -9.3844      2.00000
     15      -9.3658      2.00000
     16      -9.3651      2.00000
     17      -9.3522      2.00000
     18      -9.3386      2.00000
     19      -9.3314      2.00000
     20      -9.3273      2.00000
     21      -9.3135      2.00000
     22      -9.2463      2.00000
     23      -9.2112      2.00000
     24      -9.1861      2.00000
     25      -9.1849      2.00000
     26      -9.1828      2.00000
     27      -9.1749      2.00000
     28      -9.1606      2.00000
     29      -9.1586      2.00000
     30      -9.1445      2.00000
     31      -9.1397      2.00000
     32      -9.1275      2.00000
     33      -7.1046      2.00000
     34      -6.9538      2.00000
     35      -6.9137      2.00000
     36      -6.8813      2.00000
     37      -2.5749      2.00000
     38      -2.5029      2.00000
     39      -2.4319      2.00000
     40      -2.2643      2.00000
     41      -2.2054      2.00000
     42      -2.1045      2.00000
     43      -2.0926      2.00000
     44      -2.0919      2.00000
     45      -2.0838      2.00000
     46      -2.0131      2.00000
     47      -2.0048      2.00000
     48      -1.9824      2.00000
     49       0.3812      2.00000
     50       1.0080      2.00000
     51       1.1292      2.00000
     52       1.1610      2.00000
     53       1.4431      2.00000
     54       1.7115      2.00000
     55       1.9033      2.00000
     56       1.9561      2.00000
     57       2.0020      2.00000
     58       2.0364      2.00000
     59       2.0422      2.00000
     60       2.2094      2.00000
     61       2.3213      2.00000
     62       2.3542      2.00000
     63       2.3548      2.00000
     64       2.4717      2.00000
     65       2.5158      2.00000
     66       2.5745      2.00000
     67       2.6603      2.00000
     68       2.7215      2.00000
     69       2.9214      2.00000
     70       3.0744      2.00000
     71       3.0892      2.00000
     72       3.1964      2.00000
     73       4.5896      0.00000
     74       4.6230      0.00000
     75       4.7969      0.00000
     76       4.9219      0.00000
     77       5.0356      0.00000
     78       5.0802      0.00000
     79       5.2492      0.00000
     80       5.3909      0.00000
     81       5.6070      0.00000
     82       5.8756      0.00000
     83       6.1019      0.00000
     84       6.2438      0.00000
     85       6.3903      0.00000
     86       6.4560      0.00000
     87       6.5216      0.00000
     88       6.6039      0.00000

 k-point     4 :       0.5000    0.0000    0.0000
  band No.  band energies     occupation 
      1     -23.9609      2.00000
      2     -23.9609      2.00000
      3     -23.9555      2.00000
      4     -23.9555      2.00000
      5     -23.8748      2.00000
      6     -23.8748      2.00000
      7     -23.8726      2.00000
      8     -23.8726      2.00000
      9      -9.5467      2.00000
     10      -9.5467      2.00000
     11      -9.4196      2.00000
     12      -9.4196      2.00000
     13      -9.3871      2.00000
     14      -9.3871      2.00000
     15      -9.3527      2.00000
     16      -9.3527      2.00000
     17      -9.3509      2.00000
     18      -9.3509      2.00000
     19      -9.3351      2.00000
     20      -9.3351      2.00000
     21      -9.3035      2.00000
     22      -9.3035      2.00000
     23      -9.2026      2.00000
     24      -9.2026      2.00000
     25      -9.1774      2.00000
     26      -9.1774      2.00000
     27      -9.1736      2.00000
     28      -9.1736      2.00000
     29      -9.1482      2.00000
     30      -9.1482      2.00000
     31      -9.1337      2.00000
     32      -9.1337      2.00000
     33      -7.0191      2.00000
     34      -7.0191      2.00000
     35      -6.8911      2.00000
     36      -6.8911      2.00000
     37      -2.5419      2.00000
     38      -2.5419      2.00000
     39      -2.3916      2.00000
     40      -2.3916      2.00000
     41      -2.1504      2.00000
     42      -2.1504      2.00000
     43      -2.1191      2.00000
     44      -2.1191      2.00000
     45      -2.0369      2.00000
     46      -2.0369      2.00000
     47      -2.0205      2.00000
     48      -2.0205      2.00000
     49       0.6925      2.00000
     50       0.6925      2.00000
     51       1.1326      2.00000
     52       1.1326      2.00000
     53       1.6384      2.00000
     54       1.6384      2.00000
     55       1.9687      2.00000
     56       1.9687      2.00000
     57       2.0222      2.00000
     58       2.0222      2.00000
     59       2.2246      2.00000
     60       2.2246      2.00000
     61       2.4125      2.00000
     62       2.4125      2.00000
     63       2.4202      2.00000
     64       2.4202      2.00000
     65       2.5755      2.00000
     66       2.5755      2.00000
     67       2.7624      2.00000
     68       2.7624      2.00000
     69       2.9913      2.00000
     70       2.9913      2.00000
     71       3.0301      2.00000
     72       3.0301      2.00000
     73       4.7649      0.00000
     74       4.7649      0.00000
     75       4.8178      0.00000
     76       4.8178      0.00000
     77       4.8387      0.00000
     78       4.8387      0.00000
     79       5.2252      0.00000
     80       5.2252      0.00000
     81       5.9014      0.00000
     82       5.9014      0.00000
     83       6.0019      0.00000
     84       6.0019      0.00000
     85       6.0910      0.00000
     86       6.0910      0.00000
     87       6.7466      0.00000
     88       6.7564      0.00000

 k-point     5 :       0.0000    0.1250    0.0000
  band No.  band energies     occupation 
      1     -23.9636      2.00000
      2     -23.9585      2.00000
      3     -23.9551      2.00000
      4     -23.9550      2.00000
      5     -23.8792      2.00000
      6     -23.8763      2.00000
      7     -23.8709      2.00000
      8     -23.8690      2.00000
      9      -9.5342      2.00000
     10      -9.5233      2.00000
     11      -9.5097      2.00000
     12      -9.4317      2.00000
     13      -9.4258      2.00000
     14      -9.4174      2.00000
     15      -9.3986      2.00000
     16      -9.3885      2.00000
     17      -9.3717      2.00000
     18      -9.3255      2.00000
     19      -9.3047      2.00000
     20      -9.2844      2.00000
     21      -9.2556      2.00000
     22      -9.2489      2.00000
     23      -9.2036      2.00000
     24      -9.2036      2.00000
     25      -9.1886      2.00000
     26      -9.1843      2.00000
     27      -9.1541      2.00000
     28      -9.1500      2.00000
     29      -9.1498      2.00000
     30      -9.1424      2.00000
     31      -9.1301      2.00000
     32      -9.1165      2.00000
     33      -7.1781      2.00000
     34      -6.9412      2.00000
     35      -6.9070      2.00000
     36      -6.8858      2.00000
     37      -2.5493      2.00000
     38      -2.4909      2.00000
     39      -2.2458      2.00000
     40      -2.2190      2.00000
     41      -2.2172      2.00000
     42      -2.1188      2.00000
     43      -2.1161      2.00000
     44      -2.0766      2.00000
     45      -2.0360      2.00000
     46      -2.0065      2.00000
     47      -1.9751      2.00000
     48      -1.7610      2.00000
     49       0.1608      2.00000
     50       1.0841      2.00000
     51       1.2528      2.00000
     52       1.3027      2.00000
     53       1.3309      2.00000
     54       1.5241      2.00000
     55       1.5354      2.00000
     56       1.8478      2.00000
     57       1.8565      2.00000
     58       1.9556      2.00000
     59       2.0473      2.00000
     60       2.1017      2.00000
     61       2.1686      2.00000
     62       2.1790      2.00000
     63       2.3092      2.00000
     64       2.4012      2.00000
     65       2.4576      2.00000
     66       2.4692      2.00000
     67       2.5857      2.00000
     68       2.6729      2.00000
     69       2.9305      2.00000
     70       2.9350      2.00000
     71       3.3664      2.00000
     72       3.4273      2.00000
     73       4.4119      0.00000
     74       4.5210      0.00000
     75       4.9388      0.00000
     76       5.1293      0.00000
     77       5.1778      0.00000
     78       5.3855      0.00000
     79       5.5344      0.00000
     80       5.7417      0.00000
     81       5.8110      0.00000
     82       5.8815      0.00000
     83       6.0200      0.00000
     84       6.2039      0.00000
     85       6.2203      0.00000
     86       6.2433      0.00000
     87       6.2658      0.00000
     88       6.4009      0.00000

 k-point     6 :       0.1667    0.1250    0.0000
  band No.  band energies     occupation 
      1     -23.9632      2.00000
      2     -23.9586      2.00000
      3     -23.9552      2.00000
      4     -23.9552      2.00000
      5     -23.8787      2.00000
      6     -23.8759      2.00000
      7     -23.8714      2.00000
      8     -23.8695      2.00000
      9      -9.5455      2.00000
     10      -9.5208      2.00000
     11      -9.4996      2.00000
     12      -9.4438      2.00000
     13      -9.4099      2.00000
     14      -9.4053      2.00000
     15      -9.3912      2.00000
     16      -9.3899      2.00000
     17      -9.3720      2.00000
     18      -9.3260      2.00000
     19      -9.3072      2.00000
     20      -9.2970      2.00000
     21      -9.2691      2.00000
     22      -9.2350      2.00000
     23      -9.2107      2.00000
     24      -9.2014      2.00000
     25      -9.1835      2.00000
     26      -9.1778      2.00000
     27      -9.1657      2.00000
     28      -9.1554      2.00000
     29      -9.1488      2.00000
     30      -9.1450      2.00000
     31      -9.1326      2.00000
     32      -9.1197      2.00000
     33      -7.1503      2.00000
     34      -6.9314      2.00000
     35      -6.9158      2.00000
     36      -6.8832      2.00000
     37      -2.5448      2.00000
     38      -2.4998      2.00000
     39      -2.2962      2.00000
     40      -2.2228      2.00000
     41      -2.2188      2.00000
     42      -2.1413      2.00000
     43      -2.1323      2.00000
     44      -2.0806      2.00000
     45      -2.0248      2.00000
     46      -2.0006      2.00000
     47      -1.9934      2.00000
     48      -1.8441      2.00000
     49       0.2601      2.00000
     50       1.1827      2.00000
     51       1.2074      2.00000
     52       1.2686      2.00000
     53       1.2967      2.00000
     54       1.5890      2.00000
     55       1.6379      2.00000
     56       1.8670      2.00000
     57       1.9425      2.00000
     58       1.9774      2.00000
     59       2.0430      2.00000
     60       2.1021      2.00000
     61       2.2134      2.00000
     62       2.2465      2.00000
     63       2.3338      2.00000
     64       2.3626      2.00000
     65       2.4804      2.00000
     66       2.5043      2.00000
     67       2.6037      2.00000
     68       2.7097      2.00000
     69       2.9243      2.00000
     70       2.9498      2.00000
     71       3.3024      2.00000
     72       3.3693      2.00000
     73       4.4399      0.00000
     74       4.5273      0.00000
     75       4.8890      0.00000
     76       5.0436      0.00000
     77       5.1799      0.00000
     78       5.2219      0.00000
     79       5.4769      0.00000
     80       5.5670      0.00000
     81       5.6550      0.00000
     82       5.9184      0.00000
     83       6.0080      0.00000
     84       6.1333      0.00000
     85       6.1580      0.00000
     86       6.3385      0.00000
     87       6.3505      0.00000
     88       6.6394      0.00000

 k-point     7 :       0.3333    0.1250    0.0000
  band No.  band energies     occupation 
      1     -23.9620      2.00000
      2     -23.9593      2.00000
      3     -23.9554      2.00000
      4     -23.9553      2.00000
      5     -23.8771      2.00000
      6     -23.8746      2.00000
      7     -23.8729      2.00000
      8     -23.8710      2.00000
      9      -9.5556      2.00000
     10      -9.5421      2.00000
     11      -9.4522      2.00000
     12      -9.4398      2.00000
     13      -9.4145      2.00000
     14      -9.3982      2.00000
     15      -9.3756      2.00000
     16      -9.3675      2.00000
     17      -9.3636      2.00000
     18      -9.3314      2.00000
     19      -9.3195      2.00000
     20      -9.3132      2.00000
     21      -9.2878      2.00000
     22      -9.2523      2.00000
     23      -9.2184      2.00000
     24      -9.1899      2.00000
     25      -9.1890      2.00000
     26      -9.1767      2.00000
     27      -9.1755      2.00000
     28      -9.1551      2.00000
     29      -9.1545      2.00000
     30      -9.1364      2.00000
     31      -9.1364      2.00000
     32      -9.1276      2.00000
     33      -7.0814      2.00000
     34      -6.9464      2.00000
     35      -6.9089      2.00000
     36      -6.8809      2.00000
     37      -2.5356      2.00000
     38      -2.4936      2.00000
     39      -2.4195      2.00000
     40      -2.2881      2.00000
     41      -2.1841      2.00000
     42      -2.1680      2.00000
     43      -2.1097      2.00000
     44      -2.0881      2.00000
     45      -2.0535      2.00000
     46      -2.0434      2.00000
     47      -1.9994      2.00000
     48      -1.9650      2.00000
     49       0.4856      2.00000
     50       1.0484      2.00000
     51       1.1843      2.00000
     52       1.2414      2.00000
     53       1.4413      2.00000
     54       1.6742      2.00000
     55       1.8738      2.00000
     56       1.8908      2.00000
     57       1.9827      2.00000
     58       2.0502      2.00000
     59       2.0686      2.00000
     60       2.1607      2.00000
     61       2.2923      2.00000
     62       2.2954      2.00000
     63       2.3963      2.00000
     64       2.4584      2.00000
     65       2.5268      2.00000
     66       2.5874      2.00000
     67       2.6540      2.00000
     68       2.8355      2.00000
     69       2.9244      2.00000
     70       2.9445      2.00000
     71       3.1322      2.00000
     72       3.1864      2.00000
     73       4.5034      0.00000
     74       4.6494      0.00000
     75       4.7964      0.00000
     76       4.8088      0.00000
     77       4.9479      0.00000
     78       5.1709      0.00000
     79       5.3040      0.00000
[...]
     78       4.7467      0.00000
     79       5.1226      0.00000
     80       5.1226      0.00000
     81       5.5017      0.00000
     82       5.5017      0.00000
     83       5.6465      0.00000
     84       5.6466      0.00000
     85       6.0137      0.00000
     86       6.0212      0.00000
     87       6.2133      0.00000
     88       6.2714      0.00000

 k-point    60 :       0.5000    0.5000    0.4000
  band No.  band energies     occupation 
      1     -23.9568      2.00000
      2     -23.9568      2.00000
      3     -23.9568      2.00000
      4     -23.9568      2.00000
      5     -23.8750      2.00000
      6     -23.8750      2.00000
      7     -23.8750      2.00000
      8     -23.8750      2.00000
      9      -9.5355      2.00000
     10      -9.5355      2.00000
     11      -9.5355      2.00000
     12      -9.5355      2.00000
     13      -9.4539      2.00000
     14      -9.4539      2.00000
     15      -9.4539      2.00000
     16      -9.4539      2.00000
     17      -9.3030      2.00000
     18      -9.3030      2.00000
     19      -9.3030      2.00000
     20      -9.3030      2.00000
     21      -9.2122      2.00000
     22      -9.2122      2.00000
     23      -9.2122      2.00000
     24      -9.2122      2.00000
     25      -9.1630      2.00000
     26      -9.1630      2.00000
     27      -9.1630      2.00000
     28      -9.1630      2.00000
     29      -9.1330      2.00000
     30      -9.1330      2.00000
     31      -9.1330      2.00000
     32      -9.1330      2.00000
     33      -6.8956      2.00000
     34      -6.8956      2.00000
     35      -6.8956      2.00000
     36      -6.8956      2.00000
     37      -2.4999      2.00000
     38      -2.4998      2.00000
     39      -2.4998      2.00000
     40      -2.4998      2.00000
     41      -2.1176      2.00000
     42      -2.1176      2.00000
     43      -2.1176      2.00000
     44      -2.1176      2.00000
     45      -1.9580      2.00000
     46      -1.9580      2.00000
     47      -1.9580      2.00000
     48      -1.9580      2.00000
     49       1.2101      2.00000
     50       1.2101      2.00000
     51       1.2101      2.00000
     52       1.2101      2.00000
     53       1.7700      2.00000
     54       1.7700      2.00000
     55       1.7700      2.00000
     56       1.7700      2.00000
     57       2.0442      2.00000
     58       2.0442      2.00000
     59       2.0442      2.00000
     60       2.0442      2.00000
     61       2.2558      2.00000
     62       2.2558      2.00000
     63       2.2558      2.00000
     64       2.2558      2.00000
     65       2.7151      2.00000
     66       2.7151      2.00000
     67       2.7151      2.00000
     68       2.7151      2.00000
     69       3.1240      2.00000
     70       3.1240      2.00000
     71       3.1240      2.00000
     72       3.1240      2.00000
     73       4.4852      0.00000
     74       4.4852      0.00000
     75       4.4852      0.00000
     76       4.4852      0.00000
     77       4.9382      0.00000
     78       4.9382      0.00000
     79       4.9382      0.00000
     80       4.9382      0.00000
     81       5.5798      0.00000
     82       5.5798      0.00000
     83       5.5798      0.00000
     84       5.5799      0.00000
     85       5.9450      0.00000
     86       5.9452      0.00000
     87       5.9455      0.00000
     88       5.9529      0.00000


--------------------------------------------------------------------------------------------------------


 soft charge-density along one line, spin component           1
         0         1         2         3         4         5         6         7         8         9
 total charge-density along one line
 
 pseudopotential strength for first ion, spin component:           1
  2.182  -4.466  -0.000   0.003   0.001  -0.000   0.002   0.001
 -4.466  -2.808   0.000  -0.001   0.000  -0.000   0.001   0.000
 -0.000   0.000  -7.448  -0.000  -0.000   1.125  -0.000  -0.000
  0.003  -0.001  -0.000  -7.448  -0.001  -0.000   1.126  -0.002
  0.001   0.000  -0.000  -0.001  -7.448  -0.000  -0.002   1.126
 -0.000  -0.000   1.125  -0.000  -0.000   7.404  -0.000  -0.000
  0.002   0.001  -0.000   1.126  -0.002  -0.000   7.404  -0.000
  0.001   0.000  -0.000  -0.002   1.126  -0.000  -0.000   7.404
 -0.000   0.000   0.001  -0.000  -0.000   0.000  -0.000  -0.000
 -0.000   0.000   0.001  -0.000  -0.000   0.001  -0.000  -0.000
  0.000  -0.000   0.000   0.001  -0.000   0.000   0.001   0.000
 -0.001   0.000  -0.000   0.001   0.001  -0.000   0.001   0.001
  0.000  -0.000   0.000  -0.000   0.001   0.000  -0.000   0.001
  0.000   0.000  -0.000   0.000   0.000  -0.000   0.000   0.000
  0.000   0.000  -0.000   0.000   0.000  -0.000   0.000   0.000
 -0.000  -0.000  -0.000  -0.000  -0.000  -0.000  -0.000   0.000
  0.000   0.000   0.000  -0.000  -0.000   0.000  -0.000  -0.000
 -0.000  -0.000  -0.000   0.000  -0.000  -0.000   0.000  -0.000
 total augmentation occupancy for first ion, spin component:           1
  2.355  -0.912   0.000   0.000   0.000   0.000   0.000   0.000   0.000   0.000   0.000   0.000   0.000   0.000   0.000   0.000
 -0.912   2.345   0.000   0.000   0.000   0.000   0.000   0.000   0.000   0.000   0.000   0.000   0.000   0.000   0.000   0.000
  0.000   0.000   2.000   0.000   0.000   0.000   0.000   0.000   0.000   0.000   0.000   0.000   0.000   0.000   0.000   0.000
  0.000   0.000   0.000   2.000   0.000   0.000   0.000   0.000   0.000   0.000   0.000   0.000   0.000   0.000   0.000   0.000
  0.000   0.000   0.000   0.000   2.000   0.000   0.000   0.000   0.000   0.000   0.000   0.000   0.000   0.000   0.000   0.000
  0.000   0.000   0.000   0.000   0.000   0.000   0.000   0.000   0.000   0.000   0.000   0.000   0.000   0.000   0.000   0.000
  0.000   0.000   0.000   0.000   0.000   0.000   0.000   0.000   0.000   0.000   0.000   0.000   0.000   0.000   0.000   0.000
  0.000   0.000   0.000   0.000   0.000   0.000   0.000   0.000   0.000   0.000   0.000   0.000   0.000   0.000   0.000   0.000
  0.000   0.000   0.000   0.000   0.000   0.000   0.000   0.000   0.002   0.000   0.000   0.000   0.000   0.000   0.000   0.000
  0.000   0.000   0.000   0.000   0.000   0.000   0.000   0.000   0.000   0.002   0.000   0.000   0.000   0.000   0.000   0.000
  0.000   0.000   0.000   0.000   0.000   0.000   0.000   0.000   0.000   0.000   0.002   0.000   0.000   0.000   0.000   0.000
  0.000   0.000   0.000   0.000   0.000   0.000   0.000   0.000   0.000   0.000   0.000   0.002   0.000   0.000   0.000   0.000
  0.000   0.000   0.000   0.000   0.000   0.000   0.000   0.000   0.000   0.000   0.000   0.000   0.002   0.000   0.000   0.000
  0.000   0.000   0.000   0.000   0.000   0.000   0.000   0.000   0.000   0.000   0.000   0.000   0.000   0.000   0.000   0.000
  0.000   0.000   0.000   0.000   0.000   0.000   0.000   0.000   0.000   0.000   0.000   0.000   0.000   0.000   0.000   0.000
  0.000   0.000   0.000   0.000   0.000   0.000   0.000   0.000   0.000   0.000   0.000   0.000   0.000   0.000   0.000   0.000
  0.000   0.000   0.000   0.000   0.000   0.000   0.000   0.000   0.000   0.000   0.000   0.000   0.000   0.000   0.000   0.000
  0.000   0.000   0.000   0.000   0.000   0.000   0.000   0.000   0.000   0.000   0.000   0.000   0.000   0.000   0.000   0.000


------------------------ aborting loop because EDIFF is reached ----------------------------------------


 


 total charge     
 
# of ion       s       p       d       tot
------------------------------------------
    1        2.017   5.586   0.321   7.925
    2        2.017   5.586   0.321   7.925
    3        2.016   5.588   0.319   7.924
    4        2.016   5.588   0.319   7.924
    5        2.010   5.578   0.323   7.910
    6        2.010   5.578   0.323   7.910
    7        2.010   5.579   0.323   7.911
    8        2.010   5.579   0.323   7.911
    9        0.802   0.861   0.000   1.663
   10        0.802   0.861   0.000   1.663
   11        0.802   0.860   0.000   1.661
   12        0.802   0.860   0.000   1.661
   13        0.803   0.858   0.000   1.661
   14        0.803   0.858   0.000   1.661
   15        0.802   0.861   0.000   1.663
   16        0.802   0.861   0.000   1.663
   17        0.816   0.813   0.000   1.629
   18        0.816   0.813   0.000   1.629
   19        0.817   0.813   0.000   1.630
   20        0.817   0.813   0.000   1.630
   21        0.801   0.858   0.000   1.659
   22        0.801   0.858   0.000   1.659
   23        0.800   0.860   0.000   1.659
   24        0.800   0.860   0.000   1.659
--------------------------------------------------
tot         28.991  58.226   2.573  89.790
 
    CHARGE:  cpu time    0.1653: real time    0.1657
    FORLOC:  cpu time    0.0038: real time    0.0038
    FORNL :  cpu time    1.0093: real time    1.0117
    STRESS:  cpu time    2.9639: real time    2.9712
    FORCOR:  cpu time    0.9097: real time    0.9118
    FORHAR:  cpu time    0.0082: real time    0.0082
    OFIELD:  cpu time    0.0002: real time    0.0002

  FORCE on cell =-STRESS in cart. coord.  units (eV):
  Direction    XX          YY          ZZ          XY          YZ          ZX
  --------------------------------------------------------------------------------------
  Alpha Z   466.78152   466.78152   466.78152
  Ewald   -2161.39154 -2147.30166 -2134.28631    -0.00000    -0.00000    -0.00014
  Hartree   291.39405   302.53464   305.39860     0.00000    -0.00000     0.00001
  E(xc)    -466.68776  -466.64407  -466.63462    -0.00000    -0.00000    -0.00000
  Local     138.89073   119.93191   104.77559     0.00000     0.00000     0.00009
  n-local   341.53672   339.18634   339.64143    -0.10447    -0.05942    -0.17501
  augment  -167.91126  -166.96972  -167.15767     0.00000     0.00000     0.00000
  Kinetic  1557.25837  1552.40904  1551.42747     0.63071    -0.99200    -0.01525
  Fock        0.00000     0.00000     0.00000     0.00000     0.00000     0.00000
  -------------------------------------------------------------------------------------
  Total      -0.12917    -0.07199    -0.05401     0.00000     0.00000     0.00000
  in kB      -0.30017    -0.16729    -0.12550     0.00000     0.00000     0.00000
  external pressure =       -0.20 kB  Pullay stress =        0.00 kB


 VOLUME and BASIS-vectors are now :
 -----------------------------------------------------------------------------
  energy-cutoff  :      500.00
  volume of cell :      689.47
      direct lattice vectors                 reciprocal lattice vectors
     8.908260505  0.000000000  0.000000000     0.112255361  0.000000000  0.000000000
     0.000000000  6.726861978  0.000000000     0.000000000  0.148657725  0.000000000
     0.000000000  0.000000000 11.505612668     0.000000000  0.000000000  0.086914103

  length of vectors
     8.908260505  6.726861978 11.505612668     0.112255361  0.148657725  0.086914103


 FORCES acting on ions
    electron-ion (+dipol)            ewald-force                    non-local-force                 convergence-correction
 -----------------------------------------------------------------------------------------------
   0.283E+01 0.804E-04 0.161E+01   -.316E+01 0.141E-04 -.196E+01   0.327E+00 -.264E-18 0.344E+00   0.381E-03 -.123E-04 -.752E-03
   -.283E+01 0.867E-05 -.161E+01   0.316E+01 -.201E-04 0.196E+01   -.327E+00 -.116E-18 -.344E+00   -.371E-03 0.426E-04 0.766E-03
   -.283E+01 0.447E-05 0.161E+01   0.316E+01 -.201E-04 -.196E+01   -.327E+00 -.323E-18 0.344E+00   -.338E-03 0.426E-04 -.103E-02
   0.283E+01 0.762E-04 -.161E+01   -.316E+01 0.141E-04 0.196E+01   0.327E+00 0.628E-18 -.344E+00   0.344E-03 -.123E-04 0.960E-03
   -.218E+02 0.737E-05 -.555E+01   0.211E+02 -.179E-04 0.561E+01   0.749E+00 -.263E-18 -.703E-01   0.212E-02 0.408E-04 -.247E-02
   0.218E+02 0.789E-04 0.555E+01   -.211E+02 0.172E-04 -.561E+01   -.749E+00 0.648E-18 0.703E-01   -.212E-02 -.148E-04 0.238E-02
   0.218E+02 0.768E-04 -.555E+01   -.211E+02 0.172E-04 0.561E+01   -.749E+00 0.650E-18 -.703E-01   -.211E-02 -.148E-04 -.220E-02
   -.218E+02 0.525E-05 0.555E+01   0.211E+02 -.179E-04 -.561E+01   0.749E+00 0.541E-18 0.703E-01   0.212E-02 0.408E-04 0.237E-02
   0.104E+02 0.305E+02 -.167E+02   -.108E+02 -.318E+02 0.176E+02   0.430E+00 0.133E+01 -.819E+00   0.254E-03 -.196E-03 0.958E-03
   -.104E+02 -.305E+02 0.167E+02   0.108E+02 0.318E+02 -.176E+02   -.430E+00 -.133E+01 0.819E+00   -.260E-03 0.188E-03 -.977E-03
   -.104E+02 -.305E+02 -.167E+02   0.108E+02 0.318E+02 0.176E+02   -.430E+00 -.133E+01 -.819E+00   -.269E-03 0.197E-03 0.101E-02
   0.104E+02 0.305E+02 0.167E+02   -.108E+02 -.318E+02 -.176E+02   0.430E+00 0.133E+01 0.819E+00   0.273E-03 -.186E-03 -.995E-03
   -.104E+02 0.305E+02 0.167E+02   0.108E+02 -.318E+02 -.176E+02   -.430E+00 0.133E+01 0.819E+00   -.259E-03 -.184E-03 -.978E-03
   0.104E+02 -.305E+02 -.167E+02   -.108E+02 0.318E+02 0.176E+02   0.430E+00 -.133E+01 -.819E+00   0.254E-03 0.189E-03 0.958E-03
   0.104E+02 -.305E+02 0.167E+02   -.108E+02 0.318E+02 -.176E+02   0.430E+00 -.133E+01 0.819E+00   0.273E-03 0.179E-03 -.994E-03
   -.104E+02 0.305E+02 -.167E+02   0.108E+02 -.318E+02 0.176E+02   -.430E+00 0.133E+01 -.819E+00   -.269E-03 -.193E-03 0.101E-02
   0.429E+02 -.121E-04 0.630E+00   -.448E+02 -.786E-05 -.142E+01   0.194E+01 -.109E-16 0.790E+00   -.807E-03 0.743E-05 0.648E-03
   -.429E+02 -.684E-06 -.630E+00   0.448E+02 0.815E-05 0.142E+01   -.194E+01 -.610E-17 -.790E+00   0.794E-03 -.713E-05 -.633E-03
   -.429E+02 0.755E-05 0.630E+00   0.448E+02 0.815E-05 -.142E+01   -.194E+01 -.398E-17 0.790E+00   0.813E-03 -.713E-05 0.578E-03
   0.429E+02 -.389E-05 -.630E+00   -.448E+02 -.786E-05 0.142E+01   0.194E+01 -.925E-17 -.790E+00   -.806E-03 0.743E-05 -.598E-03
   0.788E+01 -.421E-05 0.346E+02   -.788E+01 0.875E-05 -.362E+02   -.513E-02 -.227E-17 0.163E+01   0.239E-03 -.735E-05 -.631E-03
   -.788E+01 -.150E-04 -.346E+02   0.788E+01 -.914E-05 0.362E+02   0.513E-02 -.240E-17 -.163E+01   -.246E-03 0.789E-05 0.622E-03
   -.788E+01 -.121E-05 0.346E+02   0.788E+01 -.914E-05 -.362E+02   0.513E-02 -.163E-17 0.163E+01   -.232E-03 0.789E-05 -.628E-03
   0.788E+01 0.953E-05 -.346E+02   -.788E+01 0.875E-05 0.362E+02   -.513E-02 0.351E-18 -.163E+01   0.229E-03 -.735E-05 0.622E-03
 -----------------------------------------------------------------------------------------------
   -.273E-03 0.394E-03 0.616E-04   -.231E-13 -.441E-13 -.711E-14   0.867E-18 -.258E-15 0.000E+00   0.424E-05 0.107E-03 -.266E-05
 
 
 POSITION                                       TOTAL-FORCE (eV/Angst)
 -----------------------------------------------------------------------------------
      0.13687      1.68172      7.96340         0.001645     -0.000000      0.002104
      8.77139      5.04515      3.54221        -0.001645     -0.000000     -0.002104
      4.31726      5.04515      2.21059        -0.001645      0.000000      0.002104
      4.59100      1.68172      9.29502         0.001645      0.000000     -0.002104
      1.43158      5.04515     10.42987        -0.003726     -0.000000     -0.003946
      7.47668      1.68172      1.07574         0.003726      0.000000      0.003946
      3.02255      1.68172      4.67706         0.003726      0.000000     -0.003946
      5.88571      5.04515      6.82855        -0.003726      0.000000      0.003946
      1.72337      0.47763      1.68413        -0.000459     -0.003803     -0.004841
      7.18489      6.24923      9.82149         0.000459      0.003803      0.004841
      2.73076      6.24923      7.43693         0.000459      0.003803     -0.004841
      6.17750      0.47763      4.06868        -0.000459     -0.003803      0.004841
      7.18489      3.84106      9.82149         0.000459     -0.003803      0.004841
      1.72337      2.88580      1.68413        -0.000459      0.003803     -0.004841
      6.17750      2.88580      4.06868        -0.000459      0.003803      0.004841
      2.73076      3.84106      7.43693         0.000459     -0.003803     -0.004841
      0.72396      5.04515      6.79944         0.009545     -0.000000      0.002474
      8.18430      1.68172      4.70617        -0.009545     -0.000000     -0.002474
      3.73017      1.68172      1.04664        -0.009545     -0.000000      0.002474
      5.17809      5.04515     10.45898         0.009545      0.000000     -0.002474
      1.74956      1.68172     11.10205         0.003118      0.000000     -0.006028
      7.15870      5.04515      0.40356        -0.003118     -0.000000      0.006028
      2.70457      5.04515      5.34924        -0.003118     -0.000000     -0.006028
      6.20369      1.68172      6.15637         0.003118     -0.000000      0.006028
 -----------------------------------------------------------------------------------
    total drift:                               -0.000268      0.000501      0.000059


--------------------------------------------------------------------------------------------------------



  FREE ENERGIE OF THE ION-ELECTRON SYSTEM (eV)
  ---------------------------------------------------
  free  energy   TOTEN  =       -97.45161922 eV

  energy  without entropy=      -97.45161922  energy(sigma->0) =      -97.45161922
 


--------------------------------------------------------------------------------------------------------


    POTLOK:  cpu time    1.3212: real time    1.3244


--------------------------------------------------------------------------------------------------------


 writing wavefunctions
     LOOP+:  cpu time   68.0488: real time   69.0659
    4ORBIT:  cpu time    0.0001: real time    0.0005
 


 total charge     
 
# of ion       s       p       d       tot
------------------------------------------
    1        2.017   5.586   0.321   7.925
    2        2.017   5.586   0.321   7.925
    3        2.016   5.588   0.319   7.924
    4        2.016   5.588   0.319   7.924
    5        2.010   5.578   0.323   7.910
    6        2.010   5.578   0.323   7.910
    7        2.010   5.579   0.323   7.911
    8        2.010   5.579   0.323   7.911
    9        0.802   0.861   0.000   1.663
   10        0.802   0.861   0.000   1.663
   11        0.802   0.860   0.000   1.661
   12        0.802   0.860   0.000   1.661
   13        0.803   0.858   0.000   1.661
   14        0.803   0.858   0.000   1.661
   15        0.802   0.861   0.000   1.663
   16        0.802   0.861   0.000   1.663
   17        0.816   0.813   0.000   1.629
   18        0.816   0.813   0.000   1.629
   19        0.817   0.813   0.000   1.630
   20        0.817   0.813   0.000   1.630
   21        0.801   0.858   0.000   1.659
   22        0.801   0.858   0.000   1.659
   23        0.800   0.860   0.000   1.659
   24        0.800   0.860   0.000   1.659
--------------------------------------------------
tot         28.991  58.226   2.573  89.790
 
 BZINTS: Fermi energy:  3.560156;144.000000 electrons
         Band energy:-834.566736;  BLOECHL correction:  0.000000

 total amount of memory used by VASP MPI-rank0    85970. kBytes
=======================================================================

   base      :      30000. kBytes
   nonlr-proj:       2650. kBytes
   fftplans  :       2345. kBytes
   grid      :       3658. kBytes
   one-center:         93. kBytes
   wavefun   :      47224. kBytes
 
  
  
 General timing and accounting informations for this job:
 ========================================================
  
                  Total CPU time used (sec):       82.851
                            User time (sec):       80.249
                          System time (sec):        2.602
                         Elapsed time (sec):       86.527
  
                   Maximum memory used (kb):      275060.
                   Average memory used (kb):           0.
  
                          Minor page faults:        25609
                          Major page faults:          292
                 Voluntary context switches:        13082
